Title
81332
    1CHL1    C3    1   3.911   0.641  10.277 -0.1814  0.0254 -0.1937
    1CHL1    H3    2   3.862   0.739  10.260  0.6018  0.4267 -0.1725
    1CHL1    O3    3   3.890   0.614  10.419 -0.0212 -0.1663  0.0332
    1CHL1   H3'    4   3.929   0.688  10.465  1.0844  1.3624 -3.0276
    1CHL1    C4    5   3.829   0.535  10.204  0.2597  0.0612  0.4915
    1CHL1   H4A    6   3.854   0.431  10.234  0.6674  0.1004  0.2984
    1CHL1   H4B    7   3.721   0.542  10.227  0.2341  1.2954  0.1053
    1CHL1    C5    8   3.851   0.567  10.057  0.1591  0.4207  0.6967
    1CHL1    C6    9   3.742   0.597   9.985  0.1206 -0.4646  0.4422
    1CHL1    H6   10   3.645   0.598  10.036 -0.6965  2.3854 -0.9258
    1CHL1    C7   11   3.741   0.623   9.835  0.4514 -0.7705 -0.8871
    1CHL1   H7A   12   3.660   0.559   9.794  0.0211  0.2788 -1.7328
    1CHL1   H7B   13   3.709   0.727   9.810  1.0821 -0.0291  1.1716
    1CHL1    C8   14   3.878   0.573   9.785  0.1311 -0.4560  1.6405
    1CHL1    H8   15   3.869   0.462   9.785 -0.6543 -0.4220  0.3792
    1CHL1   C14   16   3.884   0.616   9.633 -0.4125  0.1584 -0.5825
    1CHL1   H14   17   3.884   0.728   9.636  0.3129  0.1568 -0.4123
    1CHL1   C15   18   3.762   0.577   9.541 -0.0898 -0.1027 -0.0533
    1CHL1  H15A   19   3.736   0.470   9.561 -0.6020  0.0235 -0.0182
    1CHL1  H15B   20   3.671   0.640   9.554  0.8216  0.8412  2.0939
    1CHL1   C16   21   3.816   0.596   9.399  0.3074  0.7495 -0.6199
    1CHL1  H16A   22   3.794   0.495   9.359 -4.3805  0.5429  1.7775
    1CHL1  H16B   23   3.757   0.672   9.343  0.1013  1.0907  0.0563
    1CHL1   C17   24   3.965   0.642   9.410  0.1316 -0.0662 -0.0717
    1CHL1   H17   25   3.959   0.753   9.414  0.6411 -0.0197 -0.4521
    1CHL1   C13   26   4.008   0.589   9.552  0.2415  0.1114  0.0184
    1CHL1   C18   27   4.038   0.428   9.537  0.4492  0.0812 -0.1965
    1CHL1  H18A   28   4.135   0.415   9.485 -0.5254 -1.9628 -1.6204
    1CHL1  H18B   29   4.043   0.381   9.638  0.4192 -2.9731 -1.5173
    1CHL1  H18C   30   3.958   0.374   9.482  0.1932 -1.7726  1.8782
    1CHL1   C12   31   4.125   0.653   9.634  0.5259  0.9436 -0.7297
    1CHL1  H12A   32   4.224   0.631   9.589  1.5095  3.2611  0.1123
    1CHL1  H12B   33   4.103   0.762   9.625 -0.8434  0.7030 -0.5090
    1CHL1   C11   34   4.130   0.619   9.786  0.0944  0.0932  0.0059
    1CHL1  H11A   35   4.161   0.512   9.786 -1.0015 -0.2508  1.1821
    1CHL1  H11B   36   4.213   0.673   9.834 -0.5882 -0.5519  1.9972
    1CHL1    C9   37   3.997   0.630   9.864  0.1608  0.0155  0.2545
    1CHL1    H9   38   3.975   0.738   9.865 -0.6950 -0.1564  1.1490
    1CHL1   C10   39   3.991   0.585  10.005  0.2869 -0.2802  0.1769
    1CHL1   C19   40   4.056   0.446  10.009  0.2761  0.1408 -0.0700
    1CHL1  H19A   41   4.007   0.369   9.945 -0.2368 -0.9864  1.6082
    1CHL1  H19B   42   4.162   0.447   9.976  0.6584 -0.3986  1.0644
    1CHL1  H19C   43   4.051   0.400  10.110  0.0413 -3.3262 -1.5141
    1CHL1    C1   44   4.079   0.673  10.092  0.1360 -0.2138  0.4323
    1CHL1   H1A   45   4.185   0.681  10.061 -0.7945  2.8412 -2.5482
    1CHL1   H1B   46   4.055   0.780  10.074 -0.2496 -0.3127  0.3630
    1CHL1    C2   47   4.060   0.640  10.245 -0.9192 -0.8750  0.1642
    1CHL1   H2A   48   4.112   0.723  10.297  1.4415 -0.7335 -2.1952
    1CHL1   H2B   49   4.114   0.544  10.264 -0.3111 -0.5512  0.1190
    1CHL1   C20   50   4.053   0.609   9.291  0.5684 -0.2863 -0.5657
    1CHL1   H20   51   4.072   0.500   9.298  2.2579 -0.0017 -0.2177
    1CHL1   C21   52   4.187   0.686   9.296  0.4809 -0.1563 -0.2319
    1CHL1  H21A   53   4.174   0.787   9.340 -2.9393 -0.3532 -0.5154
    1CHL1  H21B   54   4.235   0.693   9.196  1.7941  1.1602  0.4566
    1CHL1  H21C   55   4.250   0.626   9.365  3.7405 -0.3371 -3.0817
    1CHL1   C22   56   3.985   0.642   9.155  0.6602  0.2568  0.0604
    1CHL1  H22A   57   3.889   0.587   9.163  0.5734  0.3637 -0.2287
    1CHL1  H22B   58   3.976   0.752   9.154 -1.6206  0.1208 -0.9507
    1CHL1   C23   59   4.047   0.608   9.014 -0.2264  0.3558 -0.1863
    1CHL1  H23A   60   4.147   0.653   8.998 -0.4943  0.9926 -0.0701
    1CHL1  H23B   61   4.075   0.500   9.013  0.1226  0.3909  1.6765
    1CHL1   C24   62   3.962   0.648   8.893 -0.1722  0.4148 -0.1234
    1CHL1  H24A   63   3.932   0.753   8.912 -0.3932  0.9001 -2.8683
    1CHL1  H24B   64   4.018   0.648   8.798 -1.0315 -1.5245 -0.6770
    1CHL1   C25   65   3.836   0.560   8.863 -0.0428  0.1086  0.0113
    1CHL1   H25   66   3.773   0.567   8.955 -0.6225  1.7109 -0.4795
    1CHL1   C26   67   3.773   0.599   8.732  0.7190 -0.3410  0.6553
    1CHL1  H26A   68   3.742   0.705   8.736  0.1816 -0.4715  0.0612
    1CHL1  H26B   69   3.847   0.604   8.649  1.5448  2.3739  1.4599
    1CHL1  H26C   70   3.690   0.527   8.720  1.3128 -0.9823  0.2685
    1CHL1   C27   71   3.874   0.416   8.850  0.7851  0.0572  0.7422
    1CHL1  H27A   72   3.785   0.354   8.825  1.1678  0.6811 -2.6165
    1CHL1  H27B   73   3.944   0.405   8.764  0.2373 -0.0011  0.3029
    1CHL1  H27C   74   3.928   0.382   8.941  0.9204 -1.5626  0.0984
    2CHL1    C3   75   3.247   5.405   9.816 -0.0043 -0.5849  0.1846
    2CHL1    H3   76   3.346   5.445   9.845  0.4992 -1.3550 -0.4284
    2CHL1    O3   77   3.175   5.375   9.929 -0.2054 -0.1450  0.4832
    2CHL1   H3'   78   3.085   5.358   9.900  0.1727 -0.5617 -0.5130
    2CHL1    C4   79   3.177   5.514   9.734  0.3786  0.0621 -0.5173
    2CHL1   H4A   80   3.071   5.481   9.723  0.0799  0.2171  1.4733
    2CHL1   H4B   81   3.156   5.609   9.786 -3.0440 -0.3474 -0.9220
    2CHL1    C5   82   3.237   5.540   9.604 -0.6541 -0.3247 -0.4954
    2CHL1    C6   83   3.283   5.661   9.563  0.1487 -0.7820  0.3403
    2CHL1    H6   84   3.272   5.745   9.634  0.5704 -1.1233  0.8142
    2CHL1    C7   85   3.348   5.690   9.428  0.5581 -0.0687 -0.5677
    2CHL1   H7A   86   3.300   5.781   9.387 -0.1328 -0.1375  0.0673
    2CHL1   H7B   87   3.454   5.724   9.429 -0.2303  2.6712 -1.0633
    2CHL1    C8   88   3.328   5.570   9.325  0.7328 -0.2848  0.5803
    2CHL1    H8   89   3.224   5.570   9.286  0.7632  3.3075  0.1873
    2CHL1   C14   90   3.421   5.593   9.217  0.5427 -0.2469  0.1147
    2CHL1   H14   91   3.524   5.583   9.259 -0.5391 -0.5776  2.8992
    2CHL1   C15   92   3.415   5.729   9.147 -0.0115 -0.2768  0.0094
    2CHL1  H15A   93   3.310   5.758   9.128 -0.4179 -1.8153 -0.2835
    2CHL1  H15B   94   3.465   5.812   9.201 -1.3255  1.0145 -0.6967
    2CHL1   C16   95   3.478   5.692   9.011  0.4549 -0.3688 -0.2017
    2CHL1  H16A   96   3.404   5.727   8.935  0.8845  2.2834  0.4906
    2CHL1  H16B   97   3.574   5.744   8.991  0.4636 -0.9555 -1.8644
    2CHL1   C17   98   3.503   5.535   9.003 -0.1307 -1.0298 -1.0678
    2CHL1   H17   99   3.601   5.519   9.054 -0.0324  0.0018 -0.8980
    2CHL1   C13  100   3.411   5.474   9.113 -0.4575 -0.5637  0.1942
    2CHL1   C18  101   3.271   5.457   9.054 -0.5283  0.4902 -0.2455
    2CHL1  H18A  102   3.272   5.376   8.977  0.8573 -1.2942  1.5383
    2CHL1  H18B  103   3.203   5.414   9.131 -0.0316  0.2896  0.0844
    2CHL1  H18C  104   3.233   5.548   9.003  1.9762  1.6358 -0.1964
    2CHL1   C12  105   3.467   5.348   9.176 -0.3970  0.2775 -1.0433
    2CHL1  H12A  106   3.481   5.266   9.102 -2.8324 -1.3366  0.1713
    2CHL1  H12B  107   3.567   5.373   9.217 -0.8242 -0.3546  0.4531
    2CHL1   C11  108   3.384   5.311   9.301 -0.4353  0.2784 -0.3331
    2CHL1  H11A  109   3.291   5.259   9.267  0.1699 -0.4582 -0.9114
    2CHL1  H11B  110   3.438   5.229   9.353 -2.8248 -1.5108 -0.4670
    2CHL1    C9  111   3.361   5.432   9.395  0.1256 -0.5817  0.2408
    2CHL1    H9  112   3.459   5.456   9.442  0.7794  1.2693 -1.8723
    2CHL1   C10  113   3.262   5.419   9.509 -1.1352  1.3990  0.0346
    2CHL1   C19  114   3.123   5.384   9.449 -0.3807  0.4867 -0.2096
    2CHL1  H19A  115   3.062   5.342   9.532  0.7947  0.7152  0.8009
    2CHL1  H19B  116   3.073   5.480   9.426  1.4903  1.8538  1.1352
    2CHL1  H19C  117   3.128   5.309   9.367 -0.7435 -0.7429  0.8429
    2CHL1    C1  118   3.310   5.298   9.593  0.1445  0.5154 -0.0162
    2CHL1   H1A  119   3.320   5.204   9.533  0.0183  0.1436  0.5413
    2CHL1   H1B  120   3.411   5.338   9.617  0.4908  0.3931 -1.2048
    2CHL1    C2  121   3.250   5.272   9.729 -0.1216  0.0269  1.5528
    2CHL1   H2A  122   3.299   5.189   9.785 -1.7905  0.2219  3.4313
    2CHL1   H2B  123   3.150   5.227   9.713  0.1959 -0.5018  0.9984
    2CHL1   C20  124   3.511   5.489   8.857 -0.7647  0.3752 -0.6608
    2CHL1   H20  125   3.492   5.379   8.866 -0.3210  0.1843 -1.8485
    2CHL1   C21  126   3.661   5.505   8.804 -0.0698 -0.4269  0.0039
    2CHL1  H21A  127   3.665   5.614   8.781 -0.8803 -0.6237 -1.1141
    2CHL1  H21B  128   3.679   5.449   8.710 -1.0048 -1.1897  0.2635
    2CHL1  H21C  129   3.727   5.459   8.881  0.6314  1.1955  0.4329
    2CHL1   C22  130   3.411   5.552   8.761  0.8791 -0.0589 -0.5233
    2CHL1  H22A  131   3.312   5.570   8.808  1.7677 -0.3956  1.6060
    2CHL1  H22B  132   3.451   5.651   8.732  1.1486  0.1345  0.4573
    2CHL1   C23  133   3.394   5.458   8.633  0.0198 -0.0770 -0.6067
    2CHL1  H23A  134   3.470   5.486   8.557  1.4114 -3.5346 -0.6699
    2CHL1  H23B  135   3.419   5.354   8.662  0.4219 -0.0385 -0.8190
    2CHL1   C24  136   3.248   5.461   8.577  0.0987 -0.3520 -0.2847
    2CHL1  H24A  137   3.242   5.382   8.500  2.1082 -1.4463  0.6130
    2CHL1  H24B  138   3.181   5.427   8.659  1.3165 -3.8099 -0.5486
    2CHL1   C25  139   3.217   5.595   8.526  0.0441  0.6034  0.1720
    2CHL1   H25  140   3.222   5.670   8.608  1.6590  1.9419 -1.0793
    2CHL1   C26  141   3.299   5.646   8.408  0.0697  0.3082  0.7099
    2CHL1  H26A  142   3.399   5.689   8.430  0.2830  1.4601 -2.0913
    2CHL1  H26B  143   3.297   5.555   8.344  1.0544  1.7311 -1.4162
    2CHL1  H26C  144   3.250   5.730   8.356  1.1771 -0.1677 -1.1917
    2CHL1   C27  145   3.067   5.588   8.484 -0.1405  0.0018  0.6483
    2CHL1  H27A  146   3.064   5.513   8.402 -1.7163  0.8093 -0.0820
    2CHL1  H27B  147   2.996   5.559   8.565  0.5759 -1.6615  0.7148
    2CHL1  H27C  148   3.041   5.684   8.436 -1.0860 -0.8435 -0.5659
    3CHL1    C3  149   5.672   5.805  10.257 -0.4562 -0.4284 -0.0813
    3CHL1    H3  150   5.754   5.877  10.279  1.3079 -2.3130 -0.2352
    3CHL1    O3  151   5.620   5.761  10.386  0.5710 -0.0675  0.3537
    3CHL1   H3'  152   5.589   5.835  10.439 -0.7589  0.4456 -1.0558
    3CHL1    C4  153   5.563   5.880  10.167  0.6786  0.1344 -0.3222
    3CHL1   H4A  154   5.466   5.825  10.171  0.1678  1.0732  1.9133
    3CHL1   H4B  155   5.533   5.977  10.212 -0.8000 -0.5283  0.2006
    3CHL1    C5  156   5.610   5.898  10.028 -0.1379 -0.3405  0.5758
    3CHL1    C6  157   5.609   6.016   9.964 -0.2917 -0.0576  0.3054
    3CHL1    H6  158   5.577   6.109  10.014 -0.3449 -0.3187  0.7604
    3CHL1    C7  159   5.633   6.030   9.819 -0.4051 -0.3582  0.0392
    3CHL1   H7A  160   5.545   6.081   9.773  1.2285  1.6394 -1.0473
    3CHL1   H7B  161   5.730   6.083   9.811 -1.0386  0.8005 -0.2230
    3CHL1    C8  162   5.638   5.893   9.741 -0.3512  0.2321 -0.1418
    3CHL1    H8  163   5.536   5.850   9.740 -0.5184  0.6018 -1.5514
    3CHL1   C14  164   5.696   5.915   9.603 -0.3700  0.3117  0.1043
    3CHL1   H14  165   5.795   5.963   9.623  0.3128 -0.8882 -0.2849
    3CHL1   C15  166   5.620   6.002   9.503  0.2844 -0.2984 -0.1100
    3CHL1  H15A  167   5.512   5.976   9.497  0.4923 -1.0868 -0.5846
    3CHL1  H15B  168   5.634   6.111   9.523  1.0436 -0.3988 -0.0762
    3CHL1   C16  169   5.678   5.963   9.365 -0.2403 -0.2370 -0.4598
    3CHL1  H16A  170   5.602   5.923   9.295  0.5034 -0.8828 -0.9234
    3CHL1  H16B  171   5.729   6.045   9.311 -2.0986  0.9426 -0.4782
    3CHL1   C17  172   5.771   5.842   9.383 -0.6067  0.5804  0.1483
    3CHL1   H17  173   5.869   5.888   9.406 -0.1931 -1.3898  2.9987
    3CHL1   C13  174   5.725   5.784   9.525 -0.2706  0.0140  0.4431
    3CHL1   C18  175   5.599   5.697   9.506  0.6476 -0.4505 -0.2285
    3CHL1  H18A  176   5.623   5.606   9.447  4.1185  0.0191  0.2652
    3CHL1  H18B  177   5.568   5.657   9.604 -1.8834 -0.8714 -1.1177
    3CHL1  H18C  178   5.508   5.745   9.463 -0.4673 -1.8696  0.4524
    3CHL1   C12  179   5.832   5.718   9.604  0.4845  0.4190 -0.6248
    3CHL1  H12A  180   5.863   5.630   9.543 -2.0822 -0.5088 -0.7178
    3CHL1  H12B  181   5.921   5.785   9.599  1.2952 -0.5912 -0.2289
    3CHL1   C11  182   5.787   5.684   9.751 -0.3410 -0.2778 -0.4504
    3CHL1  H11A  183   5.714   5.600   9.740  0.8209 -1.3244 -0.4005
    3CHL1  H11B  184   5.877   5.649   9.806 -0.4016  0.3812  0.0786
    3CHL1    C9  185   5.734   5.812   9.832 -0.7302  0.1171 -0.2537
    3CHL1    H9  186   5.826   5.873   9.843  0.1974 -0.9983 -1.5480
    3CHL1   C10  187   5.666   5.769   9.969  0.4971 -0.3330  0.8107
    3CHL1   C19  188   5.558   5.668   9.947  0.6261 -0.3517  0.1965
    3CHL1  H19A  189   5.473   5.711   9.891  1.1170  0.6931  0.2403
    3CHL1  H19B  190   5.578   5.577   9.887 -2.9926 -0.2417 -1.4392
    3CHL1  H19C  191   5.512   5.627  10.040 -0.2402 -0.7463 -0.3921
    3CHL1    C1  192   5.777   5.709  10.056  0.1932 -0.2591 -0.4574
    3CHL1   H1A  193   5.808   5.614  10.008 -0.7170 -0.7397 -0.1032
    3CHL1   H1B  194   5.864   5.778  10.062  1.2061 -1.6015  0.7753
    3CHL1    C2  195   5.729   5.674  10.194  0.3139 -0.0644 -0.0053
    3CHL1   H2A  196   5.812   5.643  10.261  2.2396  3.1724 -0.6773
    3CHL1   H2B  197   5.651   5.595  10.200 -0.1073  0.3722  0.3249
    3CHL1   C20  198   5.779   5.753   9.260 -0.2809  0.8989  0.0186
    3CHL1   H20  199   5.677   5.711   9.251  0.3037 -0.2613 -1.5529
    3CHL1   C21  200   5.876   5.632   9.269 -0.8089  0.2880 -0.5465
    3CHL1  H21A  201   5.832   5.578   9.356  0.7048  1.7923  1.2253
    3CHL1  H21B  202   5.979   5.664   9.291 -1.1199  2.5891 -2.0468
    3CHL1  H21C  203   5.871   5.567   9.178 -1.3087 -0.5774  0.0827
    3CHL1   C22  204   5.792   5.831   9.117  0.0569  0.4015  0.4175
    3CHL1  H22A  205   5.711   5.905   9.101 -0.0189  0.4216  0.8576
    3CHL1  H22B  206   5.883   5.894   9.127  0.8670 -0.7010  0.1878
    3CHL1   C23  207   5.788   5.747   8.984  0.0015  0.4591  0.5430
    3CHL1  H23A  208   5.795   5.810   8.893 -1.6777 -0.7911 -0.5282
    3CHL1  H23B  209   5.876   5.680   8.996 -0.4433  0.0703  1.8023
    3CHL1   C24  210   5.655   5.670   8.975 -0.0620  1.1477  0.3480
    3CHL1  H24A  211   5.645   5.617   9.073  0.3081 -2.1292 -1.2517
    3CHL1  H24B  212   5.563   5.732   8.983 -0.3205  0.7266  0.7232
    3CHL1   C25  213   5.670   5.573   8.861  0.9532 -0.1161  0.6030
    3CHL1   H25  214   5.698   5.627   8.769  0.4355 -0.9822 -0.0841
    3CHL1   C26  215   5.774   5.464   8.889 -0.7583  0.4044 -0.2630
    3CHL1  H26A  216   5.880   5.492   8.870 -0.6287  0.0618 -0.0697
    3CHL1  H26B  217   5.773   5.426   8.993 -0.4145 -3.3456 -1.4431
    3CHL1  H26C  218   5.754   5.376   8.824  0.7664 -1.5793  1.7837
    3CHL1   C27  219   5.532   5.504   8.828  0.2603 -0.1226  0.4350
    3CHL1  H27A  220   5.453   5.567   8.782  2.7474  1.7946 -1.5181
    3CHL1  H27B  221   5.560   5.422   8.759 -0.8200  0.3713 -0.6151
    3CHL1  H27C  222   5.486   5.467   8.922  0.7192  0.6208  0.9626
    4CHL1    C3  223   3.629   0.068  10.392  0.2241  0.0254 -0.3861
    4CHL1    H3  224   3.671  -0.031  10.364 -1.4669 -0.1741 -2.4443
    4CHL1    O3  225   3.637   0.087  10.532 -0.2113 -0.4172  0.2472
    4CHL1   H3'  226   3.603   0.176  10.534  1.7929  0.4106  0.3891
    4CHL1    C4  227   3.715   0.172  10.323 -0.0978 -0.6075 -0.2542
    4CHL1   H4A  228   3.681   0.274  10.354  2.1661  0.0601  0.2543
    4CHL1   H4B  229   3.817   0.175  10.368 -0.7963  1.0471  1.3926
    4CHL1    C5  230   3.702   0.158  10.176  0.5427 -0.2954  0.6287
    4CHL1    C6  231   3.802   0.150  10.091  0.0095  0.5344  0.4049
    4CHL1    H6  232   3.903   0.159  10.134  1.1810  0.7934 -2.2000
    4CHL1    C7  233   3.787   0.147   9.940 -0.5694  0.0543  0.9011
    4CHL1   H7A  234   3.854   0.219   9.889 -0.0773  0.8836  2.6219
    4CHL1   H7B  235   3.811   0.043   9.909 -0.8799  0.1716  0.2549
    4CHL1    C8  236   3.642   0.172   9.891  1.2833 -0.6278  0.2805
    4CHL1    H8  237   3.626   0.282   9.895 -1.2437 -0.9622  1.2992
    4CHL1   C14  238   3.639   0.126   9.750  0.0033  0.3848 -0.5080
    4CHL1   H14  239   3.655   0.017   9.742 -0.1610  0.2561  0.7814
    4CHL1   C15  240   3.741   0.182   9.652 -0.1801  0.2121  0.4321
    4CHL1  H15A  241   3.772   0.284   9.685  0.2710 -0.3427  1.8411
    4CHL1  H15B  242   3.833   0.120   9.653 -0.4624 -0.2685 -1.0447
    4CHL1   C16  243   3.669   0.171   9.518  0.0610  0.3795  1.0675
    4CHL1  H16A  244   3.658   0.272   9.475  2.2622 -0.2564 -1.1838
    4CHL1  H16B  245   3.732   0.110   9.450  0.0941  0.5724  0.9263
    4CHL1   C17  246   3.524   0.109   9.529  0.5409 -0.5031  0.1954
    4CHL1   H17  247   3.524  -0.002   9.533  2.9224 -0.6964 -2.1439
    4CHL1   C13  248   3.499   0.151   9.682 -0.4088 -0.3866  0.1314
    4CHL1   C18  249   3.467   0.299   9.690  0.1273 -0.2656 -0.5164
    4CHL1  H18A  250   3.535   0.370   9.637 -1.2386  0.8947 -0.7655
    4CHL1  H18B  251   3.371   0.318   9.637  0.8529 -0.1025 -1.8141
    4CHL1  H18C  252   3.458   0.337   9.794  0.1961 -2.1573  0.2110
    4CHL1   C12  253   3.390   0.075   9.765  0.7734 -0.3841 -0.5498
    4CHL1  H12A  254   3.295   0.104   9.714  0.4445 -0.1868  0.1598
    4CHL1  H12B  255   3.410  -0.033   9.748  0.5557 -0.3962 -0.7334
    4CHL1   C11  256   3.393   0.110   9.917 -0.5303 -0.1038  0.0938
    4CHL1  H11A  257   3.365   0.217   9.922  1.7345  0.5200  0.4185
    4CHL1  H11B  258   3.313   0.056   9.972 -1.4999  1.4035  0.2112
    4CHL1    C9  259   3.534   0.107   9.979  0.6405 -0.5916 -0.5617
    4CHL1    H9  260   3.567   0.001   9.980 -1.2081 -1.2003 -0.8180
    4CHL1   C10  261   3.554   0.160  10.124 -0.1523  0.5475 -0.2956
    4CHL1   C19  262   3.498   0.304  10.149 -0.2698 -0.0303  0.1329
    4CHL1  H19A  263   3.548   0.367  10.071 -0.0101  1.1382  1.2037
    4CHL1  H19B  264   3.388   0.308  10.141 -0.2168  0.6291 -0.3610
    4CHL1  H19C  265   3.512   0.351  10.249  0.0463 -3.1186  1.6687
    4CHL1    C1  266   3.466   0.050  10.197 -0.1401 -0.0283  0.2599
    4CHL1   H1A  267   3.358   0.059  10.169 -0.6262  0.5665  2.1753
    4CHL1   H1B  268   3.507  -0.051  10.175  1.5841  0.5365  0.7755
    4CHL1    C2  269   3.480   0.071  10.344  0.0539  0.1752 -0.9449
    4CHL1   H2A  270   3.426  -0.007  10.402 -0.1906  1.7021  1.0098
    4CHL1   H2B  271   3.431   0.166  10.375 -0.4363 -0.1430 -0.7254
    4CHL1   C20  272   3.425   0.149   9.417 -0.0347 -0.6499 -0.5962
    4CHL1   H20  273   3.412   0.259   9.427 -0.7673 -0.8105  0.3931
    4CHL1   C21  274   3.294   0.070   9.424 -0.1874  0.0367  0.8136
    4CHL1  H21A  275   3.230   0.098   9.338 -0.5589 -0.3715  0.9553
    4CHL1  H21B  276   3.241   0.086   9.521  0.0766 -1.5163  1.2395
    4CHL1  H21C  277   3.324  -0.037   9.426 -0.5052 -0.1069 -0.9114
    4CHL1   C22  278   3.489   0.126   9.278 -0.8422 -0.6647  0.3757
    4CHL1  H22A  279   3.589   0.175   9.273 -1.5045  0.9512  1.7587
    4CHL1  H22B  280   3.496   0.015   9.274 -0.6744 -0.6171 -1.2086
    4CHL1   C23  281   3.412   0.176   9.152 -0.3662  0.1130 -0.2942
    4CHL1  H23A  282   3.330   0.105   9.127 -0.4793  0.1474 -0.0321
    4CHL1  H23B  283   3.347   0.262   9.178 -0.7700 -0.3430  0.2418
    4CHL1   C24  284   3.505   0.184   9.036  0.7353 -0.1725  0.4024
    4CHL1  H24A  285   3.581   0.264   9.053 -2.1647  2.8297  0.3026
    4CHL1  H24B  286   3.558   0.087   9.027  0.3636 -0.2528 -1.2711
    4CHL1   C25  287   3.427   0.199   8.902 -0.3961  0.4517 -0.6024
    4CHL1   H25  288   3.370   0.103   8.902  0.1374  0.0724  1.7757
    4CHL1   C26  289   3.323   0.313   8.906  0.3578  0.2843  0.0613
    4CHL1  H26A  290   3.264   0.319   8.812  1.2999  0.5718 -0.5153
    4CHL1  H26B  291   3.248   0.294   8.987 -0.9648  3.3358 -0.3065
    4CHL1  H26C  292   3.369   0.412   8.929  0.2825  0.3907 -0.2507
    4CHL1   C27  293   3.512   0.194   8.776 -0.1204 -0.1703 -0.2599
    4CHL1  H27A  294   3.601   0.261   8.771 -0.4135  0.3881  1.5653
    4CHL1  H27B  295   3.566   0.096   8.776  1.7991  0.7349 -3.0673
    4CHL1  H27C  296   3.453   0.183   8.683 -0.1066 -0.3553 -0.2476
    5CHL1    C3  297   5.608   5.187  10.287  0.0846 -0.4318 -0.1478
    5CHL1    H3  298   5.687   5.113  10.260  0.0083 -0.2312 -0.9309
    5CHL1    O3  299   5.602   5.207  10.426 -0.7139 -0.0069 -0.2688
    5CHL1   H3'  300   5.531   5.153  10.463  2.1413 -2.9924  1.3473
    5CHL1    C4  301   5.638   5.321  10.209 -0.2776 -0.0060 -0.0712
    5CHL1   H4A  302   5.554   5.388  10.235 -0.6324 -1.2549  2.2726
    5CHL1   H4B  303   5.735   5.367  10.235 -0.1704  1.0502 -2.1039
    5CHL1    C5  304   5.646   5.303  10.059  0.5069  0.3332 -0.8058
    5CHL1    C6  305   5.757   5.315   9.989 -0.3700 -0.1091 -0.2930
    5CHL1    H6  306   5.847   5.353  10.040 -0.0359  2.9561 -2.8296
    5CHL1    C7  307   5.767   5.285   9.843  0.6181 -0.8207  0.7486
    5CHL1   H7A  308   5.820   5.362   9.784 -1.2114  0.8457  1.1893
    5CHL1   H7B  309   5.816   5.187   9.826  0.3455 -1.2488  2.2817
    5CHL1    C8  310   5.617   5.283   9.783 -0.8449  0.3701  0.6358
    5CHL1    H8  311   5.574   5.385   9.787  0.6233  0.9726  2.8303
    5CHL1   C14  312   5.629   5.239   9.638  0.7550 -0.4428 -0.1085
    5CHL1   H14  313   5.678   5.139   9.642 -0.1649 -0.8755  1.1190
    5CHL1   C15  314   5.713   5.319   9.539 -0.1039 -0.5956 -0.3815
    5CHL1  H15A  315   5.699   5.430   9.537 -2.4899 -0.8385 -0.3470
    5CHL1  H15B  316   5.821   5.308   9.561  0.1549 -0.2596 -1.4593
    5CHL1   C16  317   5.669   5.271   9.401 -1.0523  0.5567  0.2660
    5CHL1  H16A  318   5.656   5.353   9.328 -2.0824  1.3917  1.3428
    5CHL1  H16B  319   5.757   5.214   9.364 -0.4119  1.6552  0.0332
    5CHL1   C17  320   5.549   5.176   9.433 -0.1167  0.1257 -0.7069
    5CHL1   H17  321   5.589   5.078   9.466 -3.4945 -0.9724  0.6017
    5CHL1   C13  322   5.487   5.222   9.569 -0.1387  0.0997 -0.2865
    5CHL1   C18  323   5.406   5.350   9.535  0.0255  0.3086 -0.1288
    5CHL1  H18A  324   5.303   5.325   9.503  0.6280  0.2512 -2.1584
    5CHL1  H18B  325   5.394   5.415   9.624 -0.9437  0.2922 -0.2418
    5CHL1  H18C  326   5.444   5.423   9.460 -0.8456  0.5562 -0.3431
    5CHL1   C12  327   5.408   5.128   9.643  0.3410  0.0305 -0.2395
    5CHL1  H12A  328   5.309   5.106   9.599  0.1377 -0.0733  0.2603
    5CHL1  H12B  329   5.465   5.033   9.651  1.1477  0.3777 -1.5133
    5CHL1   C11  330   5.390   5.158   9.794 -0.2965 -0.4874 -0.3665
    5CHL1  H11A  331   5.322   5.244   9.810 -0.5372 -0.6634 -0.4534
    5CHL1  H11B  332   5.340   5.071   9.841 -0.2411  0.2951  1.2195
    5CHL1    C9  333   5.527   5.189   9.865  0.0813  0.3526  0.1665
    5CHL1    H9  334   5.578   5.090   9.866 -0.1577  0.1181  4.0713
    5CHL1   C10  335   5.513   5.238  10.009  0.4810  0.2765  1.1625
    5CHL1   C19  336   5.398   5.347  10.020 -0.5501 -1.0711  0.1005
    5CHL1  H19A  337   5.374   5.369  10.126  2.2712  0.6081  0.4829
    5CHL1  H19B  338   5.422   5.440   9.965 -2.0753 -1.0787 -0.6336
    5CHL1  H19C  339   5.298   5.307   9.991 -0.3729 -0.9011 -0.7779
    5CHL1    C1  340   5.469   5.113  10.095  0.1737 -0.1653 -0.3918
    5CHL1   H1A  341   5.362   5.093  10.075  0.3045 -2.5863  0.9155
    5CHL1   H1B  342   5.533   5.033  10.052 -1.4080 -1.4363 -0.4615
    5CHL1    C2  343   5.476   5.134  10.246  0.6748  0.2504  0.6775
    5CHL1   H2A  344   5.461   5.037  10.297  3.0781 -0.4723  0.1707
    5CHL1   H2B  345   5.398   5.211  10.265  2.8743  2.3511  1.7518
    5CHL1   C20  346   5.453   5.155   9.313 -0.1815 -0.3073 -0.4479
    5CHL1   H20  347   5.394   5.247   9.292  0.3302  0.2285  0.3801
    5CHL1   C21  348   5.350   5.039   9.341  0.9408 -0.1006  0.1098
    5CHL1  H21A  349   5.314   5.020   9.238 -0.8017  1.4332  0.3871
    5CHL1  H21B  350   5.264   5.066   9.406  2.5031  2.4134  1.2873
    5CHL1  H21C  351   5.397   4.949   9.385  0.8338 -0.1768  0.0687
    5CHL1   C22  352   5.516   5.137   9.177 -0.2516 -0.2030 -0.0538
    5CHL1  H22A  353   5.606   5.201   9.163 -0.9803  0.8282 -0.2078
    5CHL1  H22B  354   5.562   5.037   9.165 -0.3065 -0.0751 -1.4393
    5CHL1   C23  355   5.433   5.173   9.053  0.1678 -0.0203 -0.2075
    5CHL1  H23A  356   5.339   5.114   9.056  0.9228 -1.2392  2.2226
    5CHL1  H23B  357   5.416   5.283   9.046  0.0851 -0.1392 -3.5102
    5CHL1   C24  358   5.511   5.144   8.920 -0.0921  0.4699  0.1812
    5CHL1  H24A  359   5.568   5.237   8.900 -0.6445  0.8191  0.1986
    5CHL1  H24B  360   5.582   5.065   8.951  0.3223  1.3740  1.6451
    5CHL1   C25  361   5.422   5.093   8.808  0.3550 -0.3746  0.5429
    5CHL1   H25  362   5.336   5.162   8.793  0.0525 -0.5893  1.2500
    5CHL1   C26  363   5.500   5.093   8.678  0.0751 -0.5898 -0.0629
    5CHL1  H26A  364   5.437   5.083   8.587 -0.0606 -1.3445  0.1056
    5CHL1  H26B  365   5.551   5.192   8.669 -0.8837 -0.2248 -1.9901
    5CHL1  H26C  366   5.581   5.016   8.677  0.2047 -0.4867  1.2073
    5CHL1   C27  367   5.378   4.952   8.847 -0.1966 -0.1848  0.5472
    5CHL1  H27A  368   5.328   4.907   8.758  0.7110 -0.6239  0.2524
    5CHL1  H27B  369   5.468   4.894   8.875  2.3815  2.1580 -2.2467
    5CHL1  H27C  370   5.304   4.949   8.930 -0.5173 -0.3877  0.2605
    6CHL1    C3  371   1.071   2.328  10.343 -0.4726  0.0491 -0.2229
    6CHL1    H3  372   1.017   2.423  10.323  3.1592  1.8007 -2.8621
    6CHL1    O3  373   1.038   2.305  10.482  0.0460  0.3475  0.0400
    6CHL1   H3'  374   0.942   2.308  10.484 -0.1109  0.7311 -2.8840
    6CHL1    C4  375   1.021   2.216  10.260 -0.1406 -0.1993 -0.1164
    6CHL1   H4A  376   1.081   2.131  10.298  1.6057  1.0354  0.0431
    6CHL1   H4B  377   0.913   2.195  10.276 -0.3538  1.4242  0.8521
    6CHL1    C5  378   1.061   2.234  10.112 -0.1020  0.6724  0.5228
    6CHL1    C6  379   0.968   2.227  10.018  0.5221  0.5179 -0.7318
    6CHL1    H6  380   0.864   2.202  10.044  1.1213 -2.0791 -0.4582
    6CHL1    C7  381   0.998   2.239   9.870  0.0258 -0.3053  0.0631
    6CHL1   H7A  382   0.935   2.175   9.805 -1.0408  1.2896 -0.5377
    6CHL1   H7B  383   0.966   2.339   9.833 -1.5177 -0.8775 -0.2419
    6CHL1    C8  384   1.145   2.226   9.839 -0.0563 -0.4000 -0.8628
    6CHL1    H8  385   1.171   2.121   9.863 -1.5248 -0.4049  0.8984
    6CHL1   C14  386   1.184   2.251   9.692  0.3036 -0.2800 -0.4096
    6CHL1   H14  387   1.148   2.353   9.667 -2.7271 -1.5376 -1.7398
    6CHL1   C15  388   1.112   2.164   9.583  0.5735  0.2992 -0.2433
    6CHL1  H15A  389   1.115   2.055   9.607 -0.6220  0.3625  0.2822
    6CHL1  H15B  390   1.004   2.192   9.578  0.3080 -0.6459 -0.1184
    6CHL1   C16  391   1.189   2.201   9.461 -0.2207 -0.5696  0.7227
    6CHL1  H16A  392   1.208   2.107   9.404 -2.8618 -0.3656 -0.6606
    6CHL1  H16B  393   1.143   2.283   9.402 -1.2038 -1.9539 -0.5057
    6CHL1   C17  394   1.327   2.264   9.508 -0.7153  0.5386 -0.0896
    6CHL1   H17  395   1.311   2.373   9.495  0.6072  0.5354 -2.3986
    6CHL1   C13  396   1.331   2.242   9.659  0.3585  0.4932 -0.4285
    6CHL1   C18  397   1.385   2.102   9.692  0.2144 -0.2090 -0.0015
    6CHL1  H18A  398   1.495   2.091   9.694  0.2151 -0.2448 -0.1829
    6CHL1  H18B  399   1.350   2.071   9.793  0.1586  0.0068  0.0449
    6CHL1  H18C  400   1.349   2.027   9.618  1.0218 -0.6278  0.0128
    6CHL1   C12  401   1.396   2.357   9.742 -0.8920  0.1890 -0.2691
    6CHL1  H12A  402   1.505   2.368   9.726 -0.5799  0.7787  1.9329
    6CHL1  H12B  403   1.349   2.456   9.722  0.9214  1.0138 -0.6251
    6CHL1   C11  404   1.380   2.324   9.892  0.6208  0.4169  0.1220
    6CHL1  H11A  405   1.442   2.236   9.919  0.4158  0.7327  1.7293
    6CHL1  H11B  406   1.410   2.409   9.957 -1.5455  0.3103  1.3688
    6CHL1    C9  407   1.229   2.309   9.935  0.3476 -0.5789 -1.0759
    6CHL1    H9  408   1.190   2.412   9.926 -0.0213 -0.7135 -1.0335
    6CHL1   C10  409   1.206   2.272  10.081 -0.2232  1.0391  0.2023
    6CHL1   C19  410   1.294   2.147  10.122  0.6228  0.2260  0.6270
    6CHL1  H19A  411   1.289   2.072  10.041  1.4483 -0.0010  0.7791
    6CHL1  H19B  412   1.403   2.165  10.138  1.5738 -2.0341 -2.3628
    6CHL1  H19C  413   1.261   2.103  10.218 -0.6994 -1.3575 -0.4937
    6CHL1    C1  414   1.245   2.387  10.169 -0.0955 -0.6886 -1.3357
    6CHL1   H1A  415   1.354   2.408  10.160 -0.4827  2.2447 -0.3831
    6CHL1   H1B  416   1.186   2.475  10.138  0.1960  0.0911  0.2219
    6CHL1    C2  417   1.225   2.360  10.322 -0.2546 -0.7345 -0.4374
    6CHL1   H2A  418   1.254   2.444  10.389  0.2499 -0.9408 -0.3932
    6CHL1   H2B  419   1.294   2.280  10.357  1.1128  0.6091  0.0721
    6CHL1   C20  420   1.448   2.224   9.423 -0.4746 -0.0957  0.8588
    6CHL1   H20  421   1.460   2.114   9.426  0.6820  0.0405  2.1671
    6CHL1   C21  422   1.579   2.286   9.481 -0.8719 -0.3481  0.1344
    6CHL1  H21A  423   1.569   2.393   9.510  2.3388  1.0243 -3.0231
    6CHL1  H21B  424   1.664   2.282   9.410  0.4943  1.5418  1.5560
    6CHL1  H21C  425   1.617   2.246   9.577  0.5267 -0.9122 -0.6201
    6CHL1   C22  426   1.431   2.267   9.278  0.7211 -0.5022  0.5126
    6CHL1  H22A  427   1.322   2.256   9.258  0.5894  2.0242 -0.4156
    6CHL1  H22B  428   1.447   2.374   9.256  3.4617 -1.2220 -1.5191
    6CHL1   C23  429   1.514   2.184   9.184  0.1424  0.4648 -0.2221
    6CHL1  H23A  430   1.620   2.208   9.204 -0.7261  2.4227  2.6887
    6CHL1  H23B  431   1.487   2.078   9.202 -2.1488  0.4290 -3.0618
    6CHL1   C24  432   1.476   2.214   9.039 -0.4418 -0.0496 -0.3098
    6CHL1  H24A  433   1.380   2.169   9.007 -0.3081  1.7434 -3.5461
    6CHL1  H24B  434   1.488   2.321   9.013  2.0733 -0.0378  0.5862
    6CHL1   C25  435   1.573   2.143   8.939 -0.3348 -0.0495  0.3223
    6CHL1   H25  436   1.588   2.039   8.974 -1.0884 -0.4793 -0.5793
    6CHL1   C26  437   1.516   2.128   8.797 -0.3331 -0.7610 -0.4178
    6CHL1  H26A  438   1.409   2.100   8.808 -0.7546  0.5251 -1.0521
    6CHL1  H26B  439   1.515   2.231   8.755 -2.1304  0.5605  2.5216
    6CHL1  H26C  440   1.556   2.048   8.732  0.2873 -1.0050  0.2481
    6CHL1   C27  441   1.716   2.206   8.940  0.0364  0.0201 -0.1198
    6CHL1  H27A  442   1.774   2.145   8.867  0.5929  1.3266 -0.8092
    6CHL1  H27B  443   1.722   2.312   8.906 -2.2656  0.2347  0.0206
    6CHL1  H27C  444   1.765   2.197   9.039  1.2936  0.7360 -0.6392
    7CHL1    C3  445   3.964   4.994  10.420  0.6909  0.0818 -0.2184
    7CHL1    H3  446   3.902   4.907  10.389 -0.6792  0.2666  1.8412
    7CHL1    O3  447   3.939   5.011  10.556 -0.1414  0.4078  0.2929
    7CHL1   H3'  448   3.947   4.922  10.591 -1.4241  0.0333 -0.3371
    7CHL1    C4  449   4.114   4.966  10.395 -0.7269 -0.0567  0.5127
    7CHL1   H4A  450   4.165   5.048  10.449 -3.3367  1.0232  1.5325
    7CHL1   H4B  451   4.149   4.872  10.444 -1.9495 -1.1273 -0.5680
    7CHL1    C5  452   4.135   4.967  10.246 -0.7922 -0.2484  0.2418
    7CHL1    C6  453   4.197   4.863  10.196 -0.3575  0.2058 -0.1779
    7CHL1    H6  454   4.234   4.780  10.257  2.0292  0.3020 -1.3822
    7CHL1    C7  455   4.241   4.861  10.052  0.1136  0.6698 -0.2089
    7CHL1   H7A  456   4.344   4.820  10.052  1.1098  2.9797  0.6558
    7CHL1   H7B  457   4.184   4.784   9.996  1.5298 -0.4850 -0.1036
    7CHL1    C8  458   4.243   4.999   9.984 -0.2607  0.7897 -0.6800
    7CHL1    H8  459   4.327   5.053  10.032 -0.3378 -2.1832  3.2737
    7CHL1   C14  460   4.258   4.975   9.837  0.0310 -0.0534  0.7340
    7CHL1   H14  461   4.169   4.916   9.808  0.8994 -0.8646 -0.3534
    7CHL1   C15  462   4.380   4.904   9.784  0.4523  0.1844 -0.4668
    7CHL1  H15A  463   4.467   4.940   9.843 -1.5425  1.1417  2.0707
    7CHL1  H15B  464   4.362   4.795   9.790 -0.4507  0.3957  1.8376
    7CHL1   C16  465   4.403   4.955   9.641  0.9907 -0.1462  0.6936
    7CHL1  H16A  466   4.501   5.008   9.636 -0.1997  2.1320  0.1866
    7CHL1  H16B  467   4.397   4.872   9.567  0.3102  0.9145 -0.4855
    7CHL1   C17  468   4.285   5.051   9.609 -0.7930 -0.3954 -0.9758
    7CHL1   H17  469   4.196   4.992   9.578 -1.7076  1.2689 -1.6770
    7CHL1   C13  470   4.247   5.106   9.749  0.6313  0.7199 -0.5907
    7CHL1   C18  471   4.353   5.212   9.789 -0.1451  0.5776 -0.3252
    7CHL1  H18A  472   4.340   5.255   9.891 -1.0910 -1.4437  0.4741
    7CHL1  H18B  473   4.455   5.170   9.792 -0.9204 -1.4350 -0.4555
    7CHL1  H18C  474   4.363   5.298   9.720 -0.0482  0.3969 -0.5372
    7CHL1   C12  475   4.100   5.146   9.770  0.5321  0.9141 -0.5098
    7CHL1  H12A  476   4.087   5.242   9.716 -1.9866  0.0915 -1.5373
    7CHL1  H12B  477   4.025   5.077   9.727 -0.5414  1.4304  0.4924
    7CHL1   C11  478   4.074   5.174   9.914  0.5008 -0.5014 -0.5916
    7CHL1  H11A  479   4.127   5.264   9.951 -0.9052 -0.7216  2.1639
    7CHL1  H11B  480   3.967   5.196   9.933  0.7813 -1.0565  2.0518
    7CHL1    C9  481   4.107   5.060  10.014 -0.7772  0.2616 -0.7142
    7CHL1    H9  482   4.041   4.976   9.984 -0.1162  0.6254 -3.4215
    7CHL1   C10  483   4.086   5.085  10.168 -0.0496 -0.1130 -0.5844
    7CHL1   C19  484   4.170   5.206  10.210 -0.3430  0.1194 -0.3381
    7CHL1  H19A  485   4.185   5.209  10.320 -0.4671 -0.3625 -0.3066
    7CHL1  H19B  486   4.266   5.198  10.155 -0.2413 -1.6885  0.0366
    7CHL1  H19C  487   4.133   5.305  10.174  2.8868  1.2157 -0.9596
    7CHL1    C1  488   3.943   5.118  10.204  0.1025 -0.2433  0.2019
    7CHL1   H1A  489   3.914   5.217  10.164  0.3972  0.8192  2.4501
    7CHL1   H1B  490   3.871   5.044  10.163 -0.9718  0.0364  1.4952
    7CHL1    C2  491   3.910   5.121  10.352  0.6097 -0.4801 -0.3359
    7CHL1   H2A  492   3.804   5.145  10.375  0.7676 -0.1605  0.0741
    7CHL1   H2B  493   3.972   5.209  10.380 -1.8485  1.1672  0.3712
    7CHL1   C20  494   4.324   5.153   9.498  0.4457  0.5890 -0.2730
    7CHL1   H20  495   4.382   5.240   9.536  1.2677  0.4858 -1.2488
    7CHL1   C21  496   4.185   5.213   9.446  0.0815  1.1316  0.2904
    7CHL1  H21A  497   4.192   5.288   9.365 -2.4852  1.2979  0.1447
    7CHL1  H21B  498   4.136   5.270   9.527  0.9656  0.0547  1.6458
    7CHL1  H21C  499   4.119   5.128   9.417 -1.5631  1.6972  2.1409
    7CHL1   C22  500   4.393   5.093   9.373  0.0719 -0.6017 -0.3894
    7CHL1  H22A  501   4.488   5.043   9.399  0.3599  0.9364  1.7778
    7CHL1  H22B  502   4.317   5.023   9.331 -0.0164 -0.6504 -0.1504
    7CHL1   C23  503   4.426   5.196   9.273 -0.4261 -0.0875  0.7925
    7CHL1  H23A  504   4.340   5.256   9.237 -1.6293 -1.8051  0.6921
    7CHL1  H23B  505   4.492   5.273   9.319 -0.0802  0.2909 -0.3081
    7CHL1   C24  506   4.509   5.129   9.155  0.2110 -0.3246 -0.2557
    7CHL1  H24A  507   4.563   5.206   9.096  0.3048  0.6136  0.9878
    7CHL1  H24B  508   4.588   5.069   9.206  0.4619  1.4260  1.5780
    7CHL1   C25  509   4.437   5.026   9.071 -0.0549 -0.1189  0.2194
    7CHL1   H25  510   4.380   4.962   9.142 -1.8853 -0.9542 -1.8828
    7CHL1   C26  511   4.325   5.092   8.982 -0.2867  0.3033  0.0819
    7CHL1  H26A  512   4.260   5.158   9.045 -1.3222  1.2072 -1.8221
    7CHL1  H26B  513   4.368   5.156   8.901 -0.9790  0.4306 -0.1958
    7CHL1  H26C  514   4.263   5.013   8.935 -0.1201  0.2662 -0.0732
    7CHL1   C27  515   4.535   4.938   8.990 -0.3884 -0.9518 -0.3747
    7CHL1  H27A  516   4.604   4.996   8.926  1.0560 -0.2634  1.7088
    7CHL1  H27B  517   4.600   4.886   9.064  2.0868  0.9433 -1.0798
    7CHL1  H27C  518   4.479   4.860   8.934 -1.2225 -0.9457  0.4349
    8CHL1    C3  519   6.588   1.698  10.263 -0.8699  0.5811  0.2955
    8CHL1    H3  520   6.506   1.623  10.262 -1.1721  0.9065  0.7544
    8CHL1    O3  521   6.630   1.729  10.391 -0.2259  0.3669 -0.2722
    8CHL1   H3'  522   6.580   1.805  10.423  1.4932  0.9549  1.2034
    8CHL1    C4  523   6.708   1.643  10.179  0.2038  0.2524  0.9314
    8CHL1   H4A  524   6.798   1.701  10.208 -1.3634  2.3033  1.9416
    8CHL1   H4B  525   6.724   1.540  10.218 -0.4739  0.1021  0.8274
    8CHL1    C5  526   6.673   1.631  10.031  0.1530 -0.0059  0.3391
    8CHL1    C6  527   6.672   1.516   9.960 -0.6419 -0.0941  0.0375
    8CHL1    H6  528   6.704   1.426  10.014  0.7404  0.2838 -0.0958
    8CHL1    C7  529   6.646   1.506   9.811 -0.3697 -0.1741  0.4926
    8CHL1   H7A  530   6.719   1.431   9.772  0.1686  0.8749 -0.5930
    8CHL1   H7B  531   6.548   1.458   9.791 -0.5651  1.2619 -2.5888
    8CHL1    C8  532   6.652   1.642   9.738 -0.3881 -0.0874  0.4313
    8CHL1    H8  533   6.758   1.675   9.735 -0.6989  0.9249  0.1960
    8CHL1   C14  534   6.599   1.627   9.596 -0.4093  0.8760 -0.4379
    8CHL1   H14  535   6.495   1.588   9.603 -1.0600  2.1279 -2.4148
    8CHL1   C15  536   6.670   1.532   9.498 -0.1935  0.0995 -0.0907
    8CHL1  H15A  537   6.778   1.525   9.522 -0.7968 -2.8066  2.3699
    8CHL1  H15B  538   6.622   1.432   9.499  1.8789 -0.9409  0.9032
    8CHL1   C16  539   6.638   1.594   9.360 -0.4980  0.8310 -0.5137
    8CHL1  H16A  540   6.732   1.633   9.313  0.9898  0.4673  1.9975
    8CHL1  H16B  541   6.594   1.519   9.291  0.2307 -1.9009  1.8059
    8CHL1   C17  542   6.539   1.710   9.385  0.0166 -0.1657  0.0366
    8CHL1   H17  543   6.443   1.657   9.404  1.0310 -1.5696  1.4252
    8CHL1   C13  544   6.589   1.760   9.521  0.5497  0.3128 -0.3051
    8CHL1   C18  545   6.729   1.821   9.517 -0.0214 -0.4493  0.1880
    8CHL1  H18A  546   6.768   1.840   9.620 -0.9468  1.9940  0.1571
    8CHL1  H18B  547   6.805   1.766   9.458  0.2967  2.0764 -1.9381
    8CHL1  H18C  548   6.724   1.925   9.476  2.0392 -0.4300 -0.1331
    8CHL1   C12  549   6.496   1.861   9.599 -0.2728 -0.0134  0.1221
    8CHL1  H12A  550   6.500   1.956   9.543 -2.2840 -2.0814 -3.9697
    8CHL1  H12B  551   6.391   1.825   9.602 -0.4796  0.6302  2.1105
    8CHL1   C11  552   6.545   1.880   9.739  0.0121 -0.2828 -0.4692
    8CHL1  H11A  553   6.638   1.941   9.733 -0.6356  0.6832 -0.8741
    8CHL1  H11B  554   6.481   1.950   9.796  1.3932 -1.3374  2.6218
    8CHL1    C9  555   6.570   1.744   9.816 -0.5656 -0.0245  0.2611
    8CHL1    H9  556   6.465   1.708   9.817 -0.8500  0.7786  0.9768
    8CHL1   C10  557   6.619   1.761   9.962 -0.2181  0.2710  0.5979
    8CHL1   C19  558   6.743   1.854   9.952 -0.9670  0.0480 -0.2723
    8CHL1  H19A  559   6.714   1.955   9.918  0.1148  0.6446  0.5107
    8CHL1  H19B  560   6.784   1.864  10.055  0.3899  2.2072 -0.9479
    8CHL1  H19C  561   6.822   1.813   9.885 -1.4266 -1.6726  0.1781
    8CHL1    C1  562   6.507   1.822  10.050 -0.0651  0.2227 -0.4091
    8CHL1   H1A  563   6.474   1.924  10.023  0.3002  0.4745  0.0782
    8CHL1   H1B  564   6.417   1.757  10.041  1.6351 -2.2541 -0.5503
    8CHL1    C2  565   6.538   1.825  10.200  0.0319 -1.2972 -0.7233
    8CHL1   H2A  566   6.446   1.869  10.243  0.1901 -0.5545 -1.1410
    8CHL1   H2B  567   6.615   1.904  10.212 -0.6417 -0.6914 -0.2768
    8CHL1   C20  568   6.528   1.798   9.261 -0.0295  0.0939  0.5908
    8CHL1   H20  569   6.613   1.869   9.258 -0.6019  0.8210  1.1480
    8CHL1   C21  570   6.399   1.882   9.275  0.0180  0.1785  0.6488
    8CHL1  H21A  571   6.390   1.928   9.174  1.0907 -0.8550  0.0498
    8CHL1  H21B  572   6.425   1.961   9.348  2.4202  0.8261 -0.7869
    8CHL1  H21C  573   6.314   1.815   9.301 -1.6710  2.1804  0.4595
    8CHL1   C22  574   6.531   1.721   9.124  0.5434  0.0060  0.3506
    8CHL1  H22A  575   6.520   1.799   9.046 -0.4810 -1.0820 -0.6459
    8CHL1  H22B  576   6.631   1.674   9.113 -0.7174 -3.2218  1.4419
    8CHL1   C23  577   6.413   1.617   9.103 -0.1355  0.6120  0.4699
    8CHL1  H23A  578   6.411   1.553   9.194 -1.8469 -2.9345 -1.8166
    8CHL1  H23B  579   6.314   1.666   9.116  0.2509  1.0557  1.8928
    8CHL1   C24  580   6.415   1.525   8.978 -0.4175  0.6400  0.8038
    8CHL1  H24A  581   6.511   1.469   8.975  0.0438  1.3964 -1.8278
    8CHL1  H24B  582   6.337   1.447   8.985  0.1892 -0.2140 -1.1056
    8CHL1   C25  583   6.404   1.590   8.838 -0.2259 -0.2032 -0.1364
    8CHL1   H25  584   6.460   1.685   8.834 -0.8470  0.1492 -0.5792
    8CHL1   C26  585   6.461   1.496   8.731  0.1333  0.0117 -0.9556
    8CHL1  H26A  586   6.570   1.483   8.746  0.3037  0.4736 -1.7499
    8CHL1  H26B  587   6.431   1.389   8.739  1.9009 -0.3735  2.1991
    8CHL1  H26C  588   6.427   1.532   8.631  0.2077  1.4326 -0.4877
    8CHL1   C27  589   6.260   1.628   8.808  0.5634 -0.3285 -0.2853
    8CHL1  H27A  590   6.255   1.681   8.711  1.2116  0.9548  0.3574
    8CHL1  H27B  591   6.200   1.535   8.798  2.5562 -1.8509  1.0329
    8CHL1  H27C  592   6.212   1.698   8.879  1.7761  1.0882 -0.8228
    9CHL1    C3  593   1.162   2.937  10.191  1.4036  0.2720  0.1701
    9CHL1    H3  594   1.250   3.000  10.166  0.7222  0.4809 -1.9079
    9CHL1    O3  595   1.141   2.945  10.331 -0.1072 -0.4367  0.1693
    9CHL1   H3'  596   1.070   2.882  10.344 -0.3346 -0.5538 -1.3522
    9CHL1    C4  597   1.031   2.982  10.118  0.4135  0.5322 -0.3254
    9CHL1   H4A  598   0.952   2.923  10.169 -0.6436  1.2604 -1.0707
    9CHL1   H4B  599   1.004   3.087  10.143 -0.7228  0.3040 -0.5224
    9CHL1    C5  600   1.028   2.960   9.971  0.2031  0.2857  0.9117
    9CHL1    C6  601   0.991   3.059   9.882  0.2612 -0.0586  0.0457
    9CHL1    H6  602   0.964   3.158   9.922 -0.2444  0.0774 -0.6084
    9CHL1    C7  603   0.978   3.041   9.736 -0.4051 -0.3475  0.6021
    9CHL1   H7A  604   0.893   3.099   9.694 -1.3028 -2.1892 -0.2388
    9CHL1   H7B  605   1.071   3.083   9.692 -1.1499 -1.9112 -2.7907
    9CHL1    C8  606   0.982   2.887   9.696 -0.6406  0.1945 -0.0187
    9CHL1    H8  607   0.884   2.842   9.725 -0.0967 -2.3355 -1.8004
    9CHL1   C14  608   1.001   2.872   9.550  0.6797 -0.7039 -0.1225
    9CHL1   H14  609   1.097   2.916   9.516 -0.2259 -0.1212 -2.0691
    9CHL1   C15  610   0.891   2.949   9.471  0.3776 -0.9585  0.7889
    9CHL1  H15A  611   0.789   2.946   9.516  0.3441  2.8836  1.2893
    9CHL1  H15B  612   0.924   3.052   9.450 -0.3887 -0.9200 -0.3401
    9CHL1   C16  613   0.884   2.873   9.341  0.2995  0.3074  0.6052
    9CHL1  H16A  614   0.784   2.824   9.340  0.4513 -0.0000 -0.2685
    9CHL1  H16B  615   0.902   2.935   9.251 -2.5089  1.4613  0.7482
    9CHL1   C17  616   0.994   2.755   9.349 -0.8125  0.8049 -0.0714
    9CHL1   H17  617   1.092   2.802   9.324 -0.3472  0.2562  0.6722
    9CHL1   C13  618   1.002   2.729   9.493 -0.8257  0.6594  0.0287
    9CHL1   C18  619   0.869   2.655   9.535 -0.1198 -0.5114  0.1056
    9CHL1  H18A  620   0.836   2.675   9.639 -2.0954  1.5146 -0.8100
    9CHL1  H18B  621   0.782   2.692   9.475  0.3046  0.9130  0.3277
    9CHL1  H18C  622   0.874   2.549   9.502  0.4302  0.5382 -3.7396
    9CHL1   C12  623   1.126   2.664   9.563 -0.2993 -0.5882 -0.5302
    9CHL1  H12A  624   1.134   2.555   9.546  0.6231 -0.9700  1.9943
    9CHL1  H12B  625   1.224   2.698   9.523  0.9687  0.9896  3.4180
    9CHL1   C11  626   1.112   2.669   9.716  0.4152 -0.1955 -0.5674
    9CHL1  H11A  627   1.017   2.614   9.733  0.1328  0.0226 -1.4031
    9CHL1  H11B  628   1.192   2.613   9.769 -0.4714 -1.8859 -0.9318
    9CHL1    C9  629   1.091   2.812   9.773 -0.1422  0.0058 -0.5996
    9CHL1    H9  630   1.189   2.859   9.750 -0.3510 -0.4258 -2.5281
    9CHL1   C10  631   1.075   2.825   9.931 -0.2404 -0.3769  0.3954
    9CHL1   C19  632   0.957   2.725   9.962 -0.4415  0.4895 -0.4388
    9CHL1  H19A  633   0.988   2.624   9.929  0.3276  0.5290  0.1388
    9CHL1  H19B  634   0.945   2.717  10.072  0.3591  0.0034 -0.3822
    9CHL1  H19C  635   0.855   2.745   9.923 -0.5925 -1.3248 -1.0766
    9CHL1    C1  636   1.208   2.787   9.998 -0.2826 -0.6600 -0.2597
    9CHL1   H1A  637   1.241   2.685   9.968  0.9226 -0.2419 -0.4125
    9CHL1   H1B  638   1.289   2.855   9.964  0.1630 -1.8431 -1.6652
    9CHL1    C2  639   1.199   2.796  10.149 -0.4904 -0.8846  0.6433
    9CHL1   H2A  640   1.302   2.777  10.187  1.2209  1.2192 -2.5359
    9CHL1   H2B  641   1.128   2.719  10.188 -0.1183 -0.8229  1.4756
    9CHL1   C20  642   0.961   2.640   9.254 -0.4540  0.2208 -0.0418
    9CHL1   H20  643   0.885   2.570   9.294 -0.3968  1.3901  2.2975
    9CHL1   C21  644   1.097   2.564   9.229  0.4662 -0.5419  0.0468
    9CHL1  H21A  645   1.136   2.521   9.324  1.8185 -1.5225 -0.9057
    9CHL1  H21B  646   1.176   2.612   9.168 -1.2445  0.4436 -1.5049
    9CHL1  H21C  647   1.083   2.477   9.162 -0.0700 -1.6940  1.6138
    9CHL1   C22  648   0.912   2.692   9.110 -0.6480  0.2043  0.0757
    9CHL1  H22A  649   0.888   2.598   9.056 -0.4865  0.7989 -1.0711
    9CHL1  H22B  650   0.818   2.752   9.118 -0.9406 -0.1162 -0.8571
    9CHL1   C23  651   1.005   2.768   9.014 -0.0765 -0.0054  0.2080
    9CHL1  H23A  652   1.023   2.867   9.061 -1.8780  0.7553 -0.5796
    9CHL1  H23B  653   1.105   2.721   9.005  0.3462  0.0773  3.4357
    9CHL1   C24  654   0.932   2.797   8.881  0.6404  0.4895  0.0972
    9CHL1  H24A  655   0.911   2.700   8.830 -2.7053  1.7236 -1.1972
    9CHL1  H24B  656   0.830   2.835   8.903 -0.9478 -1.8714 -2.5009
    9CHL1   C25  657   1.010   2.890   8.786  0.3532  0.3264  0.7083
    9CHL1   H25  658   1.073   2.961   8.845 -1.9536  2.3330  0.9547
    9CHL1   C26  659   1.107   2.804   8.700 -0.2029 -0.5870  0.4867
    9CHL1  H26A  660   1.148   2.856   8.611 -1.1037 -0.7406 -0.0285
    9CHL1  H26B  661   1.201   2.772   8.749 -0.3704 -2.0917 -0.1292
    9CHL1  H26C  662   1.045   2.722   8.658 -1.6327  0.1780  0.9990
    9CHL1   C27  663   0.909   2.971   8.695 -0.0760 -0.3152 -0.0831
    9CHL1  H27A  664   0.864   2.902   8.620  1.3820 -1.3679 -0.0406
    9CHL1  H27B  665   0.821   3.009   8.751  1.2864 -0.2391  2.1164
    9CHL1  H27C  666   0.961   3.057   8.648 -0.3196  0.3437  0.8226
   10CHL1    C3  667   0.352   5.885  10.053 -1.2000 -0.1322 -0.3552
   10CHL1    H3  668   0.432   5.814  10.024 -1.8910 -1.9108  1.8855
   10CHL1    O3  669   0.317   5.861  10.185  0.1634  0.6036  0.5099
   10CHL1   H3'  670   0.245   5.923  10.197  0.8176  1.6269 -0.5463
   10CHL1    C4  671   0.399   6.028  10.030  0.1726  0.2332 -0.3690
   10CHL1   H4A  672   0.321   6.095  10.073 -0.7355 -0.4843 -0.8610
   10CHL1   H4B  673   0.485   6.046  10.098 -0.0774 -0.4518  0.1431
   10CHL1    C5  674   0.428   6.065   9.887  0.4581 -0.3214 -0.2746
   10CHL1    C6  675   0.546   6.120   9.856 -0.1947 -0.0695 -0.0737
   10CHL1    H6  676   0.612   6.148   9.939 -0.2807 -0.4585  0.1267
   10CHL1    C7  677   0.586   6.150   9.712 -0.9160 -0.7029  0.4930
   10CHL1   H7A  678   0.621   6.255   9.698  0.0242 -1.0266  0.3752
   10CHL1   H7B  679   0.668   6.079   9.688  0.0837  0.3744  0.6270
   10CHL1    C8  680   0.471   6.135   9.616 -0.4223  0.0282  0.3110
   10CHL1    H8  681   0.412   6.228   9.628  0.1858  0.3108  1.2137
   10CHL1   C14  682   0.530   6.116   9.478  0.1758 -0.3115  0.0597
   10CHL1   H14  683   0.600   6.030   9.479  2.3491  1.3761  0.1360
   10CHL1   C15  684   0.617   6.231   9.427  0.1087  0.5158 -0.1972
   10CHL1  H15A  685   0.558   6.323   9.444 -2.3311 -0.8675 -0.5720
   10CHL1  H15B  686   0.715   6.234   9.479 -0.1455 -3.2862  0.8591
   10CHL1   C16  687   0.624   6.210   9.276  0.2551 -0.9466  0.7658
   10CHL1  H16A  688   0.616   6.304   9.217 -0.1127 -1.8824 -0.7339
   10CHL1  H16B  689   0.721   6.166   9.243  0.0508  0.7343 -2.3977
   10CHL1   C17  690   0.516   6.106   9.245 -0.5882  0.5608 -0.2418
   10CHL1   H17  691   0.562   6.005   9.239 -1.0846  0.1753  1.8893
   10CHL1   C13  692   0.421   6.100   9.368 -0.0468  0.2823  0.5573
   10CHL1   C18  693   0.323   6.218   9.372  0.1798  0.8016  0.3127
   10CHL1  H18A  694   0.270   6.212   9.470  1.3209  1.9133  1.0254
   10CHL1  H18B  695   0.382   6.312   9.378 -0.2066  1.0772 -0.1266
   10CHL1  H18C  696   0.260   6.224   9.281  0.1646  0.6219  0.3121
   10CHL1   C12  697   0.345   5.971   9.388 -0.9318  0.3024  0.2345
   10CHL1  H12A  698   0.261   5.958   9.317  0.3457 -1.4861 -1.0263
   10CHL1  H12B  699   0.424   5.896   9.365  0.3896  1.8066 -0.3361
   10CHL1   C11  700   0.286   5.952   9.525 -0.6619 -0.2156  0.7680
   10CHL1  H11A  701   0.196   6.016   9.525 -0.4736  0.1345 -1.9766
   10CHL1  H11B  702   0.239   5.852   9.536  1.1181 -1.3950 -1.5256
   10CHL1    C9  703   0.380   6.003   9.647 -0.3546 -0.2168  0.6174
   10CHL1    H9  704   0.459   5.926   9.654 -0.8855 -1.1655 -2.4159
   10CHL1   C10  705   0.317   6.017   9.787 -0.1773 -0.2131 -0.3623
   10CHL1   C19  706   0.202   6.121   9.788 -0.1227 -0.7283 -0.3853
   10CHL1  H19A  707   0.177   6.156   9.890 -0.3968 -0.6372 -0.4817
   10CHL1  H19B  708   0.247   6.211   9.742 -0.6664  0.0376  0.5372
   10CHL1  H19C  709   0.108   6.087   9.739 -1.4337  0.2362  1.3409
   10CHL1    C1  710   0.265   5.875   9.816  0.2002 -0.2525 -0.1655
   10CHL1   H1A  711   0.166   5.862   9.767  0.6415 -1.6322 -0.7363
   10CHL1   H1B  712   0.331   5.796   9.775 -0.8856 -2.0373  1.3482
   10CHL1    C2  713   0.234   5.846   9.967  0.1123  0.1725 -0.6468
   10CHL1   H2A  714   0.219   5.738   9.984  4.4128 -0.6602 -0.9880
   10CHL1   H2B  715   0.140   5.899   9.994  0.3219  0.7721 -1.0494
   10CHL1   C20  716   0.457   6.135   9.106 -0.3047 -0.8258  0.0411
   10CHL1   H20  717   0.399   6.228   9.122 -0.0709 -0.7568  0.5221
   10CHL1   C21  718   0.356   6.029   9.060  0.6391 -0.4121 -0.2319
   10CHL1  H21A  719   0.261   6.025   9.118  2.1309  1.7034  2.6463
   10CHL1  H21B  720   0.401   5.928   9.062  1.2922 -0.1265  0.8305
   10CHL1  H21C  721   0.322   6.044   8.955  2.9797 -1.3203 -1.1826
   10CHL1   C22  722   0.568   6.137   8.993  0.3525 -0.2273 -0.5537
   10CHL1  H22A  723   0.645   6.211   9.022  0.7030 -1.9615  3.6965
   10CHL1  H22B  724   0.616   6.037   8.992 -0.4553 -0.6602  0.7667
   10CHL1   C23  725   0.527   6.193   8.859 -0.4137 -0.0167 -0.1510
   10CHL1  H23A  726   0.447   6.132   8.812 -1.0284  0.5643  0.1259
   10CHL1  H23B  727   0.490   6.297   8.871 -0.3194 -0.0162  0.1655
   10CHL1   C24  728   0.641   6.172   8.756 -0.1456 -0.0525  0.3907
   10CHL1  H24A  729   0.736   6.216   8.792 -0.0975  0.9192 -0.8440
   10CHL1  H24B  730   0.652   6.065   8.727 -3.0447 -0.2995 -0.1687
   10CHL1   C25  731   0.612   6.258   8.621 -0.3725 -0.1717  0.0331
   10CHL1   H25  732   0.584   6.357   8.663 -0.2198 -0.3841  0.6294
   10CHL1   C26  733   0.733   6.264   8.532 -0.4159 -0.0483  0.3521
   10CHL1  H26A  734   0.748   6.367   8.492 -0.7374 -0.4991 -0.9620
   10CHL1  H26B  735   0.828   6.253   8.590 -0.1988 -1.5859 -0.2573
   10CHL1  H26C  736   0.735   6.191   8.449  0.7612 -0.6170  0.8517
   10CHL1   C27  737   0.492   6.196   8.548  0.2825  0.6659 -0.1605
   10CHL1  H27A  738   0.490   6.086   8.532 -2.6719  0.7896 -1.1690
   10CHL1  H27B  739   0.393   6.223   8.590  0.8126  2.5792 -0.0494
   10CHL1  H27C  740   0.490   6.236   8.444  0.5541  1.8176  0.2602
   11CHL1    C3  741   3.176   4.766  10.104 -0.1605  0.2432  0.0762
   11CHL1    H3  742   3.241   4.855  10.117  1.4729 -0.8253 -0.4009
   11CHL1    O3  743   3.121   4.735  10.233 -0.0432  1.2759  0.0822
   11CHL1   H3'  744   3.188   4.688  10.282 -0.2450 -1.2785 -1.8701
   11CHL1    C4  745   3.066   4.779   9.997 -0.0324  0.5586  0.3442
   11CHL1   H4A  746   3.003   4.689   9.986 -1.5921  1.4808  1.3430
   11CHL1   H4B  747   3.002   4.866  10.022  1.7225  1.9464  0.1878
   11CHL1    C5  748   3.125   4.802   9.859 -0.6619 -0.4233 -0.1168
   11CHL1    C6  749   3.081   4.900   9.775 -0.0359 -0.1700 -0.2709
   11CHL1    H6  750   2.996   4.964   9.803 -1.1762 -1.2622 -1.1369
   11CHL1    C7  751   3.123   4.916   9.634  0.4854  0.4087 -0.1847
   11CHL1   H7A  752   3.034   4.929   9.569 -1.3272  1.3085  2.3194
   11CHL1   H7B  753   3.171   5.016   9.624 -0.9120  1.1660  0.3204
   11CHL1    C8  754   3.216   4.810   9.574  0.5056  0.0186  0.0941
   11CHL1    H8  755   3.152   4.725   9.539 -0.6550  0.9211 -0.0301
   11CHL1   C14  756   3.284   4.856   9.448 -0.7218  0.4631 -0.3887
   11CHL1   H14  757   3.328   4.953   9.480 -1.4203  0.5409  0.3877
   11CHL1   C15  758   3.194   4.884   9.327  0.4767 -0.9657 -0.0415
   11CHL1  H15A  759   3.128   4.796   9.315  0.6842 -1.1089 -0.1382
   11CHL1  H15B  760   3.145   4.984   9.331  0.9765 -0.7094 -0.2358
   11CHL1   C16  761   3.289   4.890   9.214  0.2549  0.4956  0.7056
   11CHL1  H16A  762   3.257   4.813   9.141 -0.1536 -0.4759  1.8881
   11CHL1  H16B  763   3.290   4.990   9.166  4.9049  0.4098  0.0981
   11CHL1   C17  764   3.427   4.857   9.272 -0.1720  0.5758  0.3741
   11CHL1   H17  765   3.479   4.945   9.315  0.7530  0.6952 -0.9285
   11CHL1   C13  766   3.399   4.764   9.401 -0.1342  0.6430  0.0102
   11CHL1   C18  767   3.353   4.625   9.364  0.0442  0.6786 -0.0256
   11CHL1  H18A  768   3.272   4.637   9.289  0.0137 -1.6848 -0.4231
   11CHL1  H18B  769   3.430   4.549   9.337 -0.2475  0.1418  0.6451
   11CHL1  H18C  770   3.305   4.574   9.450  2.0249  0.2556  0.8783
   11CHL1   C12  771   3.511   4.758   9.508  0.2691  0.0656  0.1128
   11CHL1  H12A  772   3.598   4.695   9.480 -0.7718 -1.3422 -0.0588
   11CHL1  H12B  773   3.533   4.865   9.528 -0.8751  0.0254  1.8776
   11CHL1   C11  774   3.444   4.702   9.639 -0.4271  1.3140  0.0628
   11CHL1  H11A  775   3.418   4.594   9.629  0.6336  0.8079  2.1865
   11CHL1  H11B  776   3.519   4.695   9.721  1.5204  3.0622 -1.4583
   11CHL1    C9  777   3.315   4.781   9.681  0.3297  0.1136 -0.1356
   11CHL1    H9  778   3.358   4.879   9.709 -0.3065 -0.2959  2.5283
   11CHL1   C10  779   3.243   4.711   9.808  0.5122 -0.9157 -0.2265
   11CHL1   C19  780   3.184   4.574   9.765 -0.5194  0.5778  0.1217
   11CHL1  H19A  781   3.140   4.523   9.853  0.5422 -0.4206  0.1096
   11CHL1  H19B  782   3.107   4.583   9.686  1.7642 -1.1527 -2.4933
   11CHL1  H19C  783   3.262   4.501   9.735 -1.0302 -0.7698  1.8661
   11CHL1    C1  784   3.344   4.699   9.924 -0.3522  0.2128 -0.5389
   11CHL1   H1A  785   3.430   4.634   9.896 -0.0339  0.3474  0.1149
   11CHL1   H1B  786   3.389   4.799   9.942 -0.6372  0.5910 -1.8022
   11CHL1    C2  787   3.277   4.661  10.060  0.1462 -0.8636 -1.2476
   11CHL1   H2A  788   3.354   4.648  10.139  3.3987  0.1845 -4.0447
   11CHL1   H2B  789   3.221   4.567  10.045 -0.7944 -0.3005 -1.3492
   11CHL1   C20  790   3.529   4.793   9.175  0.4653  0.2089  0.5672
   11CHL1   H20  791   3.609   4.747   9.237  0.3400 -0.9836 -0.1136
   11CHL1   C21  792   3.590   4.906   9.095  0.2184 -0.3622  0.6747
   11CHL1  H21A  793   3.674   4.871   9.032  0.9670  0.7759  1.0174
   11CHL1  H21B  794   3.641   4.979   9.161  1.3416  0.8285 -1.4402
   11CHL1  H21C  795   3.514   4.955   9.030  1.6945  1.3523  0.1951
   11CHL1   C22  796   3.478   4.684   9.076  0.6211  0.2733  0.2298
   11CHL1  H22A  797   3.442   4.596   9.133  0.4734  0.1457 -0.0554
   11CHL1  H22B  798   3.392   4.706   9.009  0.2329 -0.1492  0.5894
   11CHL1   C23  799   3.601   4.630   8.999 -0.3790 -0.4406  0.1336
   11CHL1  H23A  800   3.642   4.697   8.920 -2.1452  0.8687  0.2803
   11CHL1  H23B  801   3.682   4.624   9.074 -0.3930 -0.7379  0.1235
   11CHL1   C24  802   3.572   4.493   8.937  0.0391  1.1946 -0.3619
   11CHL1  H24A  803   3.527   4.431   9.018 -0.7764  0.5538 -1.2808
   11CHL1  H24B  804   3.506   4.487   8.848  3.0576 -2.7340 -2.6689
   11CHL1   C25  805   3.692   4.409   8.893 -0.8684 -0.1403  0.7235
   11CHL1   H25  806   3.751   4.464   8.817  0.7073 -0.8850  1.3597
   11CHL1   C26  807   3.788   4.375   9.005 -0.2658  0.0702 -0.2681
   11CHL1  H26A  808   3.750   4.309   9.086  0.8379 -0.3330 -0.0563
   11CHL1  H26B  809   3.879   4.324   8.968 -0.1407  0.6777 -0.8189
   11CHL1  H26C  810   3.818   4.468   9.057 -0.0730 -0.5794  0.8064
   11CHL1   C27  811   3.653   4.269   8.837 -0.6480  0.1717 -1.6218
   11CHL1  H27A  812   3.582   4.274   8.752 -2.6331 -0.6999 -0.0959
   11CHL1  H27B  813   3.739   4.199   8.827 -1.5755 -1.3133  0.1678
   11CHL1  H27C  814   3.602   4.220   8.923  3.5316 -0.0860  0.9786
   12CHL1    C3  815   0.730   5.896  10.297  0.5524 -0.4936  0.2062
   12CHL1    H3  816   0.627   5.938  10.287  0.7248 -0.5215 -2.0218
   12CHL1    O3  817   0.747   5.885  10.433 -0.0699  0.4337  0.0306
   12CHL1   H3'  818   0.835   5.849  10.440 -0.6405 -1.4150 -1.5332
   12CHL1    C4  819   0.755   5.759  10.230  0.2430 -0.3433 -0.0960
   12CHL1   H4A  820   0.845   5.714  10.278 -1.2765 -2.1353  1.2447
   12CHL1   H4B  821   0.679   5.690  10.272  1.1816  0.0240  2.3680
   12CHL1    C5  822   0.756   5.758  10.080  0.3749 -0.9940 -0.7683
   12CHL1    C6  823   0.677   5.676  10.009 -0.4038 -0.1580  0.1588
   12CHL1    H6  824   0.613   5.611  10.071  1.0019 -0.7513  1.0487
   12CHL1    C7  825   0.669   5.667   9.862 -0.0572 -0.3142  0.7280
   12CHL1   H7A  826   0.653   5.569   9.813  0.1208  1.2420 -2.8077
   12CHL1   H7B  827   0.580   5.728   9.835  0.2957 -1.1986 -2.9006
   12CHL1    C8  828   0.790   5.738   9.796 -0.6084 -0.5779  0.4350
   12CHL1    H8  829   0.873   5.665   9.810 -0.1388 -0.1349 -0.0283
   12CHL1   C14  830   0.754   5.769   9.656  0.3474 -1.4841  0.3768
   12CHL1   H14  831   0.686   5.857   9.652  2.5108  0.2349 -0.9302
   12CHL1   C15  832   0.684   5.666   9.569 -0.5379 -0.3366  1.0160
   12CHL1  H15A  833   0.732   5.569   9.593  0.0657 -0.4158 -0.3739
   12CHL1  H15B  834   0.575   5.651   9.589 -0.2810 -2.7237  0.9234
   12CHL1   C16  835   0.737   5.706   9.417  0.3391  0.0495  0.3826
   12CHL1  H16A  836   0.805   5.628   9.377  0.8468 -0.1262  1.5556
   12CHL1  H16B  837   0.647   5.728   9.355  0.5248  1.1352  0.4750
   12CHL1   C17  838   0.825   5.829   9.430 -0.4955 -0.7540  0.5674
   12CHL1   H17  839   0.768   5.924   9.432  1.2709  0.4967 -2.1931
   12CHL1   C13  840   0.882   5.808   9.577  0.3427  0.3736  0.3079
   12CHL1   C18  841   0.990   5.694   9.572  0.1393  1.0006  0.2246
   12CHL1  H18A  842   1.076   5.714   9.505 -0.8128 -0.9798 -1.6955
   12CHL1  H18B  843   1.033   5.658   9.668 -3.7115  1.8233  2.4708
   12CHL1  H18C  844   0.944   5.604   9.527 -2.7504  2.5810 -0.2273
   12CHL1   C12  845   0.932   5.941   9.630  0.6683 -0.2027  0.3864
   12CHL1  H12A  846   1.025   5.983   9.586  0.2863 -0.0008 -0.2373
   12CHL1  H12B  847   0.853   6.017   9.606  0.6401 -0.7528 -1.4046
   12CHL1   C11  848   0.965   5.930   9.780 -0.2760 -0.0626  0.5533
   12CHL1  H11A  849   1.047   5.857   9.801 -1.3386 -1.2195  0.8161
   12CHL1  H11B  850   0.995   6.029   9.820  0.3863  0.1478 -0.4252
   12CHL1    C9  851   0.841   5.870   9.868 -0.5914  0.7696  0.4173
   12CHL1    H9  852   0.756   5.938   9.846 -2.1441 -1.2008  0.0628
   12CHL1   C10  853   0.854   5.858  10.024 -0.3936 -0.6944  0.1668
   12CHL1   C19  854   1.002   5.816  10.057 -0.4196  0.0005 -0.0049
   12CHL1  H19A  855   1.064   5.901  10.021 -1.1227  0.3338 -0.4445
   12CHL1  H19B  856   1.025   5.805  10.165  2.1123  1.8682 -0.2499
   12CHL1  H19C  857   1.034   5.727   9.999 -2.5619 -0.1858 -0.9904
   12CHL1    C1  858   0.833   5.996  10.090 -0.3161 -0.3692  0.2309
   12CHL1   H1A  859   0.909   6.069  10.058  1.2468 -1.2972  1.6709
   12CHL1   H1B  860   0.737   6.044  10.060 -0.4380 -0.4236  0.5232
   12CHL1    C2  861   0.837   5.995  10.248  0.4146 -0.5027  0.1121
   12CHL1   H2A  862   0.817   6.101  10.272  0.0738 -0.5491  0.0415
   12CHL1   H2B  863   0.939   5.967  10.281  0.8603  1.1674  0.2237
   12CHL1   C20  864   0.924   5.842   9.313  0.7464 -0.2467 -0.0548
   12CHL1   H20  865   0.989   5.753   9.306  1.6455  0.4006 -0.1044
   12CHL1   C21  866   1.021   5.962   9.329  0.7045  0.0457  0.1732
   12CHL1  H21A  867   1.095   5.941   9.408 -0.3585 -0.4140  1.0810
   12CHL1  H21B  868   0.968   6.053   9.364  4.1338  1.6540  1.5998
   12CHL1  H21C  869   1.082   5.981   9.238  0.2232  2.8250  0.3688
   12CHL1   C22  870   0.849   5.848   9.175  0.3206 -0.3406 -0.2329
   12CHL1  H22A  871   0.768   5.772   9.170  0.8381 -0.8101 -2.0694
   12CHL1  H22B  872   0.801   5.949   9.175 -0.3593 -0.6297 -1.6376
   12CHL1   C23  873   0.940   5.832   9.057  0.6115  0.0621  0.7796
   12CHL1  H23A  874   1.029   5.897   9.068 -0.3234  1.2159  1.8650
   12CHL1  H23B  875   0.971   5.726   9.045  1.0313  0.1521  1.0765
   12CHL1   C24  876   0.859   5.873   8.935  0.6842 -0.7056 -0.2019
   12CHL1  H24A  877   0.771   5.805   8.926  0.7836 -0.6240 -2.2509
   12CHL1  H24B  878   0.823   5.976   8.952  3.5399  0.0288  2.2606
   12CHL1   C25  879   0.947   5.872   8.810 -0.0072 -0.2560  0.1955
   12CHL1   H25  880   0.965   5.763   8.798  2.5009 -0.0051  1.0173
   12CHL1   C26  881   0.883   5.915   8.679 -0.0176 -0.6781 -0.5305
   12CHL1  H26A  882   0.941   5.886   8.590 -1.0537 -4.4343 -0.1447
   12CHL1  H26B  883   0.781   5.875   8.661 -1.0013  0.2655  2.2891
   12CHL1  H26C  884   0.873   6.026   8.684 -1.9791 -0.8528  3.0915
   12CHL1   C27  885   1.084   5.935   8.823 -0.6464  0.2923  0.3796
   12CHL1  H27A  886   1.070   6.039   8.857 -0.9078 -0.1017  1.5194
   12CHL1  H27B  887   1.152   5.869   8.883  2.1112  1.8858 -0.7983
   12CHL1  H27C  888   1.131   5.928   8.722 -1.3100 -1.3332  0.1447
   13CHL1    C3  889   5.622   2.353   9.896  0.2445 -0.2698  0.0025
   13CHL1    H3  890   5.689   2.434   9.860 -0.6148  0.0175 -1.0190
   13CHL1    O3  891   5.605   2.372  10.041 -0.2989 -0.0181 -0.2769
   13CHL1   H3'  892   5.512   2.357  10.061 -0.2211 -2.1800 -1.2940
   13CHL1    C4  893   5.477   2.360   9.834  0.1077 -0.5428 -0.1147
   13CHL1   H4A  894   5.401   2.293   9.877  0.1829 -0.5269  0.0432
   13CHL1   H4B  895   5.442   2.464   9.852  1.3720  0.4013 -2.6321
   13CHL1    C5  896   5.482   2.339   9.686 -0.5763  0.0342 -0.0483
   13CHL1    C6  897   5.431   2.412   9.590  0.0305  0.2351 -0.4026
   13CHL1    H6  898   5.388   2.511   9.611 -0.7034 -0.3423  0.9265
   13CHL1    C7  899   5.430   2.372   9.446  0.4780 -0.5395 -0.5446
   13CHL1   H7A  900   5.340   2.411   9.394  0.4494  1.5130  0.9456
   13CHL1   H7B  901   5.515   2.422   9.395  0.1512  1.4113  0.7016
   13CHL1    C8  902   5.441   2.221   9.422 -0.1522  0.2863  1.0859
   13CHL1    H8  903   5.341   2.175   9.439 -0.3268 -0.0893 -0.7666
   13CHL1   C14  904   5.469   2.192   9.273 -0.1237  0.3022 -0.0097
   13CHL1   H14  905   5.562   2.247   9.247 -0.6933  0.9223 -0.7861
   13CHL1   C15  906   5.367   2.247   9.169 -0.8733 -0.4559  0.5611
   13CHL1  H15A  907   5.263   2.218   9.198 -1.4612  1.1859  0.1763
   13CHL1  H15B  908   5.359   2.357   9.159 -1.7291 -0.6877 -2.3611
   13CHL1   C16  909   5.408   2.176   9.035 -0.2207  0.2491 -0.1463
   13CHL1  H16A  910   5.311   2.158   8.983 -0.5188  2.6364 -0.5506
   13CHL1  H16B  911   5.477   2.233   8.969  0.6427  0.2693  0.7530
   13CHL1   C17  912   5.494   2.051   9.080 -0.0805 -0.9217  0.0711
   13CHL1   H17  913   5.597   2.078   9.046 -0.9948  0.6900 -1.6347
   13CHL1   C13  914   5.483   2.040   9.235 -0.1446  0.2769 -0.3524
   13CHL1   C18  915   5.364   1.960   9.270 -0.0258 -0.2668  0.7319
   13CHL1  H18A  916   5.276   1.989   9.209  1.5559  1.0328 -1.0469
   13CHL1  H18B  917   5.378   1.851   9.253 -0.1213 -0.2709  0.6768
   13CHL1  H18C  918   5.335   1.966   9.377  0.3148 -3.1235  1.0761
   13CHL1   C12  919   5.600   1.974   9.318  0.2612  0.5525 -0.1759
   13CHL1  H12A  920   5.614   1.865   9.304  1.4430  0.8021 -1.1026
   13CHL1  H12B  921   5.698   2.017   9.288  0.7613 -1.1741 -1.1429
   13CHL1   C11  922   5.572   2.009   9.470 -0.6657  0.0946 -0.3244
   13CHL1  H11A  923   5.487   1.948   9.506 -0.2125  0.5050  1.5571
   13CHL1  H11B  924   5.664   1.975   9.522  0.3590  1.5708 -1.0829
   13CHL1    C9  925   5.555   2.159   9.503  0.0482  0.2532  0.8103
   13CHL1    H9  926   5.647   2.209   9.466 -0.7532  1.5416  0.4670
   13CHL1   C10  927   5.546   2.202   9.654  0.6373  0.5611  0.8407
   13CHL1   C19  928   5.450   2.101   9.724  0.2147  0.0146  0.1141
   13CHL1  H19A  929   5.506   2.005   9.724 -0.5401 -0.4431  1.2728
   13CHL1  H19B  930   5.435   2.114   9.833  0.8984  1.9139  0.0395
   13CHL1  H19C  931   5.351   2.098   9.673  0.4003 -1.6161 -0.1887
   13CHL1    C1  932   5.681   2.196   9.717  0.1050 -0.2944  0.0881
   13CHL1   H1A  933   5.728   2.100   9.688  0.8306 -0.0177  0.3189
   13CHL1   H1B  934   5.748   2.264   9.660 -0.8615 -1.8212 -3.1080
   13CHL1    C2  935   5.689   2.219   9.868  0.3806  0.1427 -0.8488
   13CHL1   H2A  936   5.791   2.208   9.912  0.3032  1.3522 -0.3160
   13CHL1   H2B  937   5.624   2.144   9.916 -1.4560  1.3687 -1.3445
   13CHL1   C20  938   5.474   1.927   8.990 -0.4124 -0.4897  0.2683
   13CHL1   H20  939   5.379   1.877   9.017  0.3721 -3.6216 -2.1591
   13CHL1   C21  940   5.575   1.818   9.011 -0.4755 -0.1840 -0.0544
   13CHL1  H21A  941   5.535   1.722   8.973  0.2263 -1.3583  1.9932
   13CHL1  H21B  942   5.582   1.803   9.121 -3.5167  0.4266  0.3214
   13CHL1  H21C  943   5.675   1.831   8.966 -0.8484  0.9637 -0.6026
   13CHL1   C22  944   5.446   1.964   8.838  0.4959  0.2044  0.1022
   13CHL1  H22A  945   5.351   2.019   8.821  0.7806  0.0973 -2.2119
   13CHL1  H22B  946   5.522   2.039   8.806 -0.2700  0.8014 -0.3686
   13CHL1   C23  947   5.431   1.851   8.730 -0.1337 -0.3629 -0.4661
   13CHL1  H23A  948   5.509   1.774   8.744  2.1013  1.4447 -2.2519
   13CHL1  H23B  949   5.330   1.812   8.754 -0.5125 -0.5844 -2.3301
   13CHL1   C24  950   5.419   1.888   8.585  0.0532 -0.4732  0.0764
   13CHL1  H24A  951   5.322   1.942   8.574  1.7195  2.9161  0.7347
   13CHL1  H24B  952   5.493   1.966   8.559 -2.3163  1.7581 -0.4086
   13CHL1   C25  953   5.433   1.770   8.477  0.0039  0.5370  0.4487
   13CHL1   H25  954   5.387   1.680   8.522  3.3020 -1.9704 -0.8421
   13CHL1   C26  955   5.365   1.809   8.347  0.0977  0.2815  0.5493
   13CHL1  H26A  956   5.269   1.860   8.366 -0.0226 -0.2321  1.3592
   13CHL1  H26B  957   5.426   1.898   8.319  0.7169  0.6363  2.8695
   13CHL1  H26C  958   5.365   1.740   8.260 -0.8220  2.0636 -0.9350
   13CHL1   C27  959   5.585   1.746   8.460  0.6149 -0.5458 -0.7352
   13CHL1  H27A  960   5.616   1.706   8.560 -0.3081 -1.8697 -0.9497
   13CHL1  H27B  961   5.612   1.675   8.379 -1.0834  0.1154 -1.9467
   13CHL1  H27C  962   5.645   1.839   8.458 -0.3719  0.4057  3.7199
   14CHL1    C3  963   3.635   4.539  10.262 -0.3344 -0.6635 -0.1128
   14CHL1    H3  964   3.537   4.532  10.209 -0.6007  0.9429  0.1353
   14CHL1    O3  965   3.608   4.535  10.400  0.1996 -0.3110  0.5507
   14CHL1   H3'  966   3.695   4.546  10.439  1.3212 -3.1491 -0.8538
   14CHL1    C4  967   3.735   4.431  10.211  1.1026  0.3510 -0.2066
   14CHL1   H4A  968   3.825   4.438  10.275  0.6784  1.0659  0.3271
   14CHL1   H4B  969   3.681   4.335  10.228  2.9967 -1.2130 -2.4174
   14CHL1    C5  970   3.761   4.452  10.067 -0.4659  0.7701 -1.1990
   14CHL1    C6  971   3.747   4.350   9.979  0.1901 -0.3835 -0.7673
   14CHL1    H6  972   3.724   4.250  10.017 -0.1619 -0.6094 -1.5604
   14CHL1    C7  973   3.769   4.373   9.833 -0.0748  0.4003  0.2489
   14CHL1   H7A  974   3.811   4.279   9.790  1.1591  0.4143  1.3469
   14CHL1   H7B  975   3.668   4.388   9.790 -0.3441  0.6524  0.9548
   14CHL1    C8  976   3.865   4.495   9.798  0.2566 -0.3690 -0.3304
   14CHL1    H8  977   3.967   4.473   9.836  1.2326  0.9842 -2.0072
   14CHL1   C14  978   3.854   4.515   9.640 -0.1009 -0.6343  0.1736
   14CHL1   H14  979   3.750   4.539   9.607  0.0117 -1.5815 -0.9643
   14CHL1   C15  980   3.909   4.402   9.552 -0.1432 -0.2404  0.1700
   14CHL1  H15A  981   4.008   4.364   9.586  1.5179  2.7961 -0.9269
   14CHL1  H15B  982   3.836   4.318   9.558 -0.1499 -0.1273  3.8386
   14CHL1   C16  983   3.927   4.475   9.418 -0.1803  0.5352  0.0375
   14CHL1  H16A  984   4.021   4.436   9.375 -0.2338 -2.9841  2.6804
   14CHL1  H16B  985   3.841   4.460   9.349 -1.2503  0.7942  1.2800
   14CHL1   C17  986   3.920   4.634   9.449 -0.4539 -0.1503 -0.3293
   14CHL1   H17  987   3.815   4.658   9.422 -0.4368  1.0361  0.6168
   14CHL1   C13  988   3.939   4.643   9.603  0.4749  0.0202  0.1473
   14CHL1   C18  989   4.087   4.628   9.657  0.0735 -0.1847 -0.0241
   14CHL1  H18A  990   4.087   4.619   9.768 -0.4004  1.5621  0.1566
   14CHL1  H18B  991   4.149   4.546   9.614  1.6168  0.4649  0.8649
   14CHL1  H18C  992   4.136   4.725   9.631 -0.9978  0.0913 -1.0907
   14CHL1   C12  993   3.875   4.763   9.671  0.2069 -0.2597  0.2735
   14CHL1  H12A  994   3.931   4.855   9.645 -0.9556 -0.1538 -2.1065
   14CHL1  H12B  995   3.773   4.771   9.628 -0.4378  1.6836  1.9775
   14CHL1   C11  996   3.875   4.753   9.827  0.4373 -0.2261 -0.3872
   14CHL1  H11A  997   3.984   4.749   9.848  0.5228  0.3154 -0.7110
   14CHL1  H11B  998   3.828   4.836   9.883 -0.2190 -1.7690  1.4265
   14CHL1    C9  999   3.814   4.616   9.874 -0.0871  0.4448 -0.1728
   14CHL1    H9 1000   3.707   4.619   9.844 -0.6802 -0.4857  1.7306
   14CHL1   C10 1001   3.818   4.588  10.028 -0.2858 -0.8598  0.4351
   14CHL1   C19 1002   3.957   4.599  10.086 -0.4015  0.1006 -0.6041
   14CHL1  H19A 1003   3.960   4.602  10.197 -0.2734  0.9750 -0.6173
   14CHL1  H19B 1004   4.014   4.509  10.056  1.8888  0.3924  2.3820
   14CHL1  H19C 1005   3.999   4.699  10.059 -0.5287  0.3707  0.1675
   14CHL1    C1 1006   3.735   4.700  10.098 -0.0287  0.1708  0.2831
   14CHL1   H1A 1007   3.799   4.791  10.099 -0.6782  0.6249  1.0384
   14CHL1   H1B 1008   3.644   4.712  10.036 -0.0619 -3.3276 -0.5238
   14CHL1    C2 1009   3.694   4.681  10.248  0.0486  0.3905  0.5304
   14CHL1   H2A 1010   3.623   4.766  10.256 -0.0570  0.8973 -3.5867
   14CHL1   H2B 1011   3.782   4.700  10.314 -1.6733 -0.0083  3.0793
   14CHL1   C20 1012   4.013   4.716   9.356 -0.7005  0.4590 -0.0457
   14CHL1   H20 1013   4.115   4.679   9.380 -0.1158  1.3515 -1.0527
   14CHL1   C21 1014   4.007   4.863   9.392 -0.2542 -0.1595  1.0866
   14CHL1  H21A 1015   3.897   4.879   9.390 -0.4024 -1.1200  0.2452
   14CHL1  H21B 1016   4.066   4.933   9.329 -1.8633  1.8734  1.7260
   14CHL1  H21C 1017   4.036   4.887   9.496 -0.3515  0.6652  0.9249
   14CHL1   C22 1018   3.998   4.685   9.205 -0.1705 -0.6285 -0.4128
   14CHL1  H22A 1019   4.024   4.580   9.180  0.7197 -1.1065  2.2143
   14CHL1  H22B 1020   3.897   4.710   9.166 -0.8763 -1.0969  1.0615
   14CHL1   C23 1021   4.104   4.760   9.113 -0.0922 -0.3568 -0.1796
   14CHL1  H23A 1022   4.069   4.865   9.102  1.5104  0.1101 -1.0310
   14CHL1  H23B 1023   4.199   4.784   9.166  1.1967  1.0569 -2.9200
   14CHL1   C24 1024   4.147   4.700   8.975 -0.6636  0.4147 -0.6841
   14CHL1  H24A 1025   4.224   4.763   8.927  0.0089 -0.1227 -0.3248
   14CHL1  H24B 1026   4.190   4.600   8.996  2.2054  1.3343 -1.7656
   14CHL1   C25 1027   4.031   4.691   8.880  0.4975 -0.2180 -0.3909
   14CHL1   H25 1028   3.958   4.617   8.919 -0.8954  2.4926  2.5685
   14CHL1   C26 1029   3.953   4.823   8.858 -0.6287 -0.0390 -0.4137
   14CHL1  H26A 1030   3.875   4.816   8.779 -0.4426  0.0312 -0.6064
   14CHL1  H26B 1031   3.895   4.843   8.950  1.0910 -0.1993  0.7684
   14CHL1  H26C 1032   4.016   4.914   8.846  0.1884 -0.2188  2.0314
   14CHL1   C27 1033   4.089   4.658   8.746 -0.5783  0.3803  0.6292
   14CHL1  H27A 1034   4.159   4.735   8.710 -0.9075  0.3279 -0.1543
   14CHL1  H27B 1035   4.147   4.565   8.764  1.2245  1.6183  1.5130
   14CHL1  H27C 1036   4.017   4.633   8.665  0.1175 -0.1660  0.1721
   15CHL1    C3 1037   2.954   1.857  10.112  0.0047 -0.2898 -0.3561
   15CHL1    H3 1038   2.924   1.759  10.068 -0.8987  0.5013 -1.5253
   15CHL1    O3 1039   2.941   1.855  10.254  0.2134  0.2143 -0.1901
   15CHL1   H3' 1040   3.029   1.870  10.289  0.0639 -0.6417  0.5973
   15CHL1    C4 1041   3.096   1.908  10.086  0.5846  0.2137 -0.2911
   15CHL1   H4A 1042   3.113   2.010  10.126  2.8494  0.3016 -1.3154
   15CHL1   H4B 1043   3.174   1.861  10.148  0.8959  4.8947  3.4218
   15CHL1    C5 1044   3.110   1.903   9.942 -0.5956  0.1269  0.4060
   15CHL1    C6 1045   3.202   1.821   9.882  0.4011  0.4795 -0.4940
   15CHL1    H6 1046   3.264   1.756   9.946 -3.4664 -0.6382  2.5559
   15CHL1    C7 1047   3.220   1.822   9.733 -0.4610 -0.4752  0.1960
   15CHL1   H7A 1048   3.328   1.809   9.710 -0.4491 -1.3179  0.6822
   15CHL1   H7B 1049   3.162   1.734   9.699  0.6511 -1.1794  0.0545
   15CHL1    C8 1050   3.165   1.947   9.651  0.9072 -0.0568 -0.5196
   15CHL1    H8 1051   3.218   2.036   9.690  2.9486 -1.4420  0.0437
   15CHL1   C14 1052   3.168   1.921   9.509  0.0926 -0.3211  0.0086
   15CHL1   H14 1053   3.100   1.834   9.493  0.5408 -0.3131 -2.4013
   15CHL1   C15 1054   3.300   1.888   9.429 -0.3283 -0.1331  0.0564
   15CHL1  H15A 1055   3.376   1.965   9.453 -0.5902  0.3990 -0.7820
   15CHL1  H15B 1056   3.337   1.787   9.458  0.4239  0.3665  0.8832
   15CHL1   C16 1057   3.255   1.885   9.284 -0.8374 -0.1412  0.1376
   15CHL1  H16A 1058   3.326   1.951   9.229 -0.0846  0.5880  1.8752
   15CHL1  H16B 1059   3.272   1.784   9.243 -0.0372 -0.1344  0.4301
   15CHL1   C17 1060   3.116   1.949   9.280  0.1887  0.0430  0.2603
   15CHL1   H17 1061   3.046   1.863   9.266 -0.5326  0.5360  0.8133
   15CHL1   C13 1062   3.095   2.023   9.415  0.0984 -0.8861 -0.0515
   15CHL1   C18 1063   3.178   2.159   9.410  1.0320  0.3637  0.3658
   15CHL1  H18A 1064   3.180   2.192   9.516  0.8736  1.0649  0.1583
   15CHL1  H18B 1065   3.280   2.143   9.370  0.3699 -1.7532 -0.6387
   15CHL1  H18C 1066   3.117   2.230   9.351 -1.2250 -2.3992 -0.9026
   15CHL1   C12 1067   2.953   2.031   9.472 -0.6954  0.2513 -0.1581
   15CHL1  H12A 1068   2.894   2.110   9.419  2.5443  1.4659 -2.2591
   15CHL1  H12B 1069   2.904   1.933   9.459  2.0635 -1.2445  0.0697
   15CHL1   C11 1070   2.953   2.072   9.619  0.0095 -0.5435 -0.1471
   15CHL1  H11A 1071   3.006   2.168   9.635 -0.5910 -0.1425 -0.5158
   15CHL1  H11B 1072   2.847   2.081   9.650 -0.0942 -0.6836 -0.4528
   15CHL1    C9 1073   3.022   1.968   9.706 -0.3269  0.3252 -0.5405
   15CHL1    H9 1074   2.966   1.873   9.693 -0.5227  0.4968 -0.9617
   15CHL1   C10 1075   3.018   1.992   9.859  0.9791  0.1219  0.1208
   15CHL1   C19 1076   3.042   2.138   9.892 -0.3166 -0.6043 -0.6032
   15CHL1  H19A 1077   3.142   2.163   9.850  0.3961 -0.2842  1.1852
   15CHL1  H19B 1078   2.962   2.202   9.849  0.8266 -0.2034 -2.2486
   15CHL1  H19C 1079   3.047   2.158  10.001 -0.5739 -1.0580 -0.5044
   15CHL1    C1 1080   2.866   1.958   9.911 -0.6693 -1.1236 -0.6495
   15CHL1   H1A 1081   2.809   2.038   9.859 -0.3921  0.2150  1.0261
   15CHL1   H1B 1082   2.846   1.857   9.868  0.0281 -0.7935 -1.7951
   15CHL1    C2 1083   2.853   1.958  10.064 -0.3613  0.1881 -0.6188
   15CHL1   H2A 1084   2.752   1.922  10.095  1.1421 -2.9788  1.1142
   15CHL1   H2B 1085   2.879   2.044  10.130  2.3227 -1.7215  0.9893
   15CHL1   C20 1086   3.093   2.025   9.146  0.3059 -0.0695 -0.5019
   15CHL1   H20 1087   3.162   2.112   9.142  0.6477 -0.4039 -3.0532
   15CHL1   C21 1088   2.945   2.080   9.141  0.3467  0.0112 -1.2088
   15CHL1  H21A 1089   2.933   2.133   9.044 -2.4966  3.1792  0.6522
   15CHL1  H21B 1090   2.942   2.152   9.226 -1.4803 -1.2728 -0.1048
   15CHL1  H21C 1091   2.871   1.997   9.151 -0.2144  0.7560  1.9500
   15CHL1   C22 1092   3.127   1.935   9.021 -0.0551  0.0039 -0.3103
   15CHL1  H22A 1093   3.213   1.868   9.044 -0.3594 -0.4786 -0.5469
   15CHL1  H22B 1094   3.041   1.865   9.008  1.6115 -1.9754 -1.3759
   15CHL1   C23 1095   3.155   1.995   8.887 -0.5293  0.8456  0.3246
   15CHL1  H23A 1096   3.073   2.068   8.871 -0.0746  1.3484  0.2845
   15CHL1  H23B 1097   3.247   2.057   8.884  0.4481 -0.5617 -0.2632
   15CHL1   C24 1098   3.171   1.892   8.770  0.8913 -0.0031 -0.2927
   15CHL1  H24A 1099   3.081   1.831   8.745  0.4899 -0.4539  1.9480
   15CHL1  H24B 1100   3.179   1.963   8.686 -0.8373  1.6325  0.8250
   15CHL1   C25 1101   3.306   1.816   8.776  0.3053 -0.0967 -0.1879
   15CHL1   H25 1102   3.312   1.765   8.875 -1.3976  2.2265  1.2115
   15CHL1   C26 1103   3.307   1.714   8.661  0.2738 -0.1559 -0.6236
   15CHL1  H26A 1104   3.411   1.676   8.656  1.4723  2.6067  0.7514
   15CHL1  H26B 1105   3.241   1.628   8.682 -0.7499  0.7269 -0.1022
   15CHL1  H26C 1106   3.286   1.750   8.558  1.0978 -1.8195 -1.4103
   15CHL1   C27 1107   3.423   1.915   8.765 -0.3184 -0.0580  1.1323
   15CHL1  H27A 1108   3.519   1.859   8.761 -0.2905  0.0283  0.5347
   15CHL1  H27B 1109   3.415   1.975   8.672  3.7596  1.7687  1.7044
   15CHL1  H27C 1110   3.426   1.987   8.849 -1.1439  0.8306  0.4221
   16CHL1    C3 1111   5.397   4.616  10.269 -0.2455 -0.2108  0.5867
   16CHL1    H3 1112   5.496   4.655  10.238 -0.9155  0.4109 -0.8855
   16CHL1    O3 1113   5.368   4.640  10.405  0.2850 -0.1138  0.5189
   16CHL1   H3' 1114   5.273   4.638  10.421  0.1368  0.1685 -0.3011
   16CHL1    C4 1115   5.284   4.683  10.183 -0.1566 -0.4332 -0.8847
   16CHL1   H4A 1116   5.185   4.647  10.218 -0.4780  0.1998 -1.1264
   16CHL1   H4B 1117   5.288   4.791  10.206  1.6293 -0.5037 -0.7092
   16CHL1    C5 1118   5.295   4.651  10.036  0.4398  0.3352  1.4594
   16CHL1    C6 1119   5.311   4.748   9.950 -0.4337  0.6500  0.3653
   16CHL1    H6 1120   5.309   4.855   9.977 -3.3052  0.6080  0.6131
   16CHL1    C7 1121   5.319   4.733   9.800 -0.3657 -0.0189 -0.3976
   16CHL1   H7A 1122   5.253   4.806   9.750  0.8330  1.8564  0.6107
   16CHL1   H7B 1123   5.424   4.755   9.769 -0.5666 -0.2060 -1.2219
   16CHL1    C8 1124   5.276   4.585   9.752 -0.1083 -0.2164 -0.3926
   16CHL1    H8 1125   5.166   4.573   9.751  0.2150 -5.3204 -0.2000
   16CHL1   C14 1126   5.319   4.561   9.608 -0.3613  0.3000  0.0061
   16CHL1   H14 1127   5.429   4.576   9.604 -0.1926 -0.7436 -3.7697
   16CHL1   C15 1128   5.264   4.645   9.498  0.2571 -0.5792  0.4934
   16CHL1  H15A 1129   5.157   4.652   9.526  0.8632 -0.7137  3.1111
   16CHL1  H15B 1130   5.314   4.744   9.487  0.8501 -1.0994 -2.4508
   16CHL1   C16 1131   5.283   4.566   9.369  0.3277  0.4079 -0.1443
   16CHL1  H16A 1132   5.186   4.568   9.314  0.8432  1.3979 -1.0739
   16CHL1  H16B 1133   5.358   4.609   9.299  0.2751 -0.5308 -0.7953
   16CHL1   C17 1134   5.319   4.427   9.408 -0.3014 -0.1076 -0.2941
   16CHL1   H17 1135   5.430   4.428   9.405 -0.2725 -1.6113 -0.2324
   16CHL1   C13 1136   5.288   4.414   9.563 -0.1732 -0.5887  0.5205
   16CHL1   C18 1137   5.142   4.376   9.579  0.3896 -0.1149  0.3040
   16CHL1  H18A 1138   5.105   4.401   9.682 -2.6409 -1.8449 -0.2497
   16CHL1  H18B 1139   5.078   4.436   9.510  0.6177  1.8206  1.6695
   16CHL1  H18C 1140   5.133   4.266   9.568  2.9083 -0.1678 -2.3947
   16CHL1   C12 1141   5.384   4.327   9.649 -0.1669 -0.5841  0.8445
   16CHL1  H12A 1142   5.397   4.220   9.621 -0.0736 -0.0827 -1.1746
   16CHL1  H12B 1143   5.487   4.366   9.635 -0.4900  0.2268  0.7120
   16CHL1   C11 1144   5.351   4.336   9.796  0.3047 -0.2224  0.2025
   16CHL1  H11A 1145   5.260   4.274   9.807  0.7686 -1.6710 -3.1285
   16CHL1  H11B 1146   5.433   4.286   9.852  0.7034  0.2163  0.0159
   16CHL1    C9 1147   5.340   4.482   9.850  0.8096  0.2585 -0.1470
   16CHL1    H9 1148   5.447   4.515   9.855  1.0704 -0.7441  3.0498
   16CHL1   C10 1149   5.299   4.496  10.005 -0.2848  1.2064  0.3615
   16CHL1   C19 1150   5.153   4.450  10.028  0.1465 -0.1349 -0.4290
   16CHL1  H19A 1151   5.124   4.354   9.981 -1.6485 -0.1813  0.6870
   16CHL1  H19B 1152   5.130   4.440  10.137  0.7756  2.9727  0.1003
   16CHL1  H19C 1153   5.081   4.522   9.985  0.7347 -1.0772 -3.1630
   16CHL1    C1 1154   5.398   4.418  10.096 -0.2134  0.3298  0.7331
   16CHL1   H1A 1155   5.362   4.313  10.087  0.8061 -0.2676  2.9368
   16CHL1   H1B 1156   5.499   4.426  10.048  0.3096 -2.8365  1.1029
   16CHL1    C2 1157   5.392   4.462  10.240  0.0279 -0.3092  0.1205
   16CHL1   H2A 1158   5.467   4.410  10.304  0.2325 -0.2699 -0.0880
   16CHL1   H2B 1159   5.299   4.422  10.286 -0.1607  1.5608  1.4980
   16CHL1   C20 1160   5.285   4.313   9.306 -0.6248 -0.2209 -0.3991
   16CHL1   H20 1161   5.175   4.314   9.295 -0.9587  1.0180  2.2319
   16CHL1   C21 1162   5.327   4.172   9.349  0.0681 -0.2358  0.5158
   16CHL1  H21A 1163   5.437   4.169   9.363  0.2356 -0.0474 -0.6768
   16CHL1  H21B 1164   5.308   4.099   9.268  1.5646 -1.0351  0.8366
   16CHL1  H21C 1165   5.285   4.139   9.446 -1.3030  0.7394  0.2817
   16CHL1   C22 1166   5.362   4.333   9.173  0.0366 -0.2881  0.1860
   16CHL1  H22A 1167   5.349   4.441   9.149 -1.1056 -0.7196 -1.2843
   16CHL1  H22B 1168   5.468   4.306   9.192  0.8326  2.0730 -0.5461
   16CHL1   C23 1169   5.315   4.243   9.054  0.1048  0.1700 -0.0917
   16CHL1  H23A 1170   5.345   4.139   9.078 -2.6327 -1.1883 -1.9876
   16CHL1  H23B 1171   5.205   4.244   9.069  0.3030  2.3818  1.7970
   16CHL1   C24 1172   5.364   4.283   8.911 -0.1781  0.2292 -0.2659
   16CHL1  H24A 1173   5.353   4.392   8.889 -1.9259 -0.2899 -2.3413
   16CHL1  H24B 1174   5.469   4.252   8.898  0.0377  0.6715  0.3445
   16CHL1   C25 1175   5.300   4.196   8.805 -0.7893 -0.9358 -0.3879
   16CHL1   H25 1176   5.194   4.226   8.791 -0.4398  0.3116 -0.5032
   16CHL1   C26 1177   5.373   4.219   8.668 -0.2742 -0.2561 -0.5531
   16CHL1  H26A 1178   5.351   4.139   8.594 -1.1604 -0.2101 -0.3559
   16CHL1  H26B 1179   5.327   4.303   8.611  0.9712  1.3384  0.7200
   16CHL1  H26C 1180   5.480   4.231   8.693  0.1020 -0.6959 -1.8777
   16CHL1   C27 1181   5.300   4.048   8.836  0.5531  0.6491  0.0393
   16CHL1  H27A 1182   5.249   4.032   8.933 -0.0685  0.6027 -0.2963
   16CHL1  H27B 1183   5.240   3.992   8.763  3.3604  1.4047 -3.1122
   16CHL1  H27C 1184   5.404   4.010   8.845  0.6094  1.1017  1.6973
   17CHL1    C3 1185   0.695   1.277  10.224 -0.2557 -0.3367  0.6970
   17CHL1    H3 1186   0.586   1.260  10.214 -0.1062 -0.3666 -1.4622
   17CHL1    O3 1187   0.715   1.276  10.363  0.5523  0.0935  0.1009
   17CHL1   H3' 1188   0.794   1.328  10.376 -1.2106  2.5408  2.0406
   17CHL1    C4 1189   0.781   1.166  10.160  0.0950  0.9405 -0.2706
   17CHL1   H4A 1190   0.885   1.198  10.183 -0.5375  3.5451 -0.6515
   17CHL1   H4B 1191   0.754   1.069  10.207  1.3758  1.9399  2.7378
   17CHL1    C5 1192   0.773   1.164  10.008 -0.0113 -0.3525  0.6317
   17CHL1    C6 1193   0.725   1.059   9.942  0.5080  0.4007  0.4523
   17CHL1    H6 1194   0.693   0.975  10.006  0.9053  1.2436  1.8059
   17CHL1    C7 1195   0.702   1.054   9.790 -0.6162  0.3556  0.5295
   17CHL1   H7A 1196   0.767   0.977   9.743  0.5581  0.7903  1.3670
   17CHL1   H7B 1197   0.595   1.033   9.772 -0.5034 -0.3986  0.6970
   17CHL1    C8 1198   0.753   1.180   9.714  0.1636 -0.2906  0.8536
   17CHL1    H8 1199   0.862   1.165   9.696 -0.1353 -1.7131  0.0691
   17CHL1   C14 1200   0.681   1.190   9.577  0.0192 -0.0616 -0.9849
   17CHL1   H14 1201   0.574   1.203   9.603  0.2504  2.9514 -1.1121
   17CHL1   C15 1202   0.693   1.073   9.488 -0.1164 -0.4913 -0.2836
   17CHL1  H15A 1203   0.797   1.034   9.486  0.1674  0.2284 -2.1082
   17CHL1  H15B 1204   0.627   1.006   9.547  1.4083  0.0656  2.1876
   17CHL1   C16 1205   0.650   1.137   9.354 -0.4035 -0.3430 -1.1334
   17CHL1  H16A 1206   0.729   1.115   9.279  0.9451  0.7929 -0.1241
   17CHL1  H16B 1207   0.555   1.083   9.333  0.2614 -1.7919 -0.5647
   17CHL1   C17 1208   0.642   1.298   9.370 -0.5469  0.0091  0.1607
   17CHL1   H17 1209   0.536   1.332   9.372 -0.4596  0.2899  0.0279
   17CHL1   C13 1210   0.723   1.314   9.503  0.2804  0.3095  0.1751
   17CHL1   C18 1211   0.871   1.314   9.460  0.6509  0.1851 -0.6328
   17CHL1  H18A 1212   0.887   1.232   9.387 -2.6367 -0.5267 -0.7217
   17CHL1  H18B 1213   0.895   1.413   9.417  1.4006  0.1898 -0.2161
   17CHL1  H18C 1214   0.940   1.287   9.543 -2.1539 -1.9106  1.1993
   17CHL1   C12 1215   0.681   1.444   9.579  0.1007 -0.7946 -0.1011
   17CHL1  H12A 1216   0.699   1.537   9.522  0.1897  0.4134  1.8123
   17CHL1  H12B 1217   0.571   1.442   9.600  0.0691 -0.7591 -0.2677
   17CHL1   C11 1218   0.762   1.439   9.712  0.3261  0.0870 -0.2164
   17CHL1  H11A 1219   0.868   1.460   9.689  0.1613  0.7913 -0.3593
   17CHL1  H11B 1220   0.733   1.528   9.772 -0.9096 -0.4361  0.0065
   17CHL1    C9 1221   0.728   1.311   9.791  0.1152 -0.5545  0.3422
   17CHL1    H9 1222   0.619   1.321   9.811  0.0776 -1.5919  0.7485
   17CHL1   C10 1223   0.793   1.305   9.935 -0.3159  0.4163  0.1708
   17CHL1   C19 1224   0.949   1.319   9.921  0.5458  0.3574  0.2647
   17CHL1  H19A 1225   0.989   1.338  10.023  1.1871 -0.6770  0.2209
   17CHL1  H19B 1226   1.008   1.240   9.870 -2.1871  0.5903 -3.7606
   17CHL1  H19C 1227   0.969   1.409   9.858 -0.8074 -0.9912 -2.2427
   17CHL1    C1 1228   0.736   1.421  10.016 -0.6715 -0.0650 -0.1359
   17CHL1   H1A 1229   0.795   1.509   9.985  3.1005 -1.7804  1.5189
   17CHL1   H1B 1230   0.628   1.435   9.996 -0.7927  0.9873  1.0998
   17CHL1    C2 1231   0.743   1.405  10.173  0.1310  0.1676  0.9948
   17CHL1   H2A 1232   0.675   1.483  10.214 -1.4613 -0.0863 -1.0113
   17CHL1   H2B 1233   0.852   1.417  10.192  0.2794  0.8982 -0.2634
   17CHL1   C20 1234   0.694   1.362   9.240 -0.5510  0.5191  0.3117
   17CHL1   H20 1235   0.795   1.325   9.212 -0.4361  0.7934  0.3568
   17CHL1   C21 1236   0.681   1.512   9.251 -0.3061 -0.4877 -0.1031
   17CHL1  H21A 1237   0.699   1.564   9.155  1.2120 -1.2233 -0.2552
   17CHL1  H21B 1238   0.756   1.558   9.319 -0.4450  0.4660 -0.5791
   17CHL1  H21C 1239   0.583   1.552   9.285 -0.5207  0.2730 -1.5662
   17CHL1   C22 1240   0.625   1.317   9.109 -0.0233 -0.0054  0.5581
   17CHL1  H22A 1241   0.619   1.206   9.106  1.2069 -0.0699 -2.0198
   17CHL1  H22B 1242   0.522   1.357   9.102  0.5192  1.2256 -4.6085
   17CHL1   C23 1243   0.712   1.344   8.989 -0.0554 -0.6123  0.5406
   17CHL1  H23A 1244   0.743   1.449   8.968 -2.2788 -0.1392 -0.6945
   17CHL1  H23B 1245   0.802   1.279   8.988  0.2472 -0.3515 -3.4630
   17CHL1   C24 1246   0.634   1.298   8.861 -0.6714 -0.3768 -0.7307
   17CHL1  H24A 1247   0.620   1.188   8.860  0.3785 -0.5119 -1.5748
   17CHL1  H24B 1248   0.528   1.332   8.860 -0.9393 -1.2096 -1.4774
   17CHL1   C25 1249   0.704   1.338   8.728 -0.0618  0.0464  0.4857
   17CHL1   H25 1250   0.815   1.340   8.734 -0.0088 -1.4179  0.4653
   17CHL1   C26 1251   0.686   1.225   8.621  0.1525 -0.7557  0.5815
   17CHL1  H26A 1252   0.581   1.191   8.614 -0.1364 -0.5026  2.8515
   17CHL1  H26B 1253   0.730   1.265   8.527  1.0095  1.3251  1.7966
   17CHL1  H26C 1254   0.759   1.146   8.648  1.8598  1.1414  1.8851
   17CHL1   C27 1255   0.656   1.475   8.686 -0.0562 -0.2582  0.5125
   17CHL1  H27A 1256   0.710   1.555   8.741  1.3338  0.5383 -1.8627
   17CHL1  H27B 1257   0.681   1.493   8.579  1.9213 -1.0800  0.7967
   17CHL1  H27C 1258   0.547   1.491   8.700 -0.3032 -1.1005 -0.3670
   18CHL1    C3 1259   0.028   0.454  10.264 -0.7723 -0.5321 -0.4180
   18CHL1    H3 1260  -0.006   0.349  10.250 -1.3497 -0.2682 -1.0406
   18CHL1    O3 1261   0.023   0.477  10.404  0.3681 -0.3828 -0.3681
   18CHL1   H3' 1262  -0.072   0.481  10.420 -0.0896  2.8867 -2.6929
   18CHL1    C4 1263   0.179   0.458  10.222 -0.2268 -0.1444 -0.9185
   18CHL1   H4A 1264   0.238   0.543  10.261  2.3309 -1.7055 -1.0799
   18CHL1   H4B 1265   0.229   0.372  10.271 -1.3941 -0.2686  0.0918
   18CHL1    C5 1266   0.190   0.467  10.072 -0.9109 -0.5851  0.6889
   18CHL1    C6 1267   0.268   0.378  10.008  0.4766 -0.2561  0.3595
   18CHL1    H6 1268   0.317   0.299  10.066  3.6923 -1.4115 -3.5082
   18CHL1    C7 1269   0.291   0.359   9.858 -0.0963  0.6133 -0.2106
   18CHL1   H7A 1270   0.393   0.322   9.834 -0.3297  0.4518 -0.9919
   18CHL1   H7B 1271   0.226   0.279   9.817 -0.0964  0.1709  0.6396
   18CHL1    C8 1272   0.256   0.496   9.784 -0.3239  0.4232  0.6533
   18CHL1    H8 1273   0.339   0.563   9.816  1.5206 -1.7358  0.6009
   18CHL1   C14 1274   0.250   0.460   9.636 -0.0632 -0.3998  0.3584
   18CHL1   H14 1275   0.170   0.384   9.630 -0.2272 -0.2923  1.1285
   18CHL1   C15 1276   0.371   0.401   9.568 -0.6385 -0.4316 -0.1112
   18CHL1  H15A 1277   0.464   0.444   9.610 -0.0647 -3.9748  2.7827
   18CHL1  H15B 1278   0.383   0.291   9.580  0.9118 -0.0985  1.8367
   18CHL1   C16 1279   0.333   0.431   9.421  0.0381 -0.6219 -0.1762
   18CHL1  H16A 1280   0.407   0.499   9.375 -1.7216  2.8801  1.7000
   18CHL1  H16B 1281   0.340   0.337   9.362 -1.8023 -1.2962  0.5948
   18CHL1   C17 1282   0.197   0.500   9.417 -0.0474  0.2615 -0.3144
   18CHL1   H17 1283   0.121   0.420   9.423  0.7253 -0.3748  2.7020
   18CHL1   C13 1284   0.200   0.576   9.549  0.1002  0.7021  0.0753
   18CHL1   C18 1285   0.309   0.690   9.558 -0.4189  0.5900 -0.2415
   18CHL1  H18A 1286   0.272   0.786   9.517  2.1272  2.8209  2.2350
   18CHL1  H18B 1287   0.338   0.711   9.663 -0.3914  0.1959 -0.1674
   18CHL1  H18C 1288   0.396   0.669   9.492 -1.4226 -3.3657 -0.5884
   18CHL1   C12 1289   0.065   0.626   9.606  0.8402 -0.0174 -0.0211
   18CHL1  H12A 1290   0.025   0.713   9.549  1.2421  1.3942  1.7987
   18CHL1  H12B 1291  -0.006   0.542   9.586 -0.7835  0.9977  1.2000
   18CHL1   C11 1292   0.056   0.665   9.754 -0.1201  0.0165 -0.1037
   18CHL1  H11A 1293   0.110   0.761   9.762  1.2988 -0.7249 -0.4224
   18CHL1  H11B 1294  -0.049   0.669   9.790 -0.7845 -0.2808 -1.8895
   18CHL1    C9 1295   0.118   0.555   9.842 -0.4773  0.4377  0.5697
   18CHL1    H9 1296   0.051   0.467   9.828 -1.2587  1.1349 -0.2051
   18CHL1   C10 1297   0.114   0.578   9.998  0.3857  0.6140  0.2629
   18CHL1   C19 1298   0.177   0.716  10.027 -0.5468  0.3557  0.6092
   18CHL1  H19A 1299   0.283   0.723   9.995 -0.3145  0.3636  1.3510
   18CHL1  H19B 1300   0.126   0.801   9.977 -0.0121  0.1373 -0.3168
   18CHL1  H19C 1301   0.188   0.745  10.134 -0.4084  0.8503  0.4645
   18CHL1    C1 1302  -0.030   0.568  10.044 -0.3149  0.2195  0.6461
   18CHL1   H1A 1303  -0.085   0.652   9.997 -1.8392 -1.5390 -0.9001
   18CHL1   H1B 1304  -0.079   0.483   9.992 -1.6903  1.3560  0.0198
   18CHL1    C2 1305  -0.051   0.560  10.193 -0.3841 -0.2643 -0.1047
   18CHL1   H2A 1306  -0.159   0.556  10.215 -0.1372  0.5752  1.4198
   18CHL1   H2B 1307  -0.014   0.655  10.238 -1.1662 -0.8881  1.9334
   18CHL1   C20 1308   0.175   0.573   9.285  0.3076  1.1750  0.1390
   18CHL1   H20 1309   0.238   0.665   9.290  0.5174  0.9554  2.7765
   18CHL1   C21 1310   0.041   0.637   9.284 -0.4016  0.1387 -0.0752
   18CHL1  H21A 1311  -0.033   0.565   9.326 -2.8665  1.9711 -1.0637
   18CHL1  H21B 1312   0.009   0.644   9.178  2.2221  0.0801 -0.9371
   18CHL1  H21C 1313   0.046   0.735   9.337 -0.3918  1.2913 -2.1055
   18CHL1   C22 1314   0.214   0.491   9.153 -0.2195 -0.2178  0.6639
   18CHL1  H22A 1315   0.183   0.560   9.072 -0.9353 -2.0117 -0.6489
   18CHL1  H22B 1316   0.325   0.481   9.156 -0.0921  1.1704  1.8652
   18CHL1   C23 1317   0.128   0.363   9.118  0.1658 -0.4567 -0.8214
   18CHL1  H23A 1318   0.181   0.283   9.174 -0.1535  0.9310  1.6161
   18CHL1  H23B 1319   0.027   0.382   9.159  0.7684 -0.4975  0.7555
   18CHL1   C24 1320   0.146   0.339   8.965 -0.2619 -0.5474 -1.0373
   18CHL1  H24A 1321   0.059   0.383   8.912 -0.5797 -0.6498 -0.5999
   18CHL1  H24B 1322   0.229   0.394   8.914 -1.2997  0.7172 -1.4044
   18CHL1   C25 1323   0.165   0.189   8.931 -0.6062  0.3043 -0.0806
   18CHL1   H25 1324   0.153   0.178   8.821 -2.1286  1.0614 -0.0178
   18CHL1   C26 1325   0.298   0.135   8.974 -0.6035  0.3937  0.4020
   18CHL1  H26A 1326   0.321   0.031   8.940  1.5179 -0.6465  4.3793
   18CHL1  H26B 1327   0.376   0.207   8.941 -2.6829  1.5855 -2.2881
   18CHL1  H26C 1328   0.325   0.136   9.082  0.0090 -1.2788  0.2935
   18CHL1   C27 1329   0.053   0.098   8.980  0.5027 -0.7354 -0.7625
   18CHL1  H27A 1330  -0.047   0.121   8.937  0.0665  1.3256  1.1795
   18CHL1  H27B 1331   0.064  -0.010   8.955  2.1763 -0.2046 -2.5043
   18CHL1  H27C 1332   0.047   0.091   9.091  2.1205 -0.0922 -0.6165
   19CHL1    C3 1333   5.342   2.858  10.018  0.0502 -0.7376  0.1595
   19CHL1    H3 1334   5.257   2.921   9.983 -0.5219 -2.5914 -2.0399
   19CHL1    O3 1335   5.314   2.845  10.161 -0.2499 -0.6253  0.7162
   19CHL1   H3' 1336   5.379   2.780  10.187  0.0263 -1.4996 -1.8449
   19CHL1    C4 1337   5.335   2.727   9.943  0.0380 -0.5091 -0.2152
   19CHL1   H4A 1338   5.418   2.670   9.989  1.7491  2.3891  0.5464
   19CHL1   H4B 1339   5.243   2.667   9.963  1.9015 -3.6436 -0.5134
   19CHL1    C5 1340   5.350   2.759   9.791 -0.0948  0.7874 -0.0903
   19CHL1    C6 1341   5.249   2.734   9.702  0.7052 -0.4180  0.2552
   19CHL1    H6 1342   5.161   2.673   9.728  0.8826 -0.8476 -0.1262
   19CHL1    C7 1343   5.265   2.756   9.556 -0.3037 -0.0923 -0.0826
   19CHL1   H7A 1344   5.218   2.669   9.505 -0.3041  0.7942 -1.6355
   19CHL1   H7B 1345   5.205   2.846   9.531 -0.8445 -0.7599 -1.2594
   19CHL1    C8 1346   5.405   2.777   9.508 -1.0755 -0.4018 -0.1490
   19CHL1    H8 1347   5.464   2.683   9.509  0.7726  0.6922  0.4501
   19CHL1   C14 1348   5.403   2.820   9.362  0.3848  0.9451  0.3474
   19CHL1   H14 1349   5.359   2.922   9.369  0.5592  0.9697  1.3495
   19CHL1   C15 1350   5.330   2.729   9.263  0.2014  0.1772 -0.3997
   19CHL1  H15A 1351   5.358   2.623   9.275 -1.2572 -0.2628 -0.6148
   19CHL1  H15B 1352   5.219   2.739   9.272  0.3121  0.7490  0.5074
   19CHL1   C16 1353   5.380   2.799   9.139  0.9147 -0.9612  0.5389
   19CHL1  H16A 1354   5.410   2.718   9.069 -0.9085 -1.9065  0.8077
   19CHL1  H16B 1355   5.290   2.846   9.094 -0.2564 -2.2478  1.4824
   19CHL1   C17 1356   5.499   2.892   9.168  0.0198  0.6730  1.1812
   19CHL1   H17 1357   5.453   2.993   9.163  0.7637  0.9667 -0.2437
   19CHL1   C13 1358   5.542   2.850   9.305  0.0818 -0.2697 -0.8854
   19CHL1   C18 1359   5.630   2.722   9.304 -0.2576  0.4010  0.4696
   19CHL1  H18A 1360   5.734   2.745   9.271 -0.7807  1.9867 -0.1370
   19CHL1  H18B 1361   5.641   2.686   9.409 -2.2350  0.0403  0.5866
   19CHL1  H18C 1362   5.586   2.638   9.247  0.6250  0.2691 -0.0300
   19CHL1   C12 1363   5.607   2.958   9.389 -0.4671 -0.0793 -0.0436
   19CHL1  H12A 1364   5.714   2.974   9.366  0.2768 -0.8763  2.5225
   19CHL1  H12B 1365   5.545   3.048   9.370  1.5766  1.2146 -0.9820
   19CHL1   C11 1366   5.609   2.940   9.543  0.1200 -0.5577 -0.0140
   19CHL1  H11A 1367   5.697   2.877   9.568 -0.4002 -0.4410  2.3082
   19CHL1  H11B 1368   5.621   3.035   9.600 -1.1359 -0.0446 -0.5601
   19CHL1    C9 1369   5.478   2.874   9.597 -0.3642  0.4532  0.2247
   19CHL1    H9 1370   5.411   2.963   9.594 -0.9806 -0.0012 -2.8408
   19CHL1   C10 1371   5.481   2.824   9.745  0.7842 -1.0043  0.2924
   19CHL1   C19 1372   5.598   2.723   9.761  0.7728 -0.2740 -0.0566
   19CHL1  H19A 1373   5.600   2.665   9.856 -0.4128 -2.0988 -1.0824
   19CHL1  H19B 1374   5.604   2.655   9.673 -3.1390  0.0597 -0.7396
   19CHL1  H19C 1375   5.691   2.784   9.764  0.7957 -0.1921 -1.6325
   19CHL1    C1 1376   5.509   2.948   9.837  0.6101 -0.3323 -0.1198
   19CHL1   H1A 1377   5.613   2.984   9.819  0.3400 -0.0069 -1.1248
   19CHL1   H1B 1378   5.443   3.036   9.819 -0.1535 -0.9310 -0.3024
   19CHL1    C2 1379   5.491   2.917   9.992 -0.2261  0.0909  0.4938
   19CHL1   H2A 1380   5.504   3.014  10.045 -1.0187 -0.7627  2.3396
   19CHL1   H2B 1381   5.569   2.850  10.033  1.8639  0.6532 -2.2867
   19CHL1   C20 1382   5.613   2.884   9.058 -0.4399 -0.1720  0.2166
   19CHL1   H20 1383   5.673   2.792   9.075  1.1381  0.2199 -2.6779
   19CHL1   C21 1384   5.710   3.003   9.078 -0.0697 -0.7008  0.3477
   19CHL1  H21A 1385   5.658   3.094   9.041 -0.9609 -1.1676  0.4049
   19CHL1  H21B 1386   5.802   2.997   9.017 -0.7468 -0.0599 -0.7890
   19CHL1  H21C 1387   5.729   3.035   9.182 -1.9022  1.0926  0.2133
   19CHL1   C22 1388   5.556   2.878   8.910 -0.2140  0.8488 -0.6478
   19CHL1  H22A 1389   5.530   2.774   8.881 -0.4972  0.2343  1.6009
   19CHL1  H22B 1390   5.457   2.927   8.901 -0.7639 -0.2656 -0.9029
   19CHL1   C23 1391   5.653   2.941   8.802  0.1231 -0.5458  0.7613
   19CHL1  H23A 1392   5.670   3.049   8.823 -0.6740  0.5900 -3.5207
   19CHL1  H23B 1393   5.749   2.888   8.812  2.3626  2.6515 -1.7577
   19CHL1   C24 1394   5.591   2.933   8.669  0.1097  0.5452  0.1770
   19CHL1  H24A 1395   5.559   2.827   8.658  2.4322 -0.1204 -0.9403
   19CHL1  H24B 1396   5.499   2.995   8.662 -1.6998 -1.5555  3.0623
   19CHL1   C25 1397   5.696   2.972   8.560  0.2581  0.3797  0.3537
   19CHL1   H25 1398   5.776   2.894   8.557 -0.2537 -0.1357 -1.8717
   19CHL1   C26 1399   5.638   2.967   8.419 -0.0375  0.4932  0.5114
   19CHL1  H26A 1400   5.548   3.032   8.415  0.5005  1.3235  1.3126
   19CHL1  H26B 1401   5.710   2.975   8.335 -0.2680 -1.7580  0.0557
   19CHL1  H26C 1402   5.587   2.870   8.403  1.1753  0.2843 -2.6988
   19CHL1   C27 1403   5.759   3.113   8.577  0.2408 -0.0669  0.1200
   19CHL1  H27A 1404   5.676   3.183   8.601  0.0668 -0.2649  0.0902
   19CHL1  H27B 1405   5.830   3.109   8.663 -0.8321  0.5573  1.0544
   19CHL1  H27C 1406   5.819   3.142   8.488  0.1386 -1.0268 -0.2646
   20CHL1    C3 1407   6.192   5.462  10.585  0.9591  0.5378  0.2111
   20CHL1    H3 1408   6.093   5.412  10.589 -0.4036  2.9647 -0.5917
   20CHL1    O3 1409   6.230   5.509  10.719  0.4364  0.3249  0.0654
   20CHL1   H3' 1410   6.295   5.578  10.703  1.3082 -0.2804  0.8876
   20CHL1    C4 1411   6.305   5.380  10.529 -0.4203 -0.1395  0.0368
   20CHL1   H4A 1412   6.399   5.439  10.532 -1.1764  1.0877  0.2122
   20CHL1   H4B 1413   6.336   5.296  10.595  0.4556  0.6860  0.7085
   20CHL1    C5 1414   6.278   5.333  10.388 -0.0953 -0.3163  0.6620
   20CHL1    C6 1415   6.279   5.200  10.354 -0.3528 -0.4594 -0.1591
   20CHL1    H6 1416   6.301   5.120  10.427  0.6206  1.4094  1.6870
   20CHL1    C7 1417   6.252   5.166  10.204 -0.6628  0.1293 -0.3213
   20CHL1   H7A 1418   6.323   5.084  10.180 -1.2852 -0.4609 -0.1526
   20CHL1   H7B 1419   6.152   5.120  10.193 -2.2125  2.8676  1.1677
   20CHL1    C8 1420   6.264   5.288  10.106  0.0869 -0.3191 -0.7778
   20CHL1    H8 1421   6.372   5.311  10.094  0.2710 -0.9631 -0.4174
   20CHL1   C14 1422   6.223   5.249   9.967  0.3969  0.7055  0.8527
   20CHL1   H14 1423   6.114   5.232   9.984  0.1805  0.9927 -0.1829
   20CHL1   C15 1424   6.286   5.126   9.904 -0.0177  0.4859  0.2220
   20CHL1  H15A 1425   6.396   5.136   9.910 -0.0244  0.2393  0.8607
   20CHL1  H15B 1426   6.247   5.038   9.960  0.9466  0.5796  1.0706
   20CHL1   C16 1427   6.241   5.127   9.761  0.1782  0.0368 -0.7989
   20CHL1  H16A 1428   6.329   5.111   9.694 -0.3091 -1.7484 -1.0806
   20CHL1  H16B 1429   6.165   5.048   9.743 -0.5732  0.8897 -1.4445
   20CHL1   C17 1430   6.176   5.265   9.749  0.2725  0.7233  0.3662
   20CHL1   H17 1431   6.071   5.244   9.780 -1.1998 -0.0361 -4.3173
   20CHL1   C13 1432   6.222   5.359   9.858 -0.4395 -0.0525 -0.5808
   20CHL1   C18 1433   6.364   5.416   9.834  0.3948 -0.2866  0.6550
   20CHL1  H18A 1434   6.427   5.345   9.776  1.3648  1.2129 -0.2046
   20CHL1  H18B 1435   6.354   5.500   9.762  0.4523 -0.1161  0.8485
   20CHL1  H18C 1436   6.408   5.462   9.924  3.5000  0.3096 -1.0034
   20CHL1   C12 1437   6.132   5.468   9.907 -0.0010 -0.7980 -0.2536
   20CHL1  H12A 1438   6.125   5.556   9.840 -1.1094 -0.8536 -0.2319
   20CHL1  H12B 1439   6.029   5.429   9.921 -0.1713 -0.0947  0.5463
   20CHL1   C11 1440   6.183   5.524  10.046 -0.2768 -0.4733  0.6011
   20CHL1  H11A 1441   6.284   5.567  10.033  0.3117 -1.6464  1.0934
   20CHL1  H11B 1442   6.104   5.591  10.087 -0.8793 -1.0910  0.4743
   20CHL1    C9 1443   6.194   5.411  10.156 -0.6905  0.2532 -0.0513
   20CHL1    H9 1444   6.090   5.376  10.174 -0.3606 -0.4544  0.5491
   20CHL1   C10 1445   6.251   5.454  10.297 -0.5900 -0.0201  0.1102
   20CHL1   C19 1446   6.387   5.531  10.280 -0.3797 -0.4483  0.5186
   20CHL1  H19A 1447   6.448   5.481  10.202 -1.0325  0.8532 -0.8925
   20CHL1  H19B 1448   6.371   5.630  10.231 -1.5747 -0.1381  1.4580
   20CHL1  H19C 1449   6.451   5.557  10.367  1.8435  2.5177 -1.7877
   20CHL1    C1 1450   6.139   5.543  10.356 -0.4933 -0.6616 -0.3290
   20CHL1   H1A 1451   6.136   5.630  10.287 -1.2096  0.3036  0.8785
   20CHL1   H1B 1452   6.044   5.486  10.351 -0.7134 -0.2402 -1.2180
   20CHL1    C2 1453   6.167   5.588  10.504 -0.3504 -0.2088  0.0895
   20CHL1   H2A 1454   6.078   5.638  10.547 -1.4204  0.1281 -2.3426
   20CHL1   H2B 1455   6.256   5.654  10.500  1.6348 -2.6574  1.1323
   20CHL1   C20 1456   6.176   5.312   9.608 -0.8975 -0.4361  0.0304
   20CHL1   H20 1457   6.282   5.332   9.582 -1.1301  1.2613  0.2442
   20CHL1   C21 1458   6.105   5.446   9.592  0.2421 -0.3904  0.2521
   20CHL1  H21A 1459   6.000   5.440   9.628 -0.2988 -0.9408 -1.3095
   20CHL1  H21B 1460   6.109   5.476   9.485  0.4983  0.6326  0.5469
   20CHL1  H21C 1461   6.156   5.532   9.641 -0.9883  0.6266 -0.2017
   20CHL1   C22 1462   6.107   5.209   9.509 -0.6262  0.1704  0.8205
   20CHL1  H22A 1463   6.172   5.120   9.500  0.2992  0.7901  1.1893
   20CHL1  H22B 1464   6.006   5.189   9.550 -0.8462  0.2352  0.3227
   20CHL1   C23 1465   6.080   5.250   9.356  0.1035  0.4693 -0.0421
   20CHL1  H23A 1466   5.978   5.293   9.357 -0.4918 -0.8631  1.4544
   20CHL1  H23B 1467   6.149   5.328   9.318  2.7683 -1.0574  1.3510
   20CHL1   C24 1468   6.095   5.128   9.266 -0.0180 -0.3853 -0.3921
   20CHL1  H24A 1469   6.203   5.104   9.256  0.5208  2.0991 -0.9965
   20CHL1  H24B 1470   6.040   5.045   9.316  0.8311  0.5508  2.3150
   20CHL1   C25 1471   6.011   5.148   9.137 -0.0631 -0.1657 -0.7507
   20CHL1   H25 1472   5.914   5.180   9.179  1.3575  1.3576  1.5479
   20CHL1   C26 1473   6.072   5.257   9.043  0.1559  0.0238 -0.0748
   20CHL1  H26A 1474   6.163   5.221   8.991  1.0380  1.9052  0.0996
   20CHL1  H26B 1475   5.998   5.277   8.963  0.8194  1.2591 -0.4033
   20CHL1  H26C 1476   6.096   5.352   9.096  0.5952  0.0327 -0.2766
   20CHL1   C27 1477   5.991   5.022   9.065 -0.3244  0.8871  0.6795
   20CHL1  H27A 1478   6.076   4.952   9.070 -0.3745  0.8530  1.0447
   20CHL1  H27B 1479   5.902   4.972   9.108 -2.4893  4.8030  1.2124
   20CHL1  H27C 1480   5.971   5.037   8.956 -0.6516 -0.8786  0.4778
   21CHL1    C3 1481   6.486   6.279  10.282 -0.6252 -0.4758  0.6112
   21CHL1    H3 1482   6.379   6.291  10.254 -0.4933  0.1424  0.3468
   21CHL1    O3 1483   6.481   6.246  10.426 -0.2456 -0.1544  0.2660
   21CHL1   H3' 1484   6.567   6.206  10.440  0.1674 -0.3850 -2.3619
   21CHL1    C4 1485   6.554   6.174  10.192  0.7526  0.5941  0.6321
   21CHL1   H4A 1486   6.658   6.159  10.227  0.4557 -0.9258  0.9459
   21CHL1   H4B 1487   6.503   6.077  10.209 -2.2339  1.7923 -0.6951
   21CHL1    C5 1488   6.545   6.213  10.045  0.0392 -0.3575 -0.2480
   21CHL1    C6 1489   6.508   6.127   9.949  0.3868  0.7640 -0.5685
   21CHL1    H6 1490   6.474   6.028   9.982 -2.7237  1.3710 -1.5969
   21CHL1    C7 1491   6.496   6.150   9.804  0.8835 -0.4222  0.5996
   21CHL1   H7A 1492   6.529   6.069   9.736 -0.4792 -1.0951  0.6844
   21CHL1   H7B 1493   6.388   6.165   9.782  0.3440 -1.6876  2.1060
   21CHL1    C8 1494   6.581   6.272   9.767  0.2782 -0.0190  0.0209
   21CHL1    H8 1495   6.686   6.238   9.780  0.4442  0.9422  1.3908
   21CHL1   C14 1496   6.545   6.331   9.629 -0.4028  0.2237  0.5585
   21CHL1   H14 1497   6.438   6.359   9.634  0.1034  2.4532 -0.0700
   21CHL1   C15 1498   6.556   6.223   9.512 -0.4057 -0.0287 -0.1642
   21CHL1  H15A 1499   6.637   6.150   9.534 -1.4203 -0.7369  1.3097
   21CHL1  H15B 1500   6.459   6.169   9.511 -0.4225 -0.1044  2.1263
   21CHL1   C16 1501   6.583   6.305   9.384  0.3126  0.2887 -0.1586
   21CHL1  H16A 1502   6.676   6.268   9.336 -0.4750 -0.5499 -1.0770
   21CHL1  H16B 1503   6.493   6.283   9.323  0.6817  0.3738 -0.7306
   21CHL1   C17 1504   6.591   6.454   9.429  0.4023  0.2127 -0.2923
   21CHL1   H17 1505   6.492   6.505   9.432  0.1739 -0.2389  1.7295
   21CHL1   C13 1506   6.633   6.455   9.581 -0.2856 -0.4858 -0.5454
   21CHL1   C18 1507   6.785   6.414   9.578  0.0757  0.0580  0.5513
   21CHL1  H18A 1508   6.848   6.501   9.552  0.3770 -0.1101  0.7150
   21CHL1  H18B 1509   6.815   6.395   9.684  0.0832  2.0703  0.9583
   21CHL1  H18C 1510   6.801   6.322   9.518 -0.7293  0.0348  0.3538
   21CHL1   C12 1511   6.604   6.577   9.677  0.4899  0.2079 -0.3537
   21CHL1  H12A 1512   6.671   6.647   9.623  0.7876  1.2557  1.3057
   21CHL1  H12B 1513   6.497   6.603   9.658  0.6408 -0.1113 -1.7277
   21CHL1   C11 1514   6.639   6.529   9.821 -0.0489 -0.1039  0.2120
   21CHL1  H11A 1515   6.750   6.526   9.827 -0.0113 -0.3792 -0.5067
   21CHL1  H11B 1516   6.600   6.611   9.884 -0.6479 -0.6054  0.5091
   21CHL1    C9 1517   6.571   6.393   9.865  0.1520 -0.2839 -0.3139
   21CHL1    H9 1518   6.463   6.416   9.857 -0.3141 -2.3257 -0.5624
   21CHL1   C10 1519   6.598   6.354  10.017  1.0090 -0.0485  0.5565
   21CHL1   C19 1520   6.752   6.353  10.042 -0.6632 -0.2253  0.2125
   21CHL1  H19A 1521   6.787   6.458  10.050 -2.2195  0.2506  1.1128
   21CHL1  H19B 1522   6.778   6.294  10.132  4.5716 -0.2987 -1.0020
   21CHL1  H19C 1523   6.810   6.295   9.967 -0.4447 -0.2121  0.3692
   21CHL1    C1 1524   6.528   6.460  10.101  0.3831  0.1749  0.3036
   21CHL1   H1A 1525   6.567   6.563  10.088  2.1610 -0.5382 -0.2657
   21CHL1   H1B 1526   6.419   6.468  10.081 -0.0338 -0.7418  1.9929
   21CHL1    C2 1527   6.539   6.428  10.253  0.2208 -0.2552  0.0696
   21CHL1   H2A 1528   6.482   6.488  10.327  0.0055  1.2528 -1.2820
   21CHL1   H2B 1529   6.641   6.437  10.297 -0.3692  0.6461  1.3196
   21CHL1   C20 1530   6.675   6.518   9.326  0.0535  0.2248  0.1847
   21CHL1   H20 1531   6.774   6.468   9.315 -1.2003 -2.1984 -0.7984
   21CHL1   C21 1532   6.692   6.673   9.353 -0.6014  0.2237 -0.7204
   21CHL1  H21A 1533   6.762   6.691   9.438 -0.0864  0.4878 -1.1974
   21CHL1  H21B 1534   6.600   6.728   9.383 -0.9551 -0.1484 -1.1092
   21CHL1  H21C 1535   6.741   6.719   9.265  1.3633 -0.8030 -0.2284
   21CHL1   C22 1536   6.613   6.502   9.182 -0.3404 -0.7683  0.1417
   21CHL1  H22A 1537   6.683   6.559   9.118  1.2741 -3.5404 -0.6808
   21CHL1  H22B 1538   6.623   6.395   9.156  1.4289 -0.4937 -0.4232
   21CHL1   C23 1539   6.466   6.541   9.155 -0.3570 -1.3897  0.4141
   21CHL1  H23A 1540   6.389   6.486   9.213 -1.3253  0.3353  0.8163
   21CHL1  H23B 1541   6.464   6.650   9.179  1.8468 -0.8665 -1.4239
   21CHL1   C24 1542   6.417   6.512   9.010  0.1076  0.3450  0.0654
   21CHL1  H24A 1543   6.434   6.407   8.980  1.4823  0.3902  0.6347
   21CHL1  H24B 1544   6.308   6.535   9.014  0.3823  1.6423  3.1484
   21CHL1   C25 1545   6.474   6.600   8.894  0.4509  0.0530 -0.4609
   21CHL1   H25 1546   6.582   6.577   8.883  0.5559  0.3779 -0.1504
   21CHL1   C26 1547   6.408   6.564   8.755  0.1175 -0.0700  0.4435
   21CHL1  H26A 1548   6.452   6.633   8.679 -0.8557  0.3002  0.1986
   21CHL1  H26B 1549   6.432   6.459   8.730  0.0278  0.4465 -2.0655
   21CHL1  H26C 1550   6.298   6.578   8.764  0.1335 -0.7148  1.8117
   21CHL1   C27 1551   6.450   6.747   8.926  0.7250  0.0125 -0.7865
   21CHL1  H27A 1552   6.519   6.759   9.012 -1.5400  1.6297  0.9323
   21CHL1  H27B 1553   6.495   6.817   8.853 -0.7600 -0.5888 -2.3511
   21CHL1  H27C 1554   6.344   6.775   8.946 -0.1481 -1.0830 -3.4230
   22CHL1    C3 1555   0.065   2.217  10.012  0.3344  0.6928  0.0100
   22CHL1    H3 1556   0.035   2.110  10.015 -0.6509  0.8694 -2.0368
   22CHL1    O3 1557   0.080   2.268  10.141 -0.0381  0.8717 -0.5118
   22CHL1   H3' 1558   0.005   2.238  10.192  0.3944  1.6508  0.6506
   22CHL1    C4 1559   0.193   2.226   9.937  0.0562 -0.3458  0.0365
   22CHL1   H4A 1560   0.236   2.328   9.941  0.2003 -0.4421  2.1963
   22CHL1   H4B 1561   0.260   2.156   9.991 -0.5309  0.7789  2.3462
   22CHL1    C5 1562   0.185   2.212   9.784  0.2690 -0.3799 -0.1183
   22CHL1    C6 1563   0.267   2.127   9.726  1.4893 -0.0086  0.0164
   22CHL1    H6 1564   0.337   2.067   9.787  0.2908 -1.3028  0.1579
   22CHL1    C7 1565   0.264   2.096   9.580 -0.2679 -0.0050 -0.0117
   22CHL1   H7A 1566   0.372   2.098   9.553  0.4959 -1.6328  2.5110
   22CHL1   H7B 1567   0.231   1.991   9.572 -0.1937 -0.1153  1.0159
   22CHL1    C8 1568   0.183   2.198   9.505 -0.4691 -0.4568  0.4594
   22CHL1    H8 1569   0.232   2.297   9.504 -1.2518 -0.0619 -0.5622
   22CHL1   C14 1570   0.158   2.150   9.361 -0.3100 -0.1051 -0.1966
   22CHL1   H14 1571   0.092   2.061   9.370 -0.5524  0.0603 -0.3333
   22CHL1   C15 1572   0.275   2.105   9.276 -0.2325  1.0675  0.5704
   22CHL1  H15A 1573   0.356   2.179   9.297  0.4157  0.4291  0.3540
   22CHL1  H15B 1574   0.309   2.005   9.310 -0.2254  0.5454 -0.8918
   22CHL1   C16 1575   0.229   2.098   9.130  0.5058 -0.1651 -0.2529
   22CHL1  H16A 1576   0.303   2.144   9.062  1.5917  0.7103  1.4388
   22CHL1  H16B 1577   0.222   1.993   9.094  1.3797  0.0598 -1.1189
   22CHL1   C17 1578   0.090   2.167   9.130 -0.2752 -0.2947  0.6357
   22CHL1   H17 1579   0.019   2.082   9.141 -0.7171  0.2605  2.2332
   22CHL1   C13 1580   0.073   2.238   9.270 -0.1757  0.3949  0.5518
   22CHL1   C18 1581   0.137   2.382   9.253 -0.3866 -0.0865  0.0325
   22CHL1  H18A 1582   0.103   2.442   9.166 -0.2074  1.6064  1.0732
   22CHL1  H18B 1583   0.118   2.450   9.339 -1.7819  0.9120 -1.0201
   22CHL1  H18C 1584   0.247   2.363   9.252 -0.0478  1.5596  1.2253
   22CHL1   C12 1585  -0.068   2.245   9.329 -0.1450  0.2966 -0.2332
   22CHL1  H12A 1586  -0.130   2.318   9.274  0.3984 -0.3142 -1.7113
   22CHL1  H12B 1587  -0.106   2.140   9.326  1.6804 -0.4107 -0.1538
   22CHL1   C11 1588  -0.058   2.295   9.483  0.9776  0.2149  0.4129
   22CHL1  H11A 1589  -0.031   2.403   9.482 -0.3943  0.5841 -1.0113
   22CHL1  H11B 1590  -0.154   2.276   9.536  0.3790  2.0110  0.0511
   22CHL1    C9 1591   0.050   2.226   9.572 -0.1744  0.0039 -0.4587
   22CHL1    H9 1592  -0.000   2.129   9.591  0.5090 -0.4342 -0.8595
   22CHL1   C10 1593   0.072   2.291   9.713  0.3932 -0.4677  0.5856
   22CHL1   C19 1594   0.109   2.439   9.708 -0.3879  0.2382 -0.8553
   22CHL1  H19A 1595   0.181   2.462   9.626  2.2639  3.4485  2.0570
   22CHL1  H19B 1596   0.019   2.500   9.687 -0.9430 -0.2909 -0.0712
   22CHL1  H19C 1597   0.146   2.488   9.801  0.6080  0.3701 -1.3034
   22CHL1    C1 1598  -0.063   2.273   9.797  0.1805 -0.3619  0.5794
   22CHL1   H1A 1599  -0.131   2.346   9.748 -0.9421 -0.7072  1.5671
   22CHL1   H1B 1600  -0.107   2.173   9.779 -0.8225 -0.0455  1.1952
   22CHL1    C2 1601  -0.047   2.299   9.947  0.3202  0.0532 -0.2392
   22CHL1   H2A 1602  -0.144   2.296  10.001  0.0557  0.0564 -0.7027
   22CHL1   H2B 1603  -0.024   2.407   9.955  1.1106 -0.0494 -0.9230
   22CHL1   C20 1604   0.053   2.232   8.995  0.1975  1.0444 -0.2634
   22CHL1   H20 1605   0.118   2.321   8.980  0.3969  1.0449  0.5579
   22CHL1   C21 1606  -0.095   2.262   9.000  0.3710 -0.0310  0.5522
   22CHL1  H21A 1607  -0.133   2.282   8.898 -0.4735  0.9086  1.0283
   22CHL1  H21B 1608  -0.118   2.351   9.062 -1.0048  1.3188 -1.7845
   22CHL1  H21C 1609  -0.149   2.183   9.058  1.2024  0.7395  2.4656
   22CHL1   C22 1610   0.091   2.146   8.867  0.6589 -0.2768 -0.2297
   22CHL1  H22A 1611   0.076   2.217   8.783 -0.5320  1.9856  1.7608
   22CHL1  H22B 1612   0.200   2.124   8.869  1.2958  2.2269  3.5544
   22CHL1   C23 1613   0.014   2.021   8.846  0.4213 -0.3664 -0.3824
   22CHL1  H23A 1614   0.019   1.960   8.939 -0.0225  2.0689  1.3741
   22CHL1  H23B 1615  -0.092   2.055   8.844  1.0853  1.8307 -1.3059
   22CHL1   C24 1616   0.059   1.940   8.718  0.6253 -0.0906 -0.0392
   22CHL1  H24A 1617   0.057   2.018   8.638 -0.9300  0.3636  0.4063
   22CHL1  H24B 1618   0.164   1.905   8.727  0.7569  0.1915 -0.4273
   22CHL1   C25 1619  -0.024   1.823   8.686  0.4711  0.1239 -0.5551
   22CHL1   H25 1620  -0.025   1.749   8.769 -0.2229 -0.3216 -0.9493
   22CHL1   C26 1621  -0.178   1.840   8.649  0.3070 -0.1084 -0.3247
   22CHL1  H26A 1622  -0.232   1.883   8.735  1.7715  0.7767  0.1891
   22CHL1  H26B 1623  -0.178   1.921   8.573  0.2444  2.4443  2.2169
   22CHL1  H26C 1624  -0.221   1.744   8.612  0.3227  0.0911 -0.8693
   22CHL1   C27 1625   0.042   1.752   8.569  0.3829  0.4775 -0.3334
   22CHL1  H27A 1626   0.146   1.729   8.601  0.9596  2.3097 -0.7682
   22CHL1  H27B 1627  -0.024   1.668   8.539  0.0880  0.4149  0.4849
   22CHL1  H27C 1628   0.058   1.822   8.483 -1.7130  1.0285 -0.3190
   23CHL1    C3 1629   1.794   2.268  10.210 -0.4459 -0.5834  0.1773
   23CHL1    H3 1630   1.798   2.162  10.175 -0.9040 -0.4996 -0.1415
   23CHL1    O3 1631   1.759   2.285  10.346 -0.2087  0.1344 -0.1436
   23CHL1   H3' 1632   1.841   2.304  10.391 -0.4783 -1.4016  1.0574
   23CHL1    C4 1633   1.937   2.326  10.193  0.7056  0.1979 -0.0973
   23CHL1   H4A 1634   1.929   2.430  10.232 -2.9980 -0.8547  2.5997
   23CHL1   H4B 1635   2.007   2.273  10.261 -1.9399  0.1588  2.8043
   23CHL1    C5 1636   1.984   2.308  10.049  0.5898 -0.2925  0.0600
   23CHL1    C6 1637   2.097   2.243  10.026 -0.4251 -0.2130 -0.0539
   23CHL1    H6 1638   2.164   2.209  10.106  1.3108 -1.3385 -1.8902
   23CHL1    C7 1639   2.158   2.232   9.892  0.0133 -0.8335  0.4923
   23CHL1   H7A 1640   2.268   2.246   9.888  0.0233 -1.1602 -0.6100
   23CHL1   H7B 1641   2.145   2.128   9.854  0.0177 -0.7713  0.3215
   23CHL1    C8 1642   2.084   2.319   9.790  0.2397 -1.3336 -0.1236
   23CHL1    H8 1643   2.126   2.419   9.812 -0.4829 -1.3129  1.2266
   23CHL1   C14 1644   2.119   2.288   9.645 -0.5138  0.0065 -0.0094
   23CHL1   H14 1645   2.072   2.187   9.646  1.9124 -1.2414 -1.3616
   23CHL1   C15 1646   2.264   2.266   9.616 -0.1309 -0.0431  0.1495
   23CHL1  H15A 1647   2.319   2.357   9.649  0.2168  0.8105 -2.4920
   23CHL1  H15B 1648   2.302   2.176   9.669 -1.6152 -0.5088  0.4656
   23CHL1   C16 1649   2.274   2.268   9.472 -1.3497 -0.6684  0.3379
   23CHL1  H16A 1650   2.339   2.351   9.439 -0.6300 -1.1981  0.4182
   23CHL1  H16B 1651   2.311   2.173   9.428 -0.1363  0.3823 -0.9776
   23CHL1   C17 1652   2.131   2.297   9.415 -0.5045  0.2523 -0.0068
   23CHL1   H17 1653   2.072   2.203   9.411  0.6005 -0.4355 -0.4122
   23CHL1   C13 1654   2.055   2.363   9.526 -0.3598 -0.4121 -0.1519
   23CHL1   C18 1655   2.100   2.513   9.519 -0.0708 -0.1956 -0.1675
   23CHL1  H18A 1656   2.202   2.528   9.476  0.4046 -1.6724  0.3972
   23CHL1  H18B 1657   2.038   2.581   9.457  2.0154  2.3858  0.3716
   23CHL1  H18C 1658   2.099   2.557   9.621  1.9490  4.1174 -1.7354
   23CHL1   C12 1659   1.911   2.349   9.547 -0.2637 -0.2110  0.4218
   23CHL1  H12A 1660   1.861   2.418   9.476 -0.3035 -1.5180 -0.8752
   23CHL1  H12B 1661   1.887   2.242   9.525 -1.2115  0.5386 -2.7175
   23CHL1   C11 1662   1.863   2.403   9.684  0.6291  0.3026 -0.2598
   23CHL1  H11A 1663   1.887   2.512   9.676 -3.0230  1.3377  0.9669
   23CHL1  H11B 1664   1.753   2.413   9.675  0.6752  2.1660  0.6799
   23CHL1    C9 1665   1.930   2.324   9.799  0.1562  0.7861  0.0228
   23CHL1    H9 1666   1.907   2.215   9.790  4.0190 -0.1355 -0.5475
   23CHL1   C10 1667   1.888   2.369   9.944  0.2281  0.6802 -0.0069
   23CHL1   C19 1668   1.891   2.517   9.948  0.0880 -0.0714  0.1598
   23CHL1  H19A 1669   1.824   2.561   9.870  1.3181 -1.0866 -1.5274
   23CHL1  H19B 1670   1.863   2.565  10.045 -0.3858 -0.2276  0.1049
   23CHL1  H19C 1671   1.989   2.561   9.921 -0.4811  0.1016 -1.7638
   23CHL1    C1 1672   1.737   2.321   9.980 -1.1469 -0.4054 -0.5687
   23CHL1   H1A 1673   1.671   2.367   9.904 -0.4690 -0.2032 -1.0385
   23CHL1   H1B 1674   1.742   2.210   9.971 -0.3762 -0.5270  0.9848
   23CHL1    C2 1675   1.694   2.341  10.122 -0.5973 -0.4131 -0.2840
   23CHL1   H2A 1676   1.586   2.314  10.131 -0.4106 -1.2241 -0.4736
   23CHL1   H2B 1677   1.704   2.450  10.141 -0.1824 -0.1724 -1.7332
   23CHL1   C20 1678   2.146   2.348   9.264 -0.4865  0.4555  0.2103
   23CHL1   H20 1679   2.214   2.436   9.264 -0.0115  0.0937 -1.0132
   23CHL1   C21 1680   2.011   2.378   9.215 -0.1371  0.2096  0.5469
   23CHL1  H21A 1681   1.976   2.476   9.255 -0.7062 -0.0385  0.6559
   23CHL1  H21B 1682   1.943   2.293   9.234  0.5563 -0.4794  0.0004
   23CHL1  H21C 1683   2.017   2.385   9.104  1.1155 -3.7569  0.2238
   23CHL1   C22 1684   2.216   2.240   9.175  0.0918  0.5163 -0.5201
   23CHL1  H22A 1685   2.298   2.190   9.231  0.8025 -0.8194 -2.6118
   23CHL1  H22B 1686   2.148   2.155   9.150 -0.4542  0.9600 -0.5687
   23CHL1   C23 1687   2.262   2.298   9.037 -0.1734  0.3104 -0.2670
   23CHL1  H23A 1688   2.186   2.341   8.968 -0.4364 -1.3284 -1.0508
   23CHL1  H23B 1689   2.328   2.381   9.069  0.6972 -1.3762  2.7457
   23CHL1   C24 1690   2.360   2.203   8.964  0.0652  0.5063  0.0897
   23CHL1  H24A 1691   2.459   2.201   9.014 -0.7873  1.5458  1.9383
   23CHL1  H24B 1692   2.306   2.106   8.967 -1.7629  1.4814  1.0144
   23CHL1   C25 1693   2.411   2.239   8.819 -0.6332  0.1702 -0.5262
   23CHL1   H25 1694   2.488   2.162   8.797 -0.1637 -0.1201  1.7942
   23CHL1   C26 1695   2.290   2.203   8.728 -0.2525  0.0677 -0.4274
   23CHL1  H26A 1696   2.283   2.092   8.718 -3.2593  0.2527 -1.2841
   23CHL1  H26B 1697   2.192   2.234   8.768  0.1843  0.9392 -0.0049
   23CHL1  H26C 1698   2.304   2.247   8.627  0.8027 -0.7560 -0.6567
   23CHL1   C27 1699   2.444   2.385   8.790 -0.0399  0.3555  0.1737
   23CHL1  H27A 1700   2.479   2.384   8.685 -0.2300 -3.0744  0.0370
   23CHL1  H27B 1701   2.347   2.439   8.794 -0.0606  0.3786 -0.5523
   23CHL1  H27C 1702   2.514   2.433   8.862  0.9781 -0.2399 -0.3914
   24CHL1    C3 1703   4.255   2.454  10.305  0.9797 -0.2142 -0.1562
   24CHL1    H3 1704   4.283   2.352  10.270  1.3798 -0.2516  0.2726
   24CHL1    O3 1705   4.315   2.478  10.429  0.2234  0.3321  0.1540
   24CHL1   H3' 1706   4.396   2.524  10.405 -0.0222  0.1454 -1.1010
   24CHL1    C4 1707   4.309   2.555  10.204  0.3193 -0.3881 -0.2413
   24CHL1   H4A 1708   4.303   2.658  10.245  3.5044 -0.3185  0.3110
   24CHL1   H4B 1709   4.419   2.536  10.197  0.5605 -1.7356  4.0826
   24CHL1    C5 1710   4.238   2.550  10.073 -0.1748 -0.6585  0.0221
   24CHL1    C6 1711   4.306   2.544   9.958 -0.2624 -0.3747 -0.7879
   24CHL1    H6 1712   4.415   2.540   9.970 -0.2547  2.4076  1.0870
   24CHL1    C7 1713   4.244   2.547   9.819  0.1602  0.0175 -0.9238
   24CHL1   H7A 1714   4.285   2.627   9.752 -2.5527  2.2856 -0.0917
   24CHL1   H7B 1715   4.266   2.452   9.766  1.3456  0.4301 -1.2093
   24CHL1    C8 1716   4.090   2.577   9.816 -0.5312 -0.6093  0.5753
   24CHL1    H8 1717   4.074   2.687   9.821  0.3002 -0.2107 -2.8843
   24CHL1   C14 1718   4.033   2.524   9.688  0.5787  0.7709 -0.4392
   24CHL1   H14 1719   4.047   2.415   9.708  1.0917  1.1689  1.5160
   24CHL1   C15 1720   4.095   2.569   9.553  0.7793 -0.0162 -0.6812
   24CHL1  H15A 1721   4.116   2.678   9.550 -0.6655  0.3661  1.1992
   24CHL1  H15B 1722   4.192   2.522   9.527  0.5355 -0.2716 -1.1486
   24CHL1   C16 1723   3.978   2.540   9.452 -0.2168 -0.3166  0.3531
   24CHL1  H16A 1724   3.967   2.639   9.404 -0.2698 -1.2365 -1.6240
   24CHL1  H16B 1725   4.003   2.464   9.374  1.5166 -0.4670  1.0235
   24CHL1   C17 1726   3.855   2.481   9.534 -0.5010 -0.0674  1.1253
   24CHL1   H17 1727   3.879   2.374   9.548  0.9293 -0.1569 -1.4867
   24CHL1   C13 1728   3.880   2.547   9.673 -0.7978 -0.5041 -0.7660
   24CHL1   C18 1729   3.846   2.698   9.664  0.5879 -0.0525  0.1957
   24CHL1  H18A 1730   3.735   2.701   9.653  0.5078 -4.1645 -2.8164
   24CHL1  H18B 1731   3.869   2.744   9.762 -4.1371  1.5114  0.8268
   24CHL1  H18C 1732   3.891   2.761   9.584 -1.3765  1.5358  0.2494
   24CHL1   C12 1733   3.811   2.480   9.795  0.3622  0.3637 -0.5345
   24CHL1  H12A 1734   3.701   2.496   9.787 -0.4074 -2.6281  2.0359
   24CHL1  H12B 1735   3.823   2.370   9.796  0.4746  0.3670  0.8403
   24CHL1   C11 1736   3.859   2.528   9.928  0.7414 -0.5039  0.3394
   24CHL1  H11A 1737   3.831   2.635   9.944  1.7929 -0.1051 -0.4116
   24CHL1  H11B 1738   3.810   2.468  10.008 -1.2124  1.3673  0.6368
   24CHL1    C9 1739   4.013   2.513   9.938 -0.0047 -0.3444 -0.2246
   24CHL1    H9 1740   4.019   2.402   9.931 -3.1157 -0.7707  1.6768
   24CHL1   C10 1741   4.078   2.548  10.075  0.5584  0.1528  0.6574
   24CHL1   C19 1742   4.032   2.691  10.117  0.1843  0.0878 -0.8059
   24CHL1  H19A 1743   3.928   2.700  10.157  0.3405  1.3679 -0.6276
   24CHL1  H19B 1744   4.092   2.721  10.205  1.4067 -1.7703 -0.9594
   24CHL1  H19C 1745   4.048   2.754  10.027  0.9206  0.9185 -0.1068
   24CHL1    C1 1746   4.032   2.449  10.182  0.1064  0.8123 -0.8847
   24CHL1   H1A 1747   3.925   2.468  10.204  0.3140  0.1597  0.8864
   24CHL1   H1B 1748   4.054   2.345  10.149 -4.2043  0.2086 -2.4486
   24CHL1    C2 1749   4.098   2.458  10.320 -0.1743  0.3250 -0.4445
   24CHL1   H2A 1750   4.063   2.377  10.387  1.7999 -0.8023 -0.6979
   24CHL1   H2B 1751   4.071   2.554  10.369 -0.6165 -0.3766  0.7475
   24CHL1   C20 1752   3.712   2.501   9.459 -0.5159  0.1629 -0.4592
   24CHL1   H20 1753   3.677   2.605   9.480 -0.4293 -0.0940  1.0601
   24CHL1   C21 1754   3.608   2.407   9.514  0.2136  0.0401 -0.2482
   24CHL1  H21A 1755   3.637   2.306   9.478  3.7556  0.7997  0.1048
   24CHL1  H21B 1756   3.506   2.433   9.480 -0.4044 -0.7173  0.9827
   24CHL1  H21C 1757   3.597   2.417   9.624  0.4161  1.3031 -0.3294
   24CHL1   C22 1758   3.720   2.470   9.307  0.4064 -0.1497 -0.2118
   24CHL1  H22A 1759   3.774   2.557   9.266  1.9608 -1.1295 -0.3189
   24CHL1  H22B 1760   3.790   2.386   9.288  1.1314  0.5344 -0.6110
   24CHL1   C23 1761   3.590   2.448   9.223  0.6316 -0.1771 -0.4512
   24CHL1  H23A 1762   3.525   2.371   9.270  0.3765  1.4260  2.0442
   24CHL1  H23B 1763   3.534   2.544   9.231 -1.3831 -1.4211  1.7791
   24CHL1   C24 1764   3.617   2.402   9.081  0.5553  0.2810 -0.1773
   24CHL1  H24A 1765   3.689   2.472   9.032 -0.1523  0.6521 -0.7027
   24CHL1  H24B 1766   3.668   2.304   9.092 -0.2042 -0.1578 -0.4986
   24CHL1   C25 1767   3.483   2.382   9.003  0.3488 -0.0074  0.3717
   24CHL1   H25 1768   3.420   2.468   9.032  1.3016  1.0631 -0.6325
   24CHL1   C26 1769   3.506   2.385   8.856  0.1838 -0.1473 -0.1456
   24CHL1  H26A 1770   3.415   2.383   8.792 -0.7899  1.5546  1.1160
   24CHL1  H26B 1771   3.569   2.468   8.818  3.2769 -0.6495  3.3517
   24CHL1  H26C 1772   3.576   2.301   8.838 -0.1577 -0.8975  1.7992
   24CHL1   C27 1773   3.396   2.261   9.038 -1.0785 -0.2846 -0.3888
   24CHL1  H27A 1774   3.438   2.174   8.983 -0.5581  1.4912 -2.9848
   24CHL1  H27B 1775   3.391   2.260   9.149 -0.7812  1.1339 -0.3400
   24CHL1  H27C 1776   3.292   2.282   9.005 -1.1554  0.4432  0.2843
   25CHL1    C3 1777   5.494   4.052  10.286  0.0915 -0.2120 -0.2973
   25CHL1    H3 1778   5.482   4.159  10.259 -0.3073 -0.6645 -2.0662
   25CHL1    O3 1779   5.533   4.044  10.425 -0.3352 -0.1196  0.8064
   25CHL1   H3' 1780   5.544   3.949  10.427  0.7575 -0.0751 -0.7827
   25CHL1    C4 1781   5.360   3.987  10.256 -0.1929  0.1109 -0.3807
   25CHL1   H4A 1782   5.363   3.888  10.307  1.5399 -0.4119 -1.4052
   25CHL1   H4B 1783   5.274   4.034  10.307 -0.2747  0.9671 -1.2756
   25CHL1    C5 1784   5.334   3.959  10.116  0.4585  0.4274  0.9744
   25CHL1    C6 1785   5.220   4.010  10.060 -0.2891 -0.1195 -0.0911
   25CHL1    H6 1786   5.155   4.083  10.111 -0.6341  0.3239 -1.1357
   25CHL1    C7 1787   5.189   3.981   9.916  0.2989 -0.0645 -0.7175
   25CHL1   H7A 1788   5.081   3.966   9.892  0.4202 -1.4627 -0.4963
   25CHL1   H7B 1789   5.215   4.070   9.855 -1.5687  0.5822 -0.6558
   25CHL1    C8 1790   5.266   3.859   9.856  0.1623 -0.0846 -0.0801
   25CHL1    H8 1791   5.222   3.766   9.897  1.7261 -1.3020 -1.0446
   25CHL1   C14 1792   5.253   3.859   9.703 -0.2146 -0.3548 -0.7030
   25CHL1   H14 1793   5.307   3.947   9.662 -2.0787  1.0695 -0.2191
   25CHL1   C15 1794   5.111   3.864   9.645 -0.5784 -0.1424  0.0253
   25CHL1  H15A 1795   5.059   3.771   9.676 -2.1506 -0.6576 -3.5631
   25CHL1  H15B 1796   5.057   3.958   9.668 -1.4864 -0.5713 -0.3225
   25CHL1   C16 1797   5.139   3.841   9.495  0.8670  0.0181 -0.5354
   25CHL1  H16A 1798   5.063   3.765   9.464  1.8520 -1.0944 -0.3008
   25CHL1  H16B 1799   5.136   3.941   9.448  0.4407  0.8516  1.1969
   25CHL1   C17 1800   5.279   3.775   9.477 -0.0863 -0.0566 -0.5791
   25CHL1   H17 1801   5.350   3.856   9.449  0.5370 -0.4416 -0.1574
   25CHL1   C13 1802   5.326   3.744   9.623 -0.6946 -0.1492 -0.3819
   25CHL1   C18 1803   5.273   3.605   9.661 -0.2594  0.5460 -0.3018
   25CHL1  H18A 1804   5.346   3.534   9.617 -0.6740 -0.0671 -0.0107
   25CHL1  H18B 1805   5.288   3.585   9.769  3.0733  0.5520 -0.6523
   25CHL1  H18C 1806   5.171   3.571   9.633 -0.0301 -1.2915  0.9899
   25CHL1   C12 1807   5.475   3.758   9.655 -0.1409 -0.0266 -0.3583
   25CHL1  H12A 1808   5.525   3.674   9.603 -1.9805 -1.8586  0.6509
   25CHL1  H12B 1809   5.525   3.851   9.622 -0.2489 -0.6701 -2.4800
   25CHL1   C11 1810   5.501   3.763   9.813  0.1317 -0.5958  0.6018
   25CHL1  H11A 1811   5.477   3.665   9.859 -1.8147  0.5367  2.1296
   25CHL1  H11B 1812   5.608   3.786   9.835  0.3102  0.3173 -1.0447
   25CHL1    C9 1813   5.416   3.865   9.888  0.1893 -0.2991  0.2693
   25CHL1    H9 1814   5.452   3.961   9.844  2.4859 -1.0507  0.3836
   25CHL1   C10 1815   5.435   3.869  10.040  0.4422 -0.2388 -0.5201
   25CHL1   C19 1816   5.450   3.725  10.095  0.2315  0.5665  0.2725
   25CHL1  H19A 1817   5.533   3.676  10.040 -2.8943 -3.2973 -1.4826
   25CHL1  H19B 1818   5.466   3.714  10.205 -1.6229 -1.4888  0.3855
   25CHL1  H19C 1819   5.364   3.662  10.066 -0.2227  0.0394  2.5692
   25CHL1    C1 1820   5.569   3.944  10.062  0.0656  1.0768  0.0128
   25CHL1   H1A 1821   5.641   3.863  10.037 -0.1087  0.8573  0.2125
   25CHL1   H1B 1822   5.583   4.026   9.988  2.0255 -0.8000 -1.8494
   25CHL1    C2 1823   5.601   3.973  10.212 -0.0980 -0.2992 -0.1414
   25CHL1   H2A 1824   5.701   4.020  10.220 -0.2568 -0.0695  0.5626
   25CHL1   H2B 1825   5.626   3.874  10.256  1.1173  0.8378  1.9133
   25CHL1   C20 1826   5.298   3.672   9.360 -0.3193  0.0323 -0.3585
   25CHL1   H20 1827   5.279   3.570   9.400  1.1980  0.1789  0.8657
   25CHL1   C21 1828   5.447   3.666   9.314  0.3132  0.8854  0.1083
   25CHL1  H21A 1829   5.516   3.673   9.400  2.0724  1.3552 -1.2715
   25CHL1  H21B 1830   5.464   3.761   9.257 -1.2161  1.2288  0.1614
   25CHL1  H21C 1831   5.466   3.576   9.253 -1.2840  1.0055 -0.6296
   25CHL1   C22 1832   5.205   3.694   9.239  0.1711  0.2469  0.1084
   25CHL1  H22A 1833   5.102   3.724   9.266 -0.2629 -2.4953  1.7558
   25CHL1  H22B 1834   5.250   3.779   9.182  2.2684 -1.2545 -0.6019
   25CHL1   C23 1835   5.178   3.570   9.153 -0.1497 -0.8982 -0.1560
   25CHL1  H23A 1836   5.269   3.531   9.104  0.4077  0.9563 -0.6844
   25CHL1  H23B 1837   5.143   3.491   9.223  1.1207 -0.6055  0.8452
   25CHL1   C24 1838   5.080   3.587   9.030 -0.3133  0.0179 -0.2700
   25CHL1  H24A 1839   5.059   3.490   8.981 -2.8587  0.1402  0.4360
   25CHL1  H24B 1840   4.981   3.624   9.064  0.2847  1.6986 -0.2478
   25CHL1   C25 1841   5.124   3.692   8.929  0.5166 -0.6666  0.7411
   25CHL1   H25 1842   5.149   3.785   8.983 -0.3059  0.1950 -0.3332
   25CHL1   C26 1843   5.256   3.659   8.862 -0.0513  0.1176 -0.2104
   25CHL1  H26A 1844   5.333   3.635   8.939 -0.8845 -1.7808  0.0873
   25CHL1  H26B 1845   5.239   3.571   8.796  0.2248  1.7351 -2.5377
   25CHL1  H26C 1846   5.306   3.736   8.800  1.5956  0.2056  1.1525
   25CHL1   C27 1847   5.011   3.742   8.841  0.5394 -0.1818  0.0823
   25CHL1  H27A 1848   4.930   3.778   8.908 -0.9341 -0.9283 -1.2201
   25CHL1  H27B 1849   5.044   3.825   8.774  1.0641 -1.6321 -1.5344
   25CHL1  H27C 1850   4.960   3.666   8.778 -1.2815  1.2197 -0.2095
   26CHL1    C3 1851   5.823   4.286  10.131  0.7144 -0.1251  0.2390
   26CHL1    H3 1852   5.729   4.230  10.149  0.3678 -0.0268 -1.1098
   26CHL1    O3 1853   5.869   4.346  10.254 -0.1081 -0.4911  0.1332
   26CHL1   H3' 1854   5.891   4.276  10.315  2.3668  0.5912  0.5823
   26CHL1    C4 1855   5.936   4.193  10.075 -0.3545  0.2955  0.1766
   26CHL1   H4A 1856   6.033   4.246  10.076  0.2394 -0.7605 -0.3087
   26CHL1   H4B 1857   5.953   4.104  10.140  0.7632 -1.1360 -1.9543
   26CHL1    C5 1858   5.903   4.143   9.937 -0.4828  0.8588 -0.9654
   26CHL1    C6 1859   5.906   4.014   9.911  0.6388  0.2122 -0.2571
   26CHL1    H6 1860   5.917   3.940   9.992  0.1645 -0.5989 -0.9127
   26CHL1    C7 1861   5.874   3.946   9.782 -0.7390  0.5671  0.7072
   26CHL1   H7A 1862   5.945   3.864   9.760  0.7305  2.2034 -0.9842
   26CHL1   H7B 1863   5.772   3.902   9.785 -0.2339 -0.5935  1.1453
   26CHL1    C8 1864   5.885   4.048   9.669 -0.2891  0.3021  0.3960
   26CHL1    H8 1865   5.993   4.053   9.643  0.0359  2.3357  1.8435
   26CHL1   C14 1866   5.800   3.996   9.550  0.5055 -0.8217  0.2193
   26CHL1   H14 1867   5.695   3.976   9.580  0.3884 -1.9515 -0.8889
   26CHL1   C15 1868   5.831   3.854   9.499 -0.0628  0.7494 -1.0613
   26CHL1  H15A 1869   5.941   3.841   9.507 -0.3509 -2.4997 -1.2827
   26CHL1  H15B 1870   5.784   3.777   9.563  1.5946  0.3715 -0.2455
   26CHL1   C16 1871   5.771   3.853   9.354 -0.3406 -0.8292 -0.2768
   26CHL1  H16A 1872   5.855   3.829   9.286  1.1479  2.2040  0.3188
   26CHL1  H16B 1873   5.702   3.766   9.349 -0.2284 -1.0016  0.8404
   26CHL1   C17 1874   5.711   3.994   9.328  0.0741  0.0417 -0.4618
   26CHL1   H17 1875   5.607   3.991   9.367  0.8743  1.9906  2.0753
   26CHL1   C13 1876   5.798   4.083   9.425  0.3209 -0.0171 -0.4090
   26CHL1   C18 1877   5.935   4.100   9.370 -0.3883  0.5043  0.3261
   26CHL1  H18A 1878   5.985   4.008   9.335  0.6872  0.4682  1.8608
   26CHL1  H18B 1879   5.925   4.176   9.289 -0.6654  0.2027  0.0762
   26CHL1  H18C 1880   6.000   4.139   9.451  0.1757  1.3225 -0.5073
   26CHL1   C12 1881   5.739   4.216   9.457 -0.2076  0.6070  0.0844
   26CHL1  H12A 1882   5.739   4.276   9.362  2.1999 -0.3419 -0.5994
   26CHL1  H12B 1883   5.633   4.217   9.488 -0.7008 -0.5193 -1.4630
   26CHL1   C11 1884   5.817   4.275   9.574  0.1585  0.3412 -0.8927
   26CHL1  H11A 1885   5.913   4.308   9.529  0.4476  0.3106 -0.3173
   26CHL1  H11B 1886   5.754   4.358   9.611  0.0205 -0.0430 -0.2421
   26CHL1    C9 1887   5.823   4.180   9.702  0.8740 -0.1798 -1.0756
   26CHL1    H9 1888   5.716   4.155   9.719  1.3088 -1.0605  0.5159
   26CHL1   C10 1889   5.881   4.243   9.829  0.8025 -0.6720  0.4981
   26CHL1   C19 1890   6.025   4.291   9.806  0.1929  0.3281  0.8960
   26CHL1  H19A 1891   6.082   4.197   9.795 -2.1221 -1.0320 -0.0820
   26CHL1  H19B 1892   6.031   4.348   9.711  0.4576 -1.2452 -0.0593
   26CHL1  H19C 1893   6.059   4.357   9.889 -1.7693  1.3942  0.9285
   26CHL1    C1 1894   5.777   4.351   9.880  0.1191 -0.4723 -0.0612
   26CHL1   H1A 1895   5.765   4.441   9.816 -2.0824  0.2151  1.2174
   26CHL1   H1B 1896   5.678   4.302   9.896 -1.4425  3.2684  3.3339
   26CHL1    C2 1897   5.795   4.400  10.028  0.1829  0.5458 -0.1430
   26CHL1   H2A 1898   5.715   4.463  10.072  0.0717 -0.4769  1.1854
   26CHL1   H2B 1899   5.881   4.470  10.021  0.6804 -0.1600 -1.5946
   26CHL1   C20 1900   5.698   4.030   9.177 -0.0377 -0.1113 -0.1095
   26CHL1   H20 1901   5.695   4.141   9.170 -2.3855 -0.1299 -0.2679
   26CHL1   C21 1902   5.563   3.976   9.127  0.6530 -0.6513 -0.2895
   26CHL1  H21A 1903   5.572   3.867   9.109  0.3253 -0.4638 -1.6612
   26CHL1  H21B 1904   5.526   4.020   9.033 -1.0290 -3.5437 -1.0928
   26CHL1  H21C 1905   5.486   3.977   9.207  0.2452  0.8881 -0.6665
   26CHL1   C22 1906   5.811   3.989   9.082  0.4254 -0.7923  0.8629
   26CHL1  H22A 1907   5.905   4.000   9.140  1.3310  2.3855 -0.9053
   26CHL1  H22B 1908   5.794   3.885   9.048 -0.4869 -0.4445  0.2116
   26CHL1   C23 1909   5.808   4.083   8.961 -0.5228 -0.4594 -0.1229
   26CHL1  H23A 1910   5.705   4.105   8.926 -1.5655 -1.3295  2.1897
   26CHL1  H23B 1911   5.844   4.176   9.009 -0.2218 -0.1913 -0.8583
   26CHL1   C24 1912   5.921   4.040   8.866  0.4177  0.5345  0.1750
   26CHL1  H24A 1913   6.012   4.053   8.928  0.3856  0.2425  0.2854
   26CHL1  H24B 1914   5.911   3.936   8.827 -2.1576  1.5373 -2.1244
   26CHL1   C25 1915   5.946   4.128   8.744  0.1302  0.2424  0.4701
   26CHL1   H25 1916   5.958   4.226   8.795 -1.5101  1.4799 -1.3877
   26CHL1   C26 1917   6.069   4.091   8.658  0.1787 -0.1496 -0.5822
   26CHL1  H26A 1918   6.156   4.103   8.727 -1.6360 -1.8813  2.1757
   26CHL1  H26B 1919   6.064   3.984   8.627  2.5223 -0.5921  0.3026
   26CHL1  H26C 1920   6.089   4.157   8.570 -0.1522  0.8103  0.0503
   26CHL1   C27 1921   5.824   4.151   8.650  0.2751  0.1375 -0.7588
   26CHL1  H27A 1922   5.846   4.241   8.588  0.9212  1.7760  1.7082
   26CHL1  H27B 1923   5.779   4.069   8.590  1.3066 -0.4405 -0.7732
   26CHL1  H27C 1924   5.740   4.194   8.708 -0.9745 -1.8817 -1.0000
   27CHL1    C3 1925   5.936   4.748  10.340 -0.4931 -0.2950  0.5869
   27CHL1    H3 1926   5.943   4.637  10.343  1.7406 -0.2019  0.3455
   27CHL1    O3 1927   5.957   4.800  10.468 -0.2175  0.3811 -0.4616
   27CHL1   H3' 1928   5.982   4.890  10.446 -0.6475  0.2292 -1.6074
   27CHL1    C4 1929   6.047   4.800  10.235  0.3299 -0.0713 -0.0010
   27CHL1   H4A 1930   6.057   4.908  10.258  0.4650  0.3892 -2.0551
   27CHL1   H4B 1931   6.144   4.762  10.274  0.0293 -0.0242  0.8308
   27CHL1    C5 1932   6.017   4.777  10.086  0.2346  0.4868 -0.1022
   27CHL1    C6 1933   6.111   4.722  10.010  0.8723 -0.8411 -0.1426
   27CHL1    H6 1934   6.207   4.688  10.052  0.0373 -1.0191  1.7194
   27CHL1    C7 1935   6.095   4.692   9.866  0.1659  0.1336  0.3310
   27CHL1   H7A 1936   6.185   4.724   9.811 -1.1378  0.9379 -1.4518
   27CHL1   H7B 1937   6.074   4.583   9.856  0.1944 -0.0768  2.2331
   27CHL1    C8 1938   5.971   4.768   9.803 -0.4380 -0.1365 -0.4819
   27CHL1    H8 1939   6.009   4.871   9.792  1.6238 -0.3522  3.1605
   27CHL1   C14 1940   5.937   4.691   9.678  0.2498 -0.2092 -0.0420
   27CHL1   H14 1941   5.885   4.597   9.707 -1.1779  0.2063 -1.1110
   27CHL1   C15 1942   6.048   4.645   9.575 -0.2109 -0.5345  0.1471
   27CHL1  H15A 1943   6.128   4.719   9.556  0.1430 -1.0357 -0.3407
   27CHL1  H15B 1944   6.093   4.550   9.613  0.2616 -1.0156 -1.5396
   27CHL1   C16 1945   5.966   4.596   9.450 -0.7604  0.0084 -0.2428
   27CHL1  H16A 1946   6.016   4.634   9.358 -0.6483  2.3569  0.7229
   27CHL1  H16B 1947   5.965   4.487   9.430  3.3779 -0.0388 -1.0181
   27CHL1   C17 1948   5.820   4.658   9.477  0.3091  0.5077  0.2199
   27CHL1   H17 1949   5.762   4.570   9.511 -0.2228  0.0902 -1.6703
   27CHL1   C13 1950   5.827   4.764   9.597  0.0892  0.0259  0.5095
   27CHL1   C18 1951   5.884   4.899   9.545 -0.3212  0.4383 -0.0214
   27CHL1  H18A 1952   5.812   4.950   9.477 -1.5413  0.1611  1.0216
   27CHL1  H18B 1953   5.916   4.964   9.628 -0.2468  1.1917 -0.6304
   27CHL1  H18C 1954   5.980   4.882   9.491 -0.6431  0.0724 -0.4884
   27CHL1   C12 1955   5.695   4.775   9.686  0.0367  0.5662  0.4076
   27CHL1  H12A 1956   5.615   4.822   9.626  0.5262 -0.9682 -1.5300
   27CHL1  H12B 1957   5.673   4.669   9.713 -0.4806  0.6825  0.4466
   27CHL1   C11 1958   5.726   4.846   9.820  0.1330  0.7784  0.0804
   27CHL1  H11A 1959   5.744   4.952   9.795 -0.6302  0.1399 -3.8023
   27CHL1  H11B 1960   5.641   4.849   9.892  1.4389 -0.0890  1.7443
   27CHL1    C9 1961   5.847   4.771   9.897  1.7175  0.3373  0.5064
   27CHL1    H9 1962   5.820   4.664   9.911  3.0709 -0.1615 -0.5127
   27CHL1   C10 1963   5.880   4.819  10.041 -0.4198 -0.0612  0.4581
   27CHL1   C19 1964   5.888   4.972  10.039 -0.3893 -0.3849  0.1752
   27CHL1  H19A 1965   5.791   5.021  10.011  0.3705  2.4441  2.0296
   27CHL1  H19B 1966   5.905   5.014  10.140  2.3151  2.1542 -1.1911
   27CHL1  H19C 1967   5.971   5.013   9.979  0.6701 -0.9525  1.2230
   27CHL1    C1 1968   5.778   4.761  10.143  0.1267  0.6551 -0.1561
   27CHL1   H1A 1969   5.677   4.795  10.110  0.1478 -0.4892 -1.4890
   27CHL1   H1B 1970   5.776   4.650  10.138 -1.5608  0.6952 -1.3989
   27CHL1    C2 1971   5.796   4.780  10.294 -0.5523 -0.2547  0.3458
   27CHL1   H2A 1972   5.723   4.734  10.364 -0.4492  0.4078  0.9027
   27CHL1   H2B 1973   5.767   4.884  10.322  0.1298 -0.3185  1.3527
   27CHL1   C20 1974   5.754   4.705   9.346  0.3669  0.0700  0.5424
   27CHL1   H20 1975   5.802   4.797   9.305 -0.7171 -0.5084 -2.2881
   27CHL1   C21 1976   5.609   4.731   9.370  0.2633  0.0219  0.1834
   27CHL1  H21A 1977   5.598   4.822   9.433  0.4570 -1.2582  2.1450
   27CHL1  H21B 1978   5.558   4.651   9.428  2.4703 -0.2113  1.9365
   27CHL1  H21C 1979   5.553   4.747   9.275 -1.3126 -0.8047  0.9189
   27CHL1   C22 1980   5.764   4.593   9.234  0.1412  0.4489  0.2072
   27CHL1  H22A 1981   5.871   4.565   9.217  0.8420  2.6077  0.7237
   27CHL1  H22B 1982   5.706   4.504   9.264  2.6173 -1.8064 -1.2248
   27CHL1   C23 1983   5.726   4.637   9.095 -0.3461  0.8009  0.4373
   27CHL1  H23A 1984   5.617   4.660   9.086 -0.1228  2.1010  0.8942
   27CHL1  H23B 1985   5.776   4.733   9.071 -1.4213  1.2539 -0.0881
   27CHL1   C24 1986   5.753   4.526   8.991 -0.3598  0.3601 -0.3493
   27CHL1  H24A 1987   5.863   4.510   8.992 -0.3504  0.3457  1.0699
   27CHL1  H24B 1988   5.689   4.438   9.011 -1.6023  1.0664 -1.0853
   27CHL1   C25 1989   5.717   4.562   8.846 -0.6814 -0.5936 -0.6294
   27CHL1   H25 1990   5.726   4.460   8.803  2.5722 -2.1379  3.1081
   27CHL1   C26 1991   5.562   4.595   8.832 -0.7083  0.3611 -0.3488
   27CHL1  H26A 1992   5.527   4.555   8.735  0.1973 -1.8769  0.1984
   27CHL1  H26B 1993   5.498   4.540   8.904 -2.0159  0.2593 -1.5477
   27CHL1  H26C 1994   5.548   4.703   8.856  2.7488  0.9214 -0.3259
   27CHL1   C27 1995   5.794   4.682   8.779  0.0169  0.4081  0.8057
   27CHL1  H27A 1996   5.788   4.780   8.830 -1.7904 -0.0171  1.4639
   27CHL1  H27B 1997   5.899   4.646   8.773  0.2513  0.9527  1.5682
   27CHL1  H27C 1998   5.762   4.704   8.675  0.0267 -1.1082  0.4491
   28CHL1    C3 1999   4.075   1.166  10.124 -0.1028  0.0027 -0.3149
   28CHL1    H3 2000   4.023   1.069  10.105 -0.0261  0.3524 -2.5780
   28CHL1    O3 2001   4.047   1.202  10.255 -0.9384 -0.2870  0.0569
   28CHL1   H3' 2002   4.079   1.292  10.266 -4.2302  1.2061 -1.3539
   28CHL1    C4 2003   4.226   1.143  10.114 -0.8821  0.1108  0.0034
   28CHL1   H4A 2004   4.284   1.227  10.157  0.9373 -1.0327 -0.0914
   28CHL1   H4B 2005   4.250   1.059  10.183 -0.8107  1.5141  1.7497
   28CHL1    C5 2006   4.254   1.107   9.970 -0.5455 -0.0910  0.0955
   28CHL1    C6 2007   4.333   0.995   9.945  0.1916  0.6573 -0.1386
   28CHL1    H6 2008   4.368   0.936  10.031 -2.0598  0.5943  0.7931
   28CHL1    C7 2009   4.391   0.954   9.812 -0.3502  0.3397 -0.0457
   28CHL1   H7A 2010   4.500   0.942   9.828 -0.3679  2.5813  2.4116
   28CHL1   H7B 2011   4.351   0.857   9.774  0.6701  0.0586 -0.4363
   28CHL1    C8 2012   4.365   1.064   9.705  0.0983 -0.0426 -0.2190
   28CHL1    H8 2013   4.445   1.140   9.713 -0.7956  0.7092  2.7839
   28CHL1   C14 2014   4.385   1.008   9.566 -0.3655  0.3763  0.0397
   28CHL1   H14 2015   4.310   0.927   9.550 -0.7421  0.5045  1.0759
   28CHL1   C15 2016   4.519   0.943   9.542 -0.1791 -0.3817 -0.5677
   28CHL1  H15A 2017   4.605   0.996   9.587 -0.3617 -1.0445  0.5834
   28CHL1  H15B 2018   4.515   0.833   9.560 -2.1972 -0.0895  1.2023
   28CHL1   C16 2019   4.536   0.952   9.386 -0.1453  0.6197 -0.2312
   28CHL1  H16A 2020   4.626   1.016   9.374  1.8323 -1.6263  1.5551
   28CHL1  H16B 2021   4.559   0.849   9.351  0.7383 -0.0063  2.0648
   28CHL1   C17 2022   4.406   1.019   9.333 -0.0467 -0.2890  0.5186
   28CHL1   H17 2023   4.341   0.930   9.320  1.2617 -1.0722 -1.1166
   28CHL1   C13 2024   4.355   1.110   9.458  0.6692 -0.7043  0.0286
   28CHL1   C18 2025   4.446   1.235   9.455 -0.0389  0.3277 -0.2519
   28CHL1  H18A 2026   4.430   1.307   9.538  0.1875  2.8072 -2.2397
   28CHL1  H18B 2027   4.551   1.199   9.450 -0.1925 -0.5462  1.8111
   28CHL1  H18C 2028   4.417   1.295   9.366 -4.2716 -1.7138 -0.4964
   28CHL1   C12 2029   4.200   1.135   9.464 -0.3709  0.6142  0.2352
   28CHL1  H12A 2030   4.159   1.198   9.381 -0.3053 -1.6301 -1.6097
   28CHL1  H12B 2031   4.158   1.032   9.468  1.8747 -0.3414  0.5855
   28CHL1   C11 2032   4.166   1.196   9.598  0.6975 -0.7815  0.9283
   28CHL1  H11A 2033   4.202   1.300   9.612 -2.5551  0.5165  0.5637
   28CHL1  H11B 2034   4.057   1.206   9.613  1.0837  0.2556  3.7854
   28CHL1    C9 2035   4.222   1.120   9.721  0.4143 -0.1288  0.3467
   28CHL1    H9 2036   4.165   1.025   9.728  2.0334 -1.2853 -1.0770
   28CHL1   C10 2037   4.209   1.200   9.851 -0.2482  0.4735 -1.0733
   28CHL1   C19 2038   4.308   1.320   9.864  0.2057  0.1234  0.1733
   28CHL1  H19A 2039   4.275   1.399   9.792  1.2850  1.2387  0.8599
   28CHL1  H19B 2040   4.296   1.372   9.961 -3.6928  0.2341 -0.1994
   28CHL1  H19C 2041   4.416   1.303   9.844  0.1402 -0.7997  0.5578
   28CHL1    C1 2042   4.059   1.227   9.881 -0.2678 -0.2705  0.0621
   28CHL1   H1A 2043   4.029   1.308   9.811 -0.8250  1.3159  2.0402
   28CHL1   H1B 2044   4.000   1.142   9.841  1.4077 -0.9513 -1.1405
   28CHL1    C2 2045   4.033   1.273  10.017  1.0516 -0.2979 -0.7647
   28CHL1   H2A 2046   3.923   1.288  10.020  1.1538  0.7946 -1.6403
   28CHL1   H2B 2047   4.083   1.370  10.035 -0.2097  0.6422 -2.0337
   28CHL1   C20 2048   4.420   1.089   9.202 -0.0516  0.0212  0.2638
   28CHL1   H20 2049   4.468   1.188   9.220 -1.0082  0.2180  2.0788
   28CHL1   C21 2050   4.278   1.129   9.151 -0.1485  0.9276  0.5675
   28CHL1  H21A 2051   4.271   1.138   9.040 -0.6597  1.2307  0.6207
   28CHL1  H21B 2052   4.252   1.227   9.196  1.2201  0.7021  1.9461
   28CHL1  H21C 2053   4.190   1.075   9.190  1.2427 -0.5298  1.8396
   28CHL1   C22 2054   4.510   1.004   9.105 -0.3858  0.8550 -0.0141
   28CHL1  H22A 2055   4.610   1.003   9.155  0.3505  3.0404 -1.2911
   28CHL1  H22B 2056   4.453   0.909   9.102 -0.1308  0.7293 -1.4597
   28CHL1   C23 2057   4.534   1.045   8.963  0.0458  0.4879  0.4310
   28CHL1  H23A 2058   4.448   1.095   8.915  2.1506  2.8719 -1.1347
   28CHL1  H23B 2059   4.605   1.131   8.964  0.6366  0.0675 -1.3056
   28CHL1   C24 2060   4.589   0.935   8.873  0.0057  0.0797  0.2274
   28CHL1  H24A 2061   4.688   0.896   8.902  0.2271  0.8892  0.5758
   28CHL1  H24B 2062   4.519   0.851   8.853  1.4348 -0.6418 -2.1240
   28CHL1   C25 2063   4.631   0.982   8.728  0.4991 -0.5710  0.4445
   28CHL1   H25 2064   4.539   1.015   8.675 -0.0839  0.4897  2.0369
   28CHL1   C26 2065   4.716   1.109   8.739  0.3684 -0.2355  0.2777
   28CHL1  H26A 2066   4.796   1.093   8.814  1.1985 -1.8032 -0.8832
   28CHL1  H26B 2067   4.779   1.138   8.652 -1.2890  2.3227 -0.1679
   28CHL1  H26C 2068   4.661   1.199   8.774  1.4268  0.7567 -0.5471
   28CHL1   C27 2069   4.697   0.863   8.648  0.3767  0.3395 -0.1764
   28CHL1  H27A 2070   4.609   0.796   8.637  0.1353  0.6864 -0.3638
   28CHL1  H27B 2071   4.744   0.892   8.551  2.2796 -2.1229 -0.0981
   28CHL1  H27C 2072   4.770   0.807   8.710 -1.8333 -0.0795  2.2402
   29CHL1    C3 2073   6.152   5.844   6.861  0.2764 -0.0899  0.3856
   29CHL1    H3 2074   6.250   5.808   6.901 -0.5200 -1.0224  1.5589
   29CHL1    O3 2075   6.154   5.837   6.721 -0.4901  0.8129 -0.4056
   29CHL1   H3' 2076   6.087   5.778   6.685 -0.2843 -0.3722  1.0444
   29CHL1    C4 2077   6.045   5.757   6.925  0.6494  0.0780  0.6159
   29CHL1   H4A 2078   5.944   5.791   6.894  0.4995 -0.7770  0.1434
   29CHL1   H4B 2079   6.054   5.650   6.897  1.6534  0.8543 -2.3831
   29CHL1    C5 2080   6.059   5.773   7.074 -0.6455  0.0268  0.4460
   29CHL1    C6 2081   6.078   5.657   7.144 -0.1936 -0.4508  0.0869
   29CHL1    H6 2082   6.087   5.559   7.094  2.0152 -0.0609 -0.4021
   29CHL1    C7 2083   6.098   5.665   7.291 -0.9131 -0.1641 -0.3608
   29CHL1   H7A 2084   6.065   5.574   7.346  0.5828  0.3161  1.4286
   29CHL1   H7B 2085   6.209   5.670   7.303 -1.0144 -3.0242  3.8693
   29CHL1    C8 2086   6.059   5.799   7.358 -0.2080 -0.3544  0.0570
   29CHL1    H8 2087   5.949   5.797   7.346 -0.1701  1.2807 -0.9068
   29CHL1   C14 2088   6.119   5.805   7.494 -0.3383 -0.4288  0.6295
   29CHL1   H14 2089   6.227   5.825   7.477 -0.8309  0.1296 -2.3496
   29CHL1   C15 2090   6.104   5.683   7.585  0.2292 -0.1471 -0.3995
   29CHL1  H15A 2091   5.999   5.652   7.571 -0.0044  0.4492 -0.0474
   29CHL1  H15B 2092   6.181   5.604   7.569 -0.3998 -1.1472  1.2641
   29CHL1   C16 2093   6.124   5.747   7.728 -0.0456 -0.1061  0.0822
   29CHL1  H16A 2094   6.055   5.700   7.801 -0.3158  0.5739  0.2763
   29CHL1  H16B 2095   6.228   5.728   7.761  0.3384  1.9106  0.1861
   29CHL1   C17 2096   6.118   5.902   7.713  0.9261 -0.8569 -0.1305
   29CHL1   H17 2097   6.222   5.940   7.705  1.3175 -1.7981  0.3881
   29CHL1   C13 2098   6.061   5.929   7.573 -0.7836  0.1272  0.4186
   29CHL1   C18 2099   5.906   5.912   7.573  0.3479 -0.3843  0.2310
   29CHL1  H18A 2100   5.864   5.932   7.472  2.1858  0.2386 -0.4401
   29CHL1  H18B 2101   5.883   5.805   7.589  1.9959 -0.5904  1.4428
   29CHL1  H18C 2102   5.862   5.966   7.660  1.4604 -1.8889  1.7879
   29CHL1   C12 2103   6.111   6.057   7.504 -0.3398  0.1628 -0.3768
   29CHL1  H12A 2104   6.079   6.150   7.555  0.3337  0.5046 -0.5771
   29CHL1  H12B 2105   6.221   6.055   7.512 -0.3890 -0.4487  0.3275
   29CHL1   C11 2106   6.065   6.056   7.352 -0.6474  0.3776  0.1405
   29CHL1  H11A 2107   5.954   6.066   7.354 -0.5607  1.3818  0.0793
   29CHL1  H11B 2108   6.095   6.151   7.304  0.6576 -0.5902 -1.0390
   29CHL1    C9 2109   6.101   5.927   7.276 -0.1644 -0.1586  0.4974
   29CHL1    H9 2110   6.211   5.912   7.281 -0.4238 -1.8330  1.8497
   29CHL1   C10 2111   6.060   5.916   7.128  0.0266 -0.3963  0.3432
   29CHL1   C19 2112   5.924   5.975   7.101 -0.4631 -0.2292 -0.6309
   29CHL1  H19A 2113   5.853   5.940   7.178  0.3521 -3.7284 -1.3024
   29CHL1  H19B 2114   5.926   6.086   7.097 -2.1994 -0.1167  0.7244
   29CHL1  H19C 2115   5.879   5.942   7.005  0.2891 -1.4024 -0.5979
   29CHL1    C1 2116   6.168   6.010   7.056  1.1074  0.5105  0.3133
   29CHL1   H1A 2117   6.159   6.120   7.072  0.8971  0.4572  0.5590
   29CHL1   H1B 2118   6.275   5.985   7.076  2.2606  1.5643 -3.6209
   29CHL1    C2 2119   6.158   5.993   6.906  0.6863 -0.1618 -0.7223
   29CHL1   H2A 2120   6.241   6.042   6.851  1.0993  0.9874  0.8218
   29CHL1   H2B 2121   6.067   6.041   6.866  0.8345 -0.1294 -1.0212
   29CHL1   C20 2122   6.050   5.977   7.831  0.1999  0.5507 -0.2162
   29CHL1   H20 2123   5.947   5.937   7.837  0.7305 -0.9689 -0.8069
   29CHL1   C21 2124   6.048   6.128   7.816 -0.6659  0.5200 -0.2338
   29CHL1  H21A 2125   5.992   6.151   7.723 -1.7088  1.9296  0.7136
   29CHL1  H21B 2126   6.149   6.173   7.807 -0.8881  1.1919  0.5656
   29CHL1  H21C 2127   5.981   6.167   7.896 -2.5798 -3.2050  0.2392
   29CHL1   C22 2128   6.121   5.939   7.963 -0.0192 -0.0200  0.2039
   29CHL1  H22A 2129   6.054   5.961   8.049 -0.6147 -1.8833  0.2497
   29CHL1  H22B 2130   6.136   5.830   7.974 -2.1967 -0.4190 -0.3926
   29CHL1   C23 2131   6.256   6.003   7.995 -0.1834 -0.0589  0.0367
   29CHL1  H23A 2132   6.327   5.975   7.914  1.1489  0.0242  1.1314
   29CHL1  H23B 2133   6.244   6.114   7.997  2.7141  0.3473 -0.4075
   29CHL1   C24 2134   6.325   5.964   8.124 -0.6585 -0.3956  0.1565
   29CHL1  H24A 2135   6.323   5.853   8.128  1.6484 -0.4987 -0.0379
   29CHL1  H24B 2136   6.434   5.986   8.121 -0.4700 -1.2668  0.1574
   29CHL1   C25 2137   6.259   6.018   8.253  0.2470  0.1254  0.7288
   29CHL1   H25 2138   6.151   5.995   8.243  0.4013 -0.5408  0.4906
   29CHL1   C26 2139   6.305   5.939   8.371 -0.2346  0.5144 -0.0498
   29CHL1  H26A 2140   6.246   5.973   8.458 -0.3690  3.7930 -1.3071
   29CHL1  H26B 2141   6.297   5.828   8.365 -2.4447  0.7175 -2.4724
   29CHL1  H26C 2142   6.409   5.964   8.401 -0.7133  1.1811  1.1254
   29CHL1   C27 2143   6.284   6.166   8.265  0.4467  0.3399 -0.2907
   29CHL1  H27A 2144   6.270   6.216   8.364 -0.7293  1.5007 -1.0128
   29CHL1  H27B 2145   6.386   6.189   8.228  1.0942 -2.3761 -0.4107
   29CHL1  H27C 2146   6.211   6.203   8.191 -0.9134 -0.2243  0.7145
   30CHL1    C3 2147   6.351   4.888   7.321 -0.4565  0.0106 -0.7006
   30CHL1    H3 2148   6.245   4.856   7.337 -0.2129  0.2037  1.5650
   30CHL1    O3 2149   6.370   4.916   7.183  0.1665 -0.4358 -0.8625
   30CHL1   H3' 2150   6.438   4.982   7.164 -1.8268  1.4444 -1.8876
   30CHL1    C4 2151   6.372   5.011   7.405 -0.1320 -0.2609  0.7745
   30CHL1   H4A 2152   6.449   5.082   7.368  0.2269 -0.0538  1.8589
   30CHL1   H4B 2153   6.275   5.063   7.394  0.2895  0.3993  0.0752
   30CHL1    C5 2154   6.400   4.999   7.550  0.1547 -0.7426  0.2395
   30CHL1    C6 2155   6.341   5.083   7.638 -0.6272  0.2910  0.1044
   30CHL1    H6 2156   6.278   5.166   7.601 -1.2014  0.7336  1.9216
   30CHL1    C7 2157   6.357   5.083   7.783  0.1377  0.0299  0.3209
   30CHL1   H7A 2158   6.365   5.188   7.818 -3.7121  1.5735 -2.7088
   30CHL1   H7B 2159   6.266   5.048   7.835 -0.2319 -0.3361 -0.5603
   30CHL1    C8 2160   6.476   4.994   7.828 -0.1677  0.1710  0.2221
   30CHL1    H8 2161   6.562   5.057   7.801 -0.9796  0.1103 -2.9040
   30CHL1   C14 2162   6.464   4.959   7.974 -0.0188  0.0695  0.2452
   30CHL1   H14 2163   6.368   4.903   7.977 -0.8157  1.4378  1.8064
   30CHL1   C15 2164   6.448   5.075   8.068  0.8610  0.2479  0.8827
   30CHL1  H15A 2165   6.523   5.154   8.047  2.3433 -1.0713  1.0169
   30CHL1  H15B 2166   6.343   5.109   8.053  0.6994 -1.5540 -3.5680
   30CHL1   C16 2167   6.460   4.996   8.201 -0.0292 -0.0476  0.2188
   30CHL1  H16A 2168   6.527   5.065   8.256 -1.3985  1.7268 -0.2233
   30CHL1  H16B 2169   6.380   4.978   8.276 -0.7115 -0.0093 -0.4900
   30CHL1   C17 2170   6.534   4.860   8.178  0.1620 -0.3238 -0.2240
   30CHL1   H17 2171   6.452   4.785   8.177 -0.4976  0.3675  0.7731
   30CHL1   C13 2172   6.578   4.870   8.030  0.1339 -0.3210  0.3118
   30CHL1   C18 2173   6.705   4.948   8.023 -0.2642  0.1942  0.5600
   30CHL1  H18A 2174   6.734   4.965   7.918 -2.4353  2.5679  0.2555
   30CHL1  H18B 2175   6.702   5.049   8.070 -0.1550  1.1225 -1.3412
   30CHL1  H18C 2176   6.794   4.897   8.068 -1.5230 -2.0772  0.6404
   30CHL1   C12 2177   6.592   4.734   7.944 -0.4869 -0.2097 -0.1596
   30CHL1  H12A 2178   6.695   4.699   7.967 -1.3691 -2.2195  0.9955
   30CHL1  H12B 2179   6.508   4.665   7.969 -2.7047  2.5851  0.6360
   30CHL1   C11 2180   6.600   4.760   7.793  0.3454  0.1440 -0.4717
   30CHL1  H11A 2181   6.696   4.804   7.760  0.1979  1.7137  1.0342
   30CHL1  H11B 2182   6.601   4.660   7.744  1.3549 -0.3377  0.4773
   30CHL1    C9 2183   6.484   4.860   7.738 -0.5873  0.0221 -0.9861
   30CHL1    H9 2184   6.387   4.813   7.766  1.7599 -3.4445  2.4671
   30CHL1   C10 2185   6.488   4.881   7.586 -0.8460  0.1085 -0.0808
   30CHL1   C19 2186   6.634   4.921   7.546 -0.4842  0.3391 -0.3129
   30CHL1  H19A 2187   6.674   5.006   7.606 -0.3230  0.7230 -0.9538
   30CHL1  H19B 2188   6.697   4.830   7.549 -0.3226  0.4263  2.6725
   30CHL1  H19C 2189   6.631   4.961   7.443  3.2668  2.6594  0.2755
   30CHL1    C1 2190   6.445   4.749   7.517  0.8856 -0.0895  0.3048
   30CHL1   H1A 2191   6.522   4.671   7.536  0.9055 -0.0188  0.5270
   30CHL1   H1B 2192   6.346   4.719   7.557  1.6853 -0.4755  2.0804
   30CHL1    C2 2193   6.435   4.764   7.366 -0.0006 -1.2291  0.2773
   30CHL1   H2A 2194   6.395   4.670   7.322 -1.0884 -1.2521  1.2699
   30CHL1   H2B 2195   6.536   4.776   7.322 -0.5572  1.3337 -0.4797
   30CHL1   C20 2196   6.642   4.826   8.278  0.0725 -0.9500  0.5674
   30CHL1   H20 2197   6.725   4.900   8.271  0.2595 -0.9538  2.3180
   30CHL1   C21 2198   6.719   4.690   8.244  0.3790  0.0424 -0.3300
   30CHL1  H21A 2199   6.771   4.701   8.147  1.2146  0.7454  0.1828
   30CHL1  H21B 2200   6.638   4.613   8.239 -0.7449  0.9818  1.7714
   30CHL1  H21C 2201   6.803   4.669   8.314  0.4832  1.4295 -0.0158
   30CHL1   C22 2202   6.597   4.822   8.422  0.2511  0.1903  0.3024
   30CHL1  H22A 2203   6.488   4.818   8.443 -0.0316  2.0939 -0.5955
   30CHL1  H22B 2204   6.650   4.735   8.466  0.2242 -0.1568 -0.3486
   30CHL1   C23 2205   6.644   4.946   8.507 -0.8663 -0.1898 -0.1333
   30CHL1  H23A 2206   6.755   4.935   8.505 -0.9956 -2.0307  0.4550
   30CHL1  H23B 2207   6.621   5.039   8.451 -0.7536 -2.0843 -3.6198
   30CHL1   C24 2208   6.593   4.944   8.648 -0.2418 -0.0673 -0.0409
   30CHL1  H24A 2209   6.486   4.918   8.657 -0.3444  0.2529 -0.3401
   30CHL1  H24B 2210   6.649   4.863   8.701 -0.6993 -0.2474  0.1696
   30CHL1   C25 2211   6.629   5.073   8.729 -0.8887 -0.0804 -0.0656
   30CHL1   H25 2212   6.577   5.157   8.679 -1.1238 -0.1514  0.0581
   30CHL1   C26 2213   6.565   5.072   8.869  0.7525 -0.2572 -0.3557
   30CHL1  H26A 2214   6.594   5.158   8.934 -0.2954 -1.2601  1.5568
   30CHL1  H26B 2215   6.456   5.074   8.892  0.3589 -2.0737 -1.8296
   30CHL1  H26C 2216   6.610   4.995   8.935  0.2547 -1.2548 -1.1427
   30CHL1   C27 2217   6.784   5.085   8.744  0.5384 -0.4014 -0.5814
   30CHL1  H27A 2218   6.808   5.142   8.837  0.0857  0.2265 -0.8495
   30CHL1  H27B 2219   6.828   4.983   8.750 -0.0770 -0.7000 -1.0980
   30CHL1  H27C 2220   6.835   5.139   8.661 -0.2434  2.6054  0.7709
   31CHL1    C3 2221   4.841   6.760   6.815 -0.1089 -0.0195  0.1881
   31CHL1    H3 2222   4.855   6.650   6.806  3.3143  0.4327 -1.3964
   31CHL1    O3 2223   4.816   6.819   6.685  0.0447  0.0589  0.4380
   31CHL1   H3' 2224   4.795   6.911   6.701  0.2568  0.8792 -3.1307
   31CHL1    C4 2225   4.716   6.789   6.899  0.3237 -0.2253  0.1202
   31CHL1   H4A 2226   4.693   6.897   6.886 -2.3059 -0.7517 -0.0660
   31CHL1   H4B 2227   4.638   6.728   6.850  1.0861  0.2448 -1.7407
   31CHL1    C5 2228   4.730   6.756   7.046 -0.4357  0.1877  0.3253
   31CHL1    C6 2229   4.651   6.670   7.101 -0.3293 -0.0556 -0.3040
   31CHL1    H6 2230   4.571   6.619   7.046 -0.4827 -0.2222  0.0675
   31CHL1    C7 2231   4.662   6.637   7.248 -0.8331  0.3961 -0.6637
   31CHL1   H7A 2232   4.559   6.649   7.288 -1.1133 -1.2488 -0.8389
   31CHL1   H7B 2233   4.684   6.530   7.267 -0.5777  0.0494 -2.7140
   31CHL1    C8 2234   4.749   6.730   7.337  0.4008 -0.0292 -0.5001
   31CHL1    H8 2235   4.698   6.827   7.352  1.8283  0.5101  1.0941
   31CHL1   C14 2236   4.772   6.678   7.475 -0.0283 -0.3191  0.9159
   31CHL1   H14 2237   4.815   6.576   7.467  0.3411 -0.0555 -1.0338
   31CHL1   C15 2238   4.646   6.659   7.556  0.0428 -0.0642 -0.2640
   31CHL1  H15A 2239   4.568   6.737   7.542 -0.9939 -1.1596 -0.7138
   31CHL1  H15B 2240   4.607   6.560   7.526  2.2882 -0.4209 -2.3373
   31CHL1   C16 2241   4.694   6.657   7.702 -0.5618 -0.3963 -0.0674
   31CHL1  H16A 2242   4.633   6.739   7.746 -2.1683 -0.1017 -2.6275
   31CHL1  H16B 2243   4.673   6.560   7.751 -0.5102 -0.1705  0.4086
   31CHL1   C17 2244   4.851   6.681   7.699  0.8757  0.0338  0.7273
   31CHL1   H17 2245   4.893   6.581   7.674 -0.9802 -0.8975  1.1669
   31CHL1   C13 2246   4.866   6.763   7.563  0.3297 -0.3892  0.1994
   31CHL1   C18 2247   4.809   6.912   7.588  0.1029  0.4459  0.6842
   31CHL1  H18A 2248   4.872   6.978   7.651 -0.2068  1.8843 -0.4475
   31CHL1  H18B 2249   4.806   6.965   7.491 -2.4143 -1.1440 -0.1995
   31CHL1  H18C 2250   4.702   6.912   7.617 -0.5610 -1.5671 -1.4765
   31CHL1   C12 2251   4.994   6.762   7.489 -1.0547  0.5503 -0.1499
   31CHL1  H12A 2252   5.069   6.819   7.547  0.6193  0.7053 -2.3042
   31CHL1  H12B 2253   5.033   6.658   7.484 -1.5273 -0.0154  4.4142
   31CHL1   C11 2254   4.991   6.817   7.344  0.1065  0.0438 -0.3671
   31CHL1  H11A 2255   4.983   6.928   7.343  0.2761  0.0872  0.8640
   31CHL1  H11B 2256   5.089   6.812   7.292  1.5486  0.8923  2.0889
   31CHL1    C9 2257   4.877   6.747   7.261 -0.1620 -0.2315  0.6284
   31CHL1    H9 2258   4.914   6.644   7.237  1.2276  0.1744  0.9421
   31CHL1   C10 2259   4.857   6.808   7.114 -0.0690  0.3103 -0.4880
   31CHL1   C19 2260   4.842   6.961   7.120 -0.1243  0.5354 -0.7682
   31CHL1  H19A 2261   4.940   7.005   7.149  1.0877 -1.3790 -1.7675
   31CHL1  H19B 2262   4.813   7.007   7.022 -0.0281  1.3505 -0.4268
   31CHL1  H19C 2263   4.753   6.989   7.180 -1.3243  0.0673 -2.2395
   31CHL1    C1 2264   4.976   6.779   7.018 -0.4684  0.5773 -0.2623
   31CHL1   H1A 2265   5.060   6.835   7.065 -2.2797  2.4768  0.9112
   31CHL1   H1B 2266   4.995   6.671   7.032  1.7989  1.1770  2.2597
   31CHL1    C2 2267   4.965   6.825   6.872  0.4402 -0.4633  0.2024
   31CHL1   H2A 2268   5.056   6.795   6.815  0.5338 -1.1314  0.6801
   31CHL1   H2B 2269   4.955   6.935   6.872  3.1248 -0.1187  2.3873
   31CHL1   C20 2270   4.898   6.736   7.824  0.0830  0.1136 -0.0355
   31CHL1   H20 2271   4.881   6.846   7.820  0.7460  0.3184  1.5763
   31CHL1   C21 2272   5.057   6.713   7.832  0.5610 -0.2514  0.0801
   31CHL1  H21A 2273   5.083   6.605   7.833  1.8875  0.0488  1.0570
   31CHL1  H21B 2274   5.105   6.760   7.920  0.2120  0.3900 -0.0717
   31CHL1  H21C 2275   5.102   6.757   7.741  1.1386 -0.7037  0.1441
   31CHL1   C22 2276   4.846   6.677   7.961  0.4835  0.0465  0.7924
   31CHL1  H22A 2277   4.743   6.640   7.945  0.9079 -0.5493 -0.7650
   31CHL1  H22B 2278   4.898   6.585   7.995 -0.0961 -0.2618  0.8546
   31CHL1   C23 2279   4.865   6.767   8.075 -0.3273  0.1102 -0.8978
   31CHL1  H23A 2280   4.963   6.818   8.073  0.4236 -1.1837  0.5889
   31CHL1  H23B 2281   4.794   6.851   8.056 -1.6588 -0.6174  0.6077
   31CHL1   C24 2282   4.816   6.707   8.206  0.7928 -0.5162 -0.9802
   31CHL1  H24A 2283   4.709   6.681   8.189  0.2296  1.9696 -1.5395
   31CHL1  H24B 2284   4.869   6.613   8.235 -0.9219 -1.3482 -0.3632
   31CHL1   C25 2285   4.821   6.796   8.329  0.3540  0.6783 -0.1996
   31CHL1   H25 2286   4.917   6.850   8.315  2.3267 -2.5529 -0.1465
   31CHL1   C26 2287   4.705   6.891   8.344 -0.2162  0.5030  0.3584
   31CHL1  H26A 2288   4.698   6.963   8.259 -0.1799  1.2825  1.0037
   31CHL1  H26B 2289   4.616   6.825   8.341  1.5959 -2.1040  0.6771
   31CHL1  H26C 2290   4.703   6.951   8.437  0.7775 -2.3612  2.3502
   31CHL1   C27 2291   4.848   6.726   8.459  0.2957  0.3702 -0.1920
   31CHL1  H27A 2292   4.844   6.811   8.530 -3.6342  0.6743 -0.5622
   31CHL1  H27B 2293   4.949   6.680   8.448  1.1391  2.3641 -1.3347
   31CHL1  H27C 2294   4.772   6.651   8.489  2.1565 -0.0571  4.2342
   32CHL1    C3 2295   4.689   4.309   7.057 -0.1852  0.7570 -0.8086
   32CHL1    H3 2296   4.750   4.251   7.129 -1.3283 -1.3952 -1.4710
   32CHL1    O3 2297   4.707   4.257   6.927 -0.6528  0.0508 -0.5972
   32CHL1   H3' 2298   4.662   4.316   6.866 -0.6031  1.0327  0.2929
   32CHL1    C4 2299   4.536   4.300   7.091 -0.2577  0.0828  0.6806
   32CHL1   H4A 2300   4.481   4.367   7.020 -0.0392  0.3636  0.7739
   32CHL1   H4B 2301   4.497   4.196   7.084 -0.7541  0.2282  1.2328
   32CHL1    C5 2302   4.520   4.349   7.229 -0.5390  0.3781  0.4992
   32CHL1    C6 2303   4.466   4.267   7.319  0.3715  0.6877  0.1440
   32CHL1    H6 2304   4.429   4.168   7.289  0.8330  0.2436  1.0143
   32CHL1    C7 2305   4.441   4.316   7.463  0.5903 -0.2052 -0.2084
   32CHL1   H7A 2306   4.335   4.293   7.488  0.4381  0.8771  0.2289
   32CHL1   H7B 2307   4.503   4.265   7.540 -0.6949 -0.2113  0.8602
   32CHL1    C8 2308   4.454   4.471   7.478  0.0789 -0.2351 -0.1644
   32CHL1    H8 2309   4.367   4.519   7.428 -0.9448  0.2368  1.9849
   32CHL1   C14 2310   4.464   4.498   7.625  0.2187 -0.7365 -0.1476
   32CHL1   H14 2311   4.550   4.438   7.661  0.8421 -0.6820 -1.4881
   32CHL1   C15 2312   4.342   4.458   7.716 -0.2894  0.2522 -0.2209
   32CHL1  H15A 2313   4.256   4.492   7.654  0.7369  0.1358 -1.7564
   32CHL1  H15B 2314   4.334   4.347   7.720  3.8063 -0.1372  1.5740
   32CHL1   C16 2315   4.365   4.532   7.846 -0.3972  0.3707  0.2398
   32CHL1  H16A 2316   4.265   4.574   7.874 -1.3713 -2.3371  1.1047
   32CHL1  H16B 2317   4.404   4.459   7.919  1.7449  0.0480 -1.1455
   32CHL1   C17 2318   4.487   4.628   7.824 -0.6530  0.5629  0.0904
   32CHL1   H17 2319   4.577   4.571   7.855  0.7981  2.2170 -0.8436
   32CHL1   C13 2320   4.492   4.642   7.671 -0.2187 -0.0240 -0.4725
   32CHL1   C18 2321   4.381   4.747   7.626  0.1835  0.0702  0.1104
   32CHL1  H18A 2322   4.420   4.850   7.643  1.4128 -0.3099 -0.3054
   32CHL1  H18B 2323   4.364   4.732   7.517  0.0799 -2.7403  0.4389
   32CHL1  H18C 2324   4.279   4.744   7.670  0.0509 -1.8639 -0.2424
   32CHL1   C12 2325   4.624   4.665   7.609 -0.5800 -0.7366  0.0572
   32CHL1  H12A 2326   4.668   4.764   7.636 -0.2252 -0.4339 -1.5267
   32CHL1  H12B 2327   4.693   4.590   7.653  0.1211 -0.0646  0.1412
   32CHL1   C11 2328   4.631   4.658   7.457  0.3057  0.3580 -0.4884
   32CHL1  H11A 2329   4.574   4.741   7.410 -1.8119 -0.0726  1.1699
   32CHL1  H11B 2330   4.737   4.663   7.426  0.6244  1.6504  0.7010
   32CHL1    C9 2331   4.580   4.518   7.409  0.4115 -0.0716 -0.1434
   32CHL1    H9 2332   4.659   4.456   7.457 -0.0221  0.4133  1.2421
   32CHL1   C10 2333   4.573   4.491   7.263 -0.0640  1.1221  0.5848
   32CHL1   C19 2334   4.480   4.591   7.192  0.7005  0.3458  0.2035
   32CHL1  H19A 2335   4.381   4.599   7.242  0.4095  1.4240 -0.5166
   32CHL1  H19B 2336   4.525   4.693   7.199 -0.4419  0.8554  0.3334
   32CHL1  H19C 2337   4.442   4.576   7.089 -1.9743  2.6355  0.7318
   32CHL1    C1 2338   4.714   4.504   7.207  0.2575  0.4319 -0.3187
   32CHL1   H1A 2339   4.749   4.608   7.224 -0.7571  0.8841 -0.9078
   32CHL1   H1B 2340   4.785   4.443   7.266 -1.4162 -0.1514  1.1519
   32CHL1    C2 2341   4.738   4.453   7.066 -0.1165 -0.0370 -0.2434
   32CHL1   H2A 2342   4.844   4.460   7.035  0.3270  0.6858  1.3679
   32CHL1   H2B 2343   4.685   4.514   6.989  1.2630 -0.0683 -1.2552
   32CHL1   C20 2344   4.484   4.743   7.919  0.0392 -0.1573 -0.7990
   32CHL1   H20 2345   4.399   4.813   7.900  0.2274  0.8591  1.7957
   32CHL1   C21 2346   4.617   4.822   7.902  0.1336 -0.0497  0.3626
   32CHL1  H21A 2347   4.701   4.762   7.862  0.8010 -1.4072  3.5124
   32CHL1  H21B 2348   4.647   4.859   8.003  0.7161 -1.6921  0.8262
   32CHL1  H21C 2349   4.598   4.915   7.844 -0.4659  0.6785  1.6617
   32CHL1   C22 2350   4.462   4.708   8.065 -0.4932 -0.4579 -0.4232
   32CHL1  H22A 2351   4.477   4.805   8.116 -0.0402 -0.1176 -1.1795
   32CHL1  H22B 2352   4.358   4.673   8.080 -1.1109  1.7352  0.8015
   32CHL1   C23 2353   4.563   4.599   8.128 -0.1162 -0.4597  0.1261
   32CHL1  H23A 2354   4.516   4.499   8.116  1.6763 -1.5443  1.5977
   32CHL1  H23B 2355   4.657   4.603   8.069  2.3623  1.5878  3.7816
   32CHL1   C24 2356   4.587   4.642   8.271  0.1576 -0.2320 -0.4274
   32CHL1  H24A 2357   4.671   4.574   8.299  1.4795  1.8418  0.9797
   32CHL1  H24B 2358   4.627   4.746   8.276  0.5882 -0.3997  3.6336
   32CHL1   C25 2359   4.479   4.617   8.375  0.0945 -0.1916  0.9627
   32CHL1   H25 2360   4.392   4.661   8.322  1.0283 -1.1728 -1.4972
   32CHL1   C26 2361   4.437   4.468   8.393 -0.3850  0.0808  0.6842
   32CHL1  H26A 2362   4.514   4.405   8.443  1.2021  1.4180  0.0221
   32CHL1  H26B 2363   4.348   4.456   8.459  1.0830 -2.0811  2.4296
   32CHL1  H26C 2364   4.416   4.420   8.295  1.6391 -0.3924  0.4366
   32CHL1   C27 2365   4.509   4.691   8.509 -0.1017  0.2494  0.3216
   32CHL1  H27A 2366   4.416   4.703   8.568  0.4203  0.4130  1.1212
   32CHL1  H27B 2367   4.581   4.632   8.570 -0.8899  0.8053  1.8406
   32CHL1  H27C 2368   4.558   4.787   8.482 -2.3935  0.9384 -1.7748
   33CHL1    C3 2369   1.062   0.245   6.811 -0.2921 -0.2868  0.1055
   33CHL1    H3 2370   1.160   0.240   6.865  0.4108 -0.8942 -1.1943
   33CHL1    O3 2371   1.090   0.224   6.670 -0.2018  0.9321 -0.5721
   33CHL1   H3' 2372   1.018   0.260   6.619  1.1362  3.2061 -0.9804
   33CHL1    C4 2373   0.986   0.129   6.872 -0.1536 -0.3436  0.5958
   33CHL1   H4A 2374   0.894   0.126   6.811  0.8356  1.6300 -1.0882
   33CHL1   H4B 2375   1.040   0.038   6.839  0.8194 -0.4604  2.3709
   33CHL1    C5 2376   0.964   0.144   7.027 -0.8654  0.7085 -0.1748
   33CHL1    C6 2377   1.018   0.055   7.113 -0.2834 -0.1088 -0.1690
   33CHL1    H6 2378   1.083  -0.023   7.071  0.8636  0.2561  0.8749
   33CHL1    C7 2379   1.025   0.070   7.256  0.9525 -0.1508 -0.5049
   33CHL1   H7A 2380   1.019  -0.025   7.313  1.2950 -0.0291 -0.2625
   33CHL1   H7B 2381   1.124   0.114   7.277 -0.2204  1.4233  2.3751
   33CHL1    C8 2382   0.920   0.181   7.305  0.3691  0.0383 -0.3039
   33CHL1    H8 2383   0.829   0.122   7.282  1.9415 -1.7850 -2.3116
   33CHL1   C14 2384   0.937   0.209   7.456 -0.6437 -0.1000 -0.2476
   33CHL1   H14 2385   1.040   0.248   7.466 -1.0758  1.5905 -1.9566
   33CHL1   C15 2386   0.933   0.081   7.550  0.0140  0.0554  0.0043
   33CHL1  H15A 2387   0.842   0.027   7.515  0.7431 -2.1709  1.3556
   33CHL1  H15B 2388   1.025   0.021   7.536 -2.2383 -3.0736 -3.1270
   33CHL1   C16 2389   0.915   0.150   7.687  0.3040 -0.2514  0.0868
   33CHL1  H16A 2390   0.831   0.098   7.737 -0.7583 -0.2718 -1.6551
   33CHL1  H16B 2391   1.010   0.143   7.745  1.2065  2.8005 -0.8379
   33CHL1   C17 2392   0.882   0.299   7.668  0.0139 -0.4221 -0.3744
   33CHL1   H17 2393   0.973   0.363   7.662 -0.2614 -0.0322 -0.4850
   33CHL1   C13 2394   0.838   0.316   7.522  0.8560 -0.5361 -0.1655
   33CHL1   C18 2395   0.691   0.275   7.505 -0.8338 -0.2487  0.0472
   33CHL1  H18A 2396   0.686   0.246   7.398  0.5747  0.9181 -0.3747
   33CHL1  H18B 2397   0.676   0.179   7.559  0.0393 -2.3219 -3.1358
   33CHL1  H18C 2398   0.627   0.360   7.537  0.1450  0.1283  1.1023
   33CHL1   C12 2399   0.867   0.446   7.436  0.5214  0.0747 -0.3765
   33CHL1  H12A 2400   0.799   0.527   7.470  0.6520  0.3229 -0.7009
   33CHL1  H12B 2401   0.972   0.474   7.457  0.0786  0.3736  1.6280
   33CHL1   C11 2402   0.835   0.432   7.290 -0.6966 -0.0076 -0.3136
   33CHL1  H11A 2403   0.727   0.407   7.282 -1.4784  2.4535  1.4554
   33CHL1  H11B 2404   0.844   0.532   7.243 -0.7393  0.1404 -0.0101
   33CHL1    C9 2405   0.923   0.312   7.229  0.4598 -0.3806 -0.4205
   33CHL1    H9 2406   1.030   0.342   7.239  1.2586 -2.7933 -0.7960
   33CHL1   C10 2407   0.908   0.282   7.076  0.0761  0.0410 -0.1640
   33CHL1   C19 2408   0.752   0.276   7.043  0.2596 -0.1575 -1.1428
   33CHL1  H19A 2409   0.708   0.377   7.059  0.3516 -0.1235 -1.1057
   33CHL1  H19B 2410   0.732   0.255   6.936  1.0468 -1.2008 -1.0995
   33CHL1  H19C 2411   0.694   0.208   7.109  0.4025  2.5712  2.1280
   33CHL1    C1 2412   0.987   0.394   6.999  0.3157 -0.2297  0.4776
   33CHL1   H1A 2413   0.931   0.488   7.018  1.3650  0.3956  0.5694
   33CHL1   H1B 2414   1.092   0.407   7.034  1.2997  1.2082 -2.5622
   33CHL1    C2 2415   0.991   0.376   6.843 -1.0811 -0.1206  0.0693
   33CHL1   H2A 2416   1.035   0.470   6.802 -1.1981 -0.3546 -0.6069
   33CHL1   H2B 2417   0.887   0.374   6.803 -0.5940 -1.3865 -1.2078
   33CHL1   C20 2418   0.812   0.365   7.789 -0.4020 -1.1454  0.3360
   33CHL1   H20 2419   0.702   0.348   7.783 -0.5306 -0.2051 -0.2014
   33CHL1   C21 2420   0.828   0.522   7.779 -0.0224 -1.0075 -0.7250
   33CHL1  H21A 2421   0.937   0.545   7.771 -0.2978  2.1032  2.1879
   33CHL1  H21B 2422   0.785   0.577   7.865  0.4107  0.4390 -1.3949
   33CHL1  H21C 2423   0.786   0.571   7.689 -0.1117  2.1096  0.9067
   33CHL1   C22 2424   0.853   0.310   7.927  0.2515 -0.0397 -0.9414
   33CHL1  H22A 2425   0.788   0.360   8.002 -1.2321  0.5835 -2.5729
   33CHL1  H22B 2426   0.828   0.205   7.948  0.8400 -0.0048 -0.0300
   33CHL1   C23 2427   1.003   0.323   7.967 -0.3708  0.2568  0.1798
   33CHL1  H23A 2428   1.043   0.220   7.960 -1.0579  0.0895 -3.4699
   33CHL1  H23B 2429   1.053   0.378   7.884  0.0277  0.8328  0.7903
   33CHL1   C24 2430   1.028   0.381   8.106  0.1123  0.5622  0.0732
   33CHL1  H24A 2431   0.993   0.299   8.173 -0.7243  0.3971 -0.5476
   33CHL1  H24B 2432   1.139   0.386   8.110  0.1030  2.4225 -0.7212
   33CHL1   C25 2433   0.964   0.520   8.140  0.0067  0.3742  0.2593
   33CHL1   H25 2434   0.855   0.518   8.117 -0.2149  2.2293  0.9614
   33CHL1   C26 2435   0.967   0.534   8.291 -0.5133  0.3115 -0.0705
   33CHL1  H26A 2436   0.918   0.440   8.324  1.6720 -1.3435 -1.2168
   33CHL1  H26B 2437   1.070   0.526   8.332  1.1763 -1.6548 -4.1484
   33CHL1  H26C 2438   0.915   0.630   8.309 -2.8137 -0.2716 -2.7848
   33CHL1   C27 2439   1.025   0.639   8.064  0.3390 -0.5682  0.0981
   33CHL1  H27A 2440   0.987   0.737   8.100  1.3629  0.0712 -0.5012
   33CHL1  H27B 2441   1.133   0.627   8.091  0.5610 -0.8325 -0.8886
   33CHL1  H27C 2442   1.013   0.621   7.955 -0.9699  1.4291 -0.1237
   34CHL1    C3 2443   3.024   3.346   6.987  0.0925 -0.6173  0.1936
   34CHL1    H3 2444   3.130   3.372   7.009 -0.6322  1.2947  1.7330
   34CHL1    O3 2445   3.020   3.361   6.846  0.2455 -0.0431  0.4999
   34CHL1   H3' 2446   3.027   3.456   6.833 -0.5214  0.1328  1.2601
   34CHL1    C4 2447   2.988   3.209   7.021  0.4154  0.8610 -0.8273
   34CHL1   H4A 2448   2.884   3.178   6.994  0.2777 -0.8524  1.3557
   34CHL1   H4B 2449   3.059   3.141   6.970  2.2691  1.5627  0.6827
   34CHL1    C5 2450   2.991   3.196   7.174 -0.8677 -0.6316 -0.1523
   34CHL1    C6 2451   3.082   3.123   7.235  0.0310  0.6392  0.1288
   34CHL1    H6 2452   3.157   3.066   7.178 -1.8968 -0.8082 -1.0701
   34CHL1    C7 2453   3.077   3.080   7.372 -0.2431 -0.0398 -0.0821
   34CHL1   H7A 2454   3.103   2.973   7.381 -2.4611 -0.4742  2.1019
   34CHL1   H7B 2455   3.158   3.140   7.419 -0.6229 -0.3642  1.0294
   34CHL1    C8 2456   2.948   3.126   7.444 -0.2298  0.8171  0.1692
   34CHL1    H8 2457   2.866   3.060   7.408 -0.9799  1.2377  1.0737
   34CHL1   C14 2458   2.972   3.113   7.594 -0.6603  0.3818 -0.4884
   34CHL1   H14 2459   3.055   3.185   7.614 -1.2483  0.8037  0.4967
   34CHL1   C15 2460   3.007   2.978   7.653 -0.6634  1.1554 -0.6653
   34CHL1  H15A 2461   2.933   2.898   7.633 -0.9518  0.7836  1.6209
   34CHL1  H15B 2462   3.101   2.932   7.614  0.2567  3.5131 -1.4318
   34CHL1   C16 2463   3.005   3.002   7.798  0.2074 -0.1239 -0.0480
   34CHL1  H16A 2464   2.954   2.913   7.840  0.0953  0.0128  0.1097
   34CHL1  H16B 2465   3.101   3.033   7.844 -0.5925  1.0583  0.9278
   34CHL1   C17 2466   2.917   3.135   7.813 -0.0230  0.9402  0.0622
   34CHL1   H17 2467   3.000   3.207   7.830  2.1544 -1.3470 -0.2162
   34CHL1   C13 2468   2.859   3.174   7.673 -0.6878  0.6339 -0.3991
   34CHL1   C18 2469   2.726   3.083   7.647 -0.6300 -0.6115 -0.5227
   34CHL1  H18A 2470   2.641   3.124   7.705  0.6508  0.2396  0.8113
   34CHL1  H18B 2471   2.694   3.084   7.540 -1.2403  0.4138 -0.3420
   34CHL1  H18C 2472   2.754   2.983   7.687  0.6043 -0.8170 -1.8019
   34CHL1   C12 2473   2.848   3.323   7.638  0.4395 -0.2559  1.1405
   34CHL1  H12A 2474   2.775   3.372   7.706  1.0881 -1.4786  2.8078
   34CHL1  H12B 2475   2.946   3.371   7.658  0.1464 -0.4075  3.2849
   34CHL1   C11 2476   2.814   3.343   7.489  0.4632  0.0460  0.2383
   34CHL1  H11A 2477   2.712   3.300   7.478  0.2082 -0.2374  2.9842
   34CHL1  H11B 2478   2.796   3.451   7.467  0.5529 -0.5286 -3.3418
   34CHL1    C9 2479   2.918   3.275   7.403  0.9893 -0.3395 -0.0126
   34CHL1    H9 2480   3.018   3.318   7.426  0.9290 -0.9784  1.6048
   34CHL1   C10 2481   2.885   3.276   7.254 -0.7680  0.8109  0.1335
   34CHL1   C19 2482   2.740   3.231   7.229  0.3550 -0.1529  0.4429
   34CHL1  H19A 2483   2.676   3.319   7.250 -1.1088 -0.9136 -0.6233
   34CHL1  H19B 2484   2.717   3.191   7.128 -0.7229 -0.6790  0.8819
   34CHL1  H19C 2485   2.702   3.148   7.293 -0.1626 -0.7569 -0.6165
   34CHL1    C1 2486   2.909   3.422   7.200 -0.1760  0.3975  0.4753
   34CHL1   H1A 2487   2.818   3.479   7.229  0.8891  1.7547  1.3275
   34CHL1   H1B 2488   2.996   3.457   7.259  2.1325 -1.7096 -1.4673
   34CHL1    C2 2489   2.929   3.449   7.052  0.5452  0.1280  0.4266
   34CHL1   H2A 2490   2.967   3.551   7.033  0.9915 -0.2084 -0.5279
   34CHL1   H2B 2491   2.832   3.420   7.006  1.7340 -2.6814 -0.5557
   34CHL1   C20 2492   2.824   3.138   7.932 -0.1296 -0.1456  0.5922
   34CHL1   H20 2493   2.741   3.066   7.914 -0.1610 -0.5199  2.0609
   34CHL1   C21 2494   2.749   3.274   7.946 -0.1368 -0.9179 -0.4044
   34CHL1  H21A 2495   2.831   3.349   7.952  0.6586 -1.8784  3.3013
   34CHL1  H21B 2496   2.695   3.285   8.043 -0.3403  1.8435 -0.7453
   34CHL1  H21C 2497   2.678   3.290   7.862 -0.0064  1.0249 -0.1776
   34CHL1   C22 2498   2.891   3.087   8.065  0.2196  0.2201 -0.3165
   34CHL1  H22A 2499   2.816   3.090   8.147 -0.8109 -1.2930 -1.1448
   34CHL1  H22B 2500   2.901   2.976   8.063 -1.6187  0.0309 -1.3969
   34CHL1   C23 2501   3.008   3.161   8.117 -0.2656 -0.2758  0.0868
   34CHL1  H23A 2502   3.101   3.119   8.074 -0.7788 -0.2859 -1.0506
   34CHL1  H23B 2503   3.007   3.265   8.076  1.5831 -0.9473 -1.8061
   34CHL1   C24 2504   3.033   3.166   8.270  0.4078 -0.3191  0.6679
   34CHL1  H24A 2505   2.993   3.073   8.317 -0.6180 -1.7854 -2.7995
   34CHL1  H24B 2506   3.142   3.179   8.288  0.0277 -0.0741  3.2571
   34CHL1   C25 2507   2.975   3.297   8.340  0.3401  0.4013 -0.2159
   34CHL1   H25 2508   3.020   3.387   8.292 -4.1837  2.5039 -1.0045
   34CHL1   C26 2509   2.822   3.318   8.317 -0.0811  0.1626  0.8162
   34CHL1  H26A 2510   2.767   3.228   8.351  0.3780 -1.6670 -2.8811
   34CHL1  H26B 2511   2.790   3.411   8.369  1.3692  0.8068  0.6286
   34CHL1  H26C 2512   2.798   3.335   8.210 -0.5176  1.0178  1.0359
   34CHL1   C27 2513   3.021   3.294   8.488 -0.3555 -0.1366 -0.1591
   34CHL1  H27A 2514   3.119   3.242   8.497  0.0482  0.6765  0.3205
   34CHL1  H27B 2515   3.031   3.396   8.532  0.0414 -1.0091  1.8923
   34CHL1  H27C 2516   2.948   3.239   8.551  0.6410  1.3287  2.4744
   35CHL1    C3 2517   3.855   0.493   7.212  0.0413 -0.5606  0.5574
   35CHL1    H3 2518   3.755   0.445   7.211 -0.0962 -0.2917  0.9518
   35CHL1    O3 2519   3.893   0.497   7.071  0.3589 -0.7467  0.1490
   35CHL1   H3' 2520   3.923   0.407   7.057 -0.8136 -0.9530 -1.2743
   35CHL1    C4 2521   3.839   0.641   7.274 -0.5919 -0.5513  0.4262
   35CHL1   H4A 2522   3.938   0.682   7.243 -1.5090  1.1175 -0.4679
   35CHL1   H4B 2523   3.760   0.698   7.221 -0.0124  0.1241  0.2744
   35CHL1    C5 2524   3.822   0.652   7.420  0.0642  0.6692 -0.5189
   35CHL1    C6 2525   3.719   0.714   7.473  0.3346 -0.2348  0.0508
   35CHL1    H6 2526   3.647   0.759   7.403  0.2526 -2.4226 -1.3743
   35CHL1    C7 2527   3.697   0.731   7.627 -0.9572  0.3542  0.2218
   35CHL1   H7A 2528   3.678   0.839   7.646  0.9647  0.3993  2.4091
   35CHL1   H7B 2529   3.610   0.669   7.657  1.6290 -3.6993  0.0740
   35CHL1    C8 2530   3.822   0.692   7.704  0.8897  0.4957 -0.5428
   35CHL1    H8 2531   3.893   0.777   7.694 -1.1813  2.3739 -0.0477
   35CHL1   C14 2532   3.790   0.679   7.854  0.2970  0.0602  0.4629
   35CHL1   H14 2533   3.714   0.598   7.864 -1.0126  1.0730 -0.7747
   35CHL1   C15 2534   3.732   0.790   7.941  0.4092 -0.3816  0.4301
   35CHL1  H15A 2535   3.782   0.884   7.912 -0.3781 -0.2813 -0.6717
   35CHL1  H15B 2536   3.623   0.801   7.920  0.0992 -0.1959  2.0179
   35CHL1   C16 2537   3.763   0.760   8.081  0.4168 -0.3994 -0.1620
   35CHL1  H16A 2538   3.806   0.847   8.135  4.0687 -2.2035  0.1382
   35CHL1  H16B 2539   3.674   0.724   8.136  0.9921 -1.8861 -0.1720
   35CHL1   C17 2540   3.864   0.644   8.089 -0.8715  0.1092  0.4836
   35CHL1   H17 2541   3.799   0.555   8.096  0.2138 -0.7081  0.4276
   35CHL1   C13 2542   3.911   0.641   7.938  0.7615  0.0830 -0.8895
   35CHL1   C18 2543   4.028   0.748   7.921  0.3478 -0.8109  0.4342
   35CHL1  H18A 2544   4.057   0.758   7.815  0.9559  1.0349  0.7478
   35CHL1  H18B 2545   4.010   0.847   7.968  0.6726  0.0387 -1.1558
   35CHL1  H18C 2546   4.122   0.721   7.975  0.2895 -1.0204  0.4328
   35CHL1   C12 2547   3.949   0.501   7.893  0.5487  0.2597  0.2385
   35CHL1  H12A 2548   4.038   0.475   7.954  2.4324  0.9478 -2.0546
   35CHL1  H12B 2549   3.865   0.428   7.896 -2.0477  3.0949  0.6065
   35CHL1   C11 2550   3.995   0.503   7.749 -0.1556 -0.8269  0.0251
   35CHL1  H11A 2551   4.093   0.555   7.742 -0.2451 -0.4083  1.4330
   35CHL1  H11B 2552   3.998   0.395   7.721  1.0822 -1.4485  2.2536
   35CHL1    C9 2553   3.883   0.566   7.655 -0.1324  0.1052  0.5838
   35CHL1    H9 2554   3.801   0.492   7.655  0.7044 -0.8553 -0.1067
   35CHL1   C10 2555   3.924   0.576   7.505  0.3093 -0.8309 -0.3464
   35CHL1   C19 2556   4.057   0.651   7.496  1.0074 -0.0662 -0.0660
   35CHL1  H19A 2557   4.041   0.757   7.526 -0.3945 -0.6015  1.1715
   35CHL1  H19B 2558   4.143   0.615   7.556  1.3754  0.6748 -0.1361
   35CHL1  H19C 2559   4.100   0.649   7.393  0.0881 -0.7412 -0.4492
   35CHL1    C1 2560   3.932   0.428   7.448  0.6400 -0.0663 -0.1185
   35CHL1   H1A 2561   4.017   0.381   7.503  1.2010  0.4313 -0.5478
   35CHL1   H1B 2562   3.841   0.375   7.482 -0.0155  0.8511 -0.4171
   35CHL1    C2 2563   3.961   0.419   7.299  0.0820  0.1215 -0.0063
   35CHL1   H2A 2564   3.973   0.313   7.268  2.6369  0.3127  0.0852
   35CHL1   H2B 2565   4.054   0.474   7.272 -0.2191 -0.1684 -1.7670
   35CHL1   C20 2566   3.969   0.651   8.212  0.1157 -1.1709  0.0643
   35CHL1   H20 2567   4.061   0.707   8.183  0.6363 -1.3220  1.3846
   35CHL1   C21 2568   4.016   0.507   8.245 -0.6490 -0.0637 -0.2380
   35CHL1  H21A 2569   4.098   0.512   8.320 -1.2631  0.7711  0.3917
   35CHL1  H21B 2570   4.063   0.461   8.156  1.0445  0.9731  0.0783
   35CHL1  H21C 2571   3.932   0.445   8.284 -0.5074  0.5912  1.1917
   35CHL1   C22 2572   3.916   0.719   8.340 -0.1316 -0.1580  0.4756
   35CHL1  H22A 2573   3.892   0.826   8.322 -0.9067 -0.3426  0.3755
   35CHL1  H22B 2574   3.821   0.673   8.375 -0.8940 -0.2127 -1.5394
   35CHL1   C23 2575   4.012   0.720   8.457 -0.7219 -0.6354  0.6146
   35CHL1  H23A 2576   3.968   0.755   8.552  2.6403 -1.8134  2.7980
   35CHL1  H23B 2577   4.050   0.618   8.482  1.2199  0.4745  2.5464
   35CHL1   C24 2578   4.151   0.797   8.434  0.8537 -0.2125  0.2836
   35CHL1  H24A 2579   4.205   0.784   8.337  1.7003  1.5938  0.4755
   35CHL1  H24B 2580   4.125   0.904   8.417 -1.0261 -0.6524  0.2157
   35CHL1   C25 2581   4.254   0.808   8.545  0.2815 -0.8184 -0.3278
   35CHL1   H25 2582   4.341   0.852   8.493  0.4109 -0.4360  0.2029
   35CHL1   C26 2583   4.204   0.909   8.655 -0.3713  0.0663  0.9906
   35CHL1  H26A 2584   4.275   0.910   8.740 -1.2825  1.0285  1.7556
   35CHL1  H26B 2585   4.207   1.013   8.615  0.3638 -1.0225 -2.0389
   35CHL1  H26C 2586   4.107   0.878   8.698 -1.9553  1.6400 -1.2096
   35CHL1   C27 2587   4.289   0.678   8.614 -0.1797 -0.3751 -0.9558
   35CHL1  H27A 2588   4.332   0.606   8.541  0.9789 -0.4707 -0.2071
   35CHL1  H27B 2589   4.207   0.625   8.665  0.8468 -0.8750  0.2183
   35CHL1  H27C 2590   4.354   0.701   8.701 -0.0253 -1.2105 -0.8510
   36CHL1    C3 2591   4.847   5.690   7.152  1.2728  0.0900  0.4360
   36CHL1    H3 2592   4.758   5.633   7.186  2.2798 -0.4177  2.3211
   36CHL1    O3 2593   4.835   5.708   7.012  0.0858  0.2152  0.5980
   36CHL1   H3' 2594   4.921   5.680   6.980 -1.0620 -2.0030 -0.8405
   36CHL1    C4 2595   4.849   5.825   7.216  0.3561  0.6274 -1.1065
   36CHL1   H4A 2596   4.935   5.880   7.172  0.3396 -0.9894 -3.3616
   36CHL1   H4B 2597   4.771   5.902   7.199  1.5892  2.3537  0.7042
   36CHL1    C5 2598   4.868   5.811   7.367  0.1570  0.1840  0.4577
   36CHL1    C6 2599   4.783   5.870   7.457  0.1433 -0.3453  0.0241
   36CHL1    H6 2600   4.691   5.917   7.419  0.1656  1.0267  1.5716
   36CHL1    C7 2601   4.806   5.864   7.606  0.0227  1.2633 -0.2520
   36CHL1   H7A 2602   4.795   5.962   7.657 -2.1351  1.1801 -0.4431
   36CHL1   H7B 2603   4.734   5.798   7.659 -0.9710  2.9726  0.6262
   36CHL1    C8 2604   4.943   5.807   7.650  0.5842 -0.0725  0.5637
   36CHL1    H8 2605   5.017   5.889   7.641  0.1975  0.4714  1.9670
   36CHL1   C14 2606   4.929   5.758   7.793  0.1761 -0.2045 -0.5485
   36CHL1   H14 2607   4.853   5.678   7.784 -1.4729  1.2016  0.2859
   36CHL1   C15 2608   4.868   5.849   7.898  0.5259 -0.3091 -0.3966
   36CHL1  H15A 2609   4.910   5.950   7.884  0.7526 -0.5504 -1.5583
   36CHL1  H15B 2610   4.757   5.851   7.893  0.3775 -3.0286 -0.0204
   36CHL1   C16 2611   4.904   5.770   8.026 -0.0579  0.3106 -0.5821
   36CHL1  H16A 2612   4.948   5.841   8.099 -1.9384  0.4328  0.4806
   36CHL1  H16B 2613   4.817   5.722   8.075 -0.2140  1.7740  0.6549
   36CHL1   C17 2614   5.006   5.657   7.986  0.2144  0.1578 -0.6938
   36CHL1   H17 2615   4.948   5.563   7.975 -2.3046  1.1985  2.3068
   36CHL1   C13 2616   5.056   5.705   7.848 -0.1171  0.5697 -0.3800
   36CHL1   C18 2617   5.164   5.808   7.863  0.0057 -0.9930 -0.5193
   36CHL1  H18A 2618   5.114   5.892   7.916 -2.2161 -1.4993 -1.7010
   36CHL1  H18B 2619   5.253   5.772   7.919 -0.5159 -0.8791  0.4115
   36CHL1  H18C 2620   5.203   5.845   7.766 -0.7483 -0.7965 -0.7536
   36CHL1   C12 2621   5.109   5.591   7.769  0.2864 -0.1764 -1.3267
   36CHL1  H12A 2622   5.214   5.578   7.801  0.0188 -0.8138 -0.6925
   36CHL1  H12B 2623   5.051   5.498   7.785  0.0662  0.3532  1.4177
   36CHL1   C11 2624   5.110   5.612   7.612  0.3311 -1.7118 -0.3723
   36CHL1  H11A 2625   5.208   5.661   7.595  0.8597 -1.9705  1.5863
   36CHL1  H11B 2626   5.106   5.513   7.561  0.6620 -1.8436 -0.1450
   36CHL1    C9 2627   4.976   5.688   7.560  0.1801 -0.0515  0.2758
   36CHL1    H9 2628   4.898   5.609   7.563 -0.1985  0.2327 -1.2310
   36CHL1   C10 2629   4.986   5.726   7.404 -0.1646  0.5830  0.7217
   36CHL1   C19 2630   5.109   5.810   7.380  0.1682  0.9625  0.4172
   36CHL1  H19A 2631   5.188   5.733   7.391 -1.3158 -0.7382 -0.2626
   36CHL1  H19B 2632   5.119   5.858   7.281  1.3458 -3.0984 -1.6774
   36CHL1  H19C 2633   5.119   5.888   7.457  1.4766 -0.1808  1.4649
   36CHL1    C1 2634   4.993   5.592   7.324 -0.5077 -0.0869 -0.1122
   36CHL1   H1A 2635   5.081   5.533   7.355 -0.8243 -0.0436  0.9278
   36CHL1   H1B 2636   4.902   5.537   7.358 -0.0834 -0.0234  1.1857
   36CHL1    C2 2637   4.975   5.608   7.182  0.6840 -0.6300  0.1022
   36CHL1   H2A 2638   4.971   5.508   7.134  2.0024 -1.2652  1.2226
   36CHL1   H2B 2639   5.065   5.663   7.145 -0.1005 -0.6220 -1.9053
   36CHL1   C20 2640   5.100   5.639   8.102  0.0249 -0.1359  0.5025
   36CHL1   H20 2641   5.130   5.744   8.123  0.3405 -0.1734  0.2528
   36CHL1   C21 2642   5.216   5.538   8.069 -0.2185  0.1307  0.1573
   36CHL1  H21A 2643   5.271   5.505   8.160 -0.2087  0.2797  0.2063
   36CHL1  H21B 2644   5.296   5.581   8.004 -0.1760 -0.3302 -0.0978
   36CHL1  H21C 2645   5.170   5.459   8.007 -3.6160  2.3751 -0.4311
   36CHL1   C22 2646   5.027   5.594   8.232  0.8002 -0.0565  0.0525
   36CHL1  H22A 2647   4.941   5.662   8.252  0.0428 -1.0214  0.1125
   36CHL1  H22B 2648   4.981   5.495   8.217  0.2509  0.5008 -2.3528
   36CHL1   C23 2649   5.103   5.584   8.360 -0.1577 -0.4982 -0.0768
   36CHL1  H23A 2650   5.193   5.520   8.345 -1.0392 -1.3408 -2.0901
   36CHL1  H23B 2651   5.134   5.681   8.405  0.6695  0.0647 -1.7605
   36CHL1   C24 2652   5.022   5.505   8.464  0.7203 -0.1372 -1.7026
   36CHL1  H24A 2653   4.927   5.558   8.486  1.6185  0.9079 -0.1653
   36CHL1  H24B 2654   4.997   5.402   8.431 -0.8941  0.1642 -1.5174
   36CHL1   C25 2655   5.097   5.498   8.599 -0.3340 -0.0897 -0.4107
   36CHL1   H25 2656   5.117   5.602   8.632 -0.2313  0.1612 -1.2405
   36CHL1   C26 2657   5.010   5.441   8.706  0.3621  0.5906 -0.6664
   36CHL1  H26A 2658   5.061   5.407   8.799  0.5362 -1.1983 -1.3806
   36CHL1  H26B 2659   4.925   5.506   8.734 -2.4871 -3.4349  1.0417
   36CHL1  H26C 2660   4.967   5.344   8.673  0.1002  0.6723 -0.5664
   36CHL1   C27 2661   5.227   5.417   8.585 -0.1202  0.4831  0.1460
   36CHL1  H27A 2662   5.311   5.480   8.547 -0.1181 -0.2463 -1.1020
   36CHL1  H27B 2663   5.271   5.386   8.682 -0.1583  0.9035  0.2986
   36CHL1  H27C 2664   5.210   5.326   8.523 -1.3718  0.0490  1.0838
   37CHL1    C3 2665   1.355   1.469   6.943  0.4554  0.3362 -0.3071
   37CHL1    H3 2666   1.245   1.474   6.958  0.7204 -0.3254  2.2570
   37CHL1    O3 2667   1.396   1.478   6.811  0.7302  0.1815  0.7043
   37CHL1   H3' 2668   1.373   1.395   6.770 -0.5090  1.0625 -0.4787
   37CHL1    C4 2669   1.421   1.586   7.021 -0.3878 -0.4197 -0.1724
   37CHL1   H4A 2670   1.531   1.597   7.010  0.0032 -2.4151  1.3058
   37CHL1   H4B 2671   1.385   1.679   6.972 -1.5442 -0.9197 -0.2920
   37CHL1    C5 2672   1.383   1.581   7.169 -0.3363  0.0890 -0.4407
   37CHL1    C6 2673   1.320   1.683   7.223  0.3481 -0.0377  0.4510
   37CHL1    H6 2674   1.300   1.776   7.167 -1.7022 -1.5930 -1.5933
   37CHL1    C7 2675   1.272   1.688   7.364 -0.5325 -0.0104 -0.3547
   37CHL1   H7A 2676   1.298   1.785   7.411 -0.1713 -0.1236 -0.3177
   37CHL1   H7B 2677   1.162   1.670   7.369 -0.4222 -0.5061  0.3182
   37CHL1    C8 2678   1.344   1.579   7.443  1.2596 -0.3971  0.1050
   37CHL1    H8 2679   1.448   1.619   7.446  1.2962 -0.5291  0.7350
   37CHL1   C14 2680   1.273   1.565   7.568 -0.6479  0.2254 -0.2092
   37CHL1   H14 2681   1.168   1.530   7.560 -0.9098  0.4983  1.5451
   37CHL1   C15 2682   1.254   1.698   7.651 -0.0328  0.1668  0.0852
   37CHL1  H15A 2683   1.351   1.751   7.652 -0.1751  0.4315  1.0467
   37CHL1  H15B 2684   1.181   1.769   7.608  1.6289  0.8609 -1.7493
   37CHL1   C16 2685   1.214   1.648   7.797 -0.6067 -0.0805  0.0841
   37CHL1  H16A 2686   1.258   1.704   7.882 -0.4937  0.6246 -0.4293
   37CHL1  H16B 2687   1.103   1.641   7.797 -0.5733 -1.9757  2.3561
   37CHL1   C17 2688   1.253   1.493   7.793 -0.0372 -0.4457 -0.4175
   37CHL1   H17 2689   1.157   1.437   7.787  0.3231 -1.2828  1.1851
   37CHL1   C13 2690   1.333   1.463   7.669  0.3954  0.5701 -0.0167
   37CHL1   C18 2691   1.478   1.498   7.696  0.8869 -0.1915 -0.5363
   37CHL1  H18A 2692   1.496   1.600   7.737 -0.1887  0.2055 -0.9934
   37CHL1  H18B 2693   1.517   1.428   7.772 -0.0832 -0.7651 -0.5451
   37CHL1  H18C 2694   1.538   1.481   7.604  0.3614 -3.0503 -0.4264
   37CHL1   C12 2695   1.322   1.320   7.602  0.4868 -0.5842  0.3998
   37CHL1  H12A 2696   1.376   1.251   7.671 -0.4383  0.7853  2.6087
   37CHL1  H12B 2697   1.214   1.296   7.593  0.4632 -0.1093 -0.6577
   37CHL1   C11 2698   1.388   1.317   7.466  0.2840 -0.8222 -0.7450
   37CHL1  H11A 2699   1.499   1.317   7.479  0.1220 -0.6684  0.8337
   37CHL1  H11B 2700   1.373   1.219   7.416  0.5429 -1.1851 -0.1212
   37CHL1    C9 2701   1.347   1.442   7.380  0.2051 -0.1401 -0.4819
   37CHL1    H9 2702   1.240   1.428   7.356  0.1373  1.0543 -0.9665
   37CHL1   C10 2703   1.412   1.450   7.236  0.2485  0.3489 -0.1220
   37CHL1   C19 2704   1.573   1.434   7.251 -0.1078 -0.0712  0.8170
   37CHL1  H19A 2705   1.610   1.440   7.147  1.2661  0.6821  1.3189
   37CHL1  H19B 2706   1.627   1.516   7.304  2.6603 -0.5396 -1.1042
   37CHL1  H19C 2707   1.606   1.336   7.293 -0.1047 -0.7307 -0.6869
   37CHL1    C1 2708   1.368   1.326   7.155 -0.2614  0.6543 -0.2751
   37CHL1   H1A 2709   1.421   1.236   7.192 -0.1638  0.5116 -0.7572
   37CHL1   H1B 2710   1.258   1.306   7.157 -1.1778  4.4969 -2.0606
   37CHL1    C2 2711   1.395   1.337   7.003 -0.1730  0.2391 -0.4176
   37CHL1   H2A 2712   1.345   1.256   6.945  1.4742 -0.2980 -1.1471
   37CHL1   H2B 2713   1.502   1.313   6.987 -0.0487  0.1432  0.5136
   37CHL1   C20 2714   1.308   1.448   7.929 -0.4361  0.1371  0.5702
   37CHL1   H20 2715   1.400   1.505   7.957  1.4126 -2.6931  0.6239
   37CHL1   C21 2716   1.346   1.295   7.931  0.5385  0.2842 -0.9983
   37CHL1  H21A 2717   1.432   1.284   7.862  0.7680  1.6193 -0.9546
   37CHL1  H21B 2718   1.270   1.230   7.883  0.1203  0.8245 -1.0896
   37CHL1  H21C 2719   1.385   1.238   8.018  0.4091 -1.1562 -1.8654
   37CHL1   C22 2720   1.207   1.472   8.041  0.1490  0.8904 -0.2686
   37CHL1  H22A 2721   1.136   1.555   8.021 -1.8502 -1.0340 -1.5816
   37CHL1  H22B 2722   1.145   1.382   8.061  2.0408 -0.7366 -1.2776
   37CHL1   C23 2723   1.262   1.502   8.182 -0.6785  0.4631  0.0235
   37CHL1  H23A 2724   1.341   1.424   8.193  0.5466  0.7722 -4.5843
   37CHL1  H23B 2725   1.312   1.601   8.184 -1.8774  1.1760 -2.2207
   37CHL1   C24 2726   1.160   1.484   8.292 -0.7918 -0.1029  0.7815
   37CHL1  H24A 2727   1.148   1.374   8.297 -1.0212 -0.1332 -0.2777
   37CHL1  H24B 2728   1.206   1.510   8.390 -0.6779  1.2572  0.3960
   37CHL1   C25 2729   1.030   1.559   8.274 -0.1719 -0.2571 -1.0378
   37CHL1   H25 2730   0.977   1.524   8.183 -0.2522  1.2052 -1.5878
   37CHL1   C26 2731   0.932   1.530   8.397 -0.1062  0.3114 -0.1467
   37CHL1  H26A 2732   0.852   1.606   8.387  1.8821  2.2706 -2.4227
   37CHL1  H26B 2733   0.898   1.425   8.390  1.6409 -0.1889 -2.5244
   37CHL1  H26C 2734   0.990   1.534   8.492 -0.4986 -0.2299  0.1225
   37CHL1   C27 2735   1.048   1.711   8.265  0.0769  0.1958  0.1559
   37CHL1  H27A 2736   1.087   1.758   8.358  1.2293 -1.4346  0.5400
   37CHL1  H27B 2737   1.115   1.747   8.184  1.1742  1.1077  1.4309
   37CHL1  H27C 2738   0.953   1.757   8.233 -0.1016 -0.0295  0.3597
   38CHL1    C3 2739   6.556   1.213   6.526 -0.0366 -0.2647  0.6129
   38CHL1    H3 2740   6.500   1.120   6.549  0.1183 -0.3429  0.6760
   38CHL1    O3 2741   6.577   1.223   6.385  0.0379  0.9073 -0.3349
   38CHL1   H3' 2742   6.561   1.313   6.356  0.9891  1.0923 -0.3109
   38CHL1    C4 2743   6.482   1.340   6.557  0.4898 -1.4428  0.3146
   38CHL1   H4A 2744   6.538   1.432   6.528 -0.0056 -0.5546  2.0262
   38CHL1   H4B 2745   6.385   1.347   6.503  0.8566 -1.3972 -0.3562
   38CHL1    C5 2746   6.455   1.357   6.704  0.1854  0.8907 -0.6848
   38CHL1    C6 2747   6.329   1.366   6.755 -0.4270  0.2405  0.4519
   38CHL1    H6 2748   6.246   1.372   6.684 -1.0753 -0.0544  1.1700
   38CHL1    C7 2749   6.295   1.371   6.904  0.4181  0.6544  1.2025
   38CHL1   H7A 2750   6.218   1.448   6.923 -1.3235  0.2994 -3.3002
   38CHL1   H7B 2751   6.251   1.274   6.938 -2.2163  0.7631 -1.4601
   38CHL1    C8 2752   6.421   1.408   6.985 -1.0073 -0.4246 -0.4791
   38CHL1    H8 2753   6.444   1.514   6.961  1.1688 -0.8302 -0.3724
   38CHL1   C14 2754   6.398   1.398   7.133 -0.0919  0.7239  0.0484
   38CHL1   H14 2755   6.375   1.290   7.144  2.3014  0.1376 -0.2485
   38CHL1   C15 2756   6.275   1.461   7.202  0.0944 -0.5097 -0.0043
   38CHL1  H15A 2757   6.284   1.569   7.180  4.7724 -0.6456  0.3098
   38CHL1  H15B 2758   6.185   1.415   7.157 -0.1369  0.7547 -0.8844
   38CHL1   C16 2759   6.294   1.440   7.349  0.1279  0.3806  0.1592
   38CHL1  H16A 2760   6.251   1.531   7.396 -3.0591  0.0654 -1.7834
   38CHL1  H16B 2761   6.235   1.362   7.402 -0.3928 -0.9348 -2.2066
   38CHL1   C17 2762   6.444   1.408   7.367 -0.1039 -0.3992  0.1283
   38CHL1   H17 2763   6.447   1.300   7.389  1.8969 -0.5175 -0.5345
   38CHL1   C13 2764   6.513   1.420   7.224 -0.7436 -0.4675  0.2908
   38CHL1   C18 2765   6.554   1.573   7.212  0.4177  0.4423  0.5759
   38CHL1  H18A 2766   6.594   1.602   7.113  0.7936 -1.3450  0.1715
   38CHL1  H18B 2767   6.473   1.639   7.248 -1.2352 -1.4294  0.4590
   38CHL1  H18C 2768   6.637   1.584   7.286  1.0507 -1.0795  0.1396
   38CHL1   C12 2769   6.632   1.321   7.191 -0.5465 -0.0555 -0.1745
   38CHL1  H12A 2770   6.723   1.324   7.255 -0.6145 -1.7256  0.0482
   38CHL1  H12B 2771   6.598   1.215   7.198  1.2106 -1.0493 -4.0470
   38CHL1   C11 2772   6.665   1.329   7.045 -0.4164  0.0629 -0.1756
   38CHL1  H11A 2773   6.740   1.411   7.041  0.5961 -0.8743 -1.1839
   38CHL1  H11B 2774   6.722   1.235   7.027 -0.9205  0.0736 -2.1180
   38CHL1    C9 2775   6.541   1.327   6.946 -0.2898 -0.2010  0.0468
   38CHL1    H9 2776   6.501   1.224   6.957  0.6422 -0.3850  1.9950
   38CHL1   C10 2777   6.582   1.340   6.792  0.7853 -0.0308  0.7802
   38CHL1   C19 2778   6.664   1.472   6.788 -0.1624 -0.8935  0.2229
   38CHL1  H19A 2779   6.604   1.551   6.838  0.6765 -1.0158  1.4712
   38CHL1  H19B 2780   6.759   1.457   6.843  0.0928  1.4089  0.5276
   38CHL1  H19C 2781   6.691   1.507   6.686 -0.7099  0.1548  0.4244
   38CHL1    C1 2782   6.667   1.224   6.750 -0.4349  0.3706  0.2529
   38CHL1   H1A 2783   6.764   1.233   6.805 -0.5334  0.4806  0.4117
   38CHL1   H1B 2784   6.616   1.129   6.776 -1.5986  0.0746 -2.7149
   38CHL1    C2 2785   6.689   1.212   6.599 -0.3742 -0.5023  0.2676
   38CHL1   H2A 2786   6.738   1.116   6.572 -2.2868 -2.2656  2.6445
   38CHL1   H2B 2787   6.745   1.303   6.569 -2.1390  0.8729  0.9504
   38CHL1   C20 2788   6.513   1.470   7.493 -0.0439 -0.6980 -0.2300
   38CHL1   H20 2789   6.528   1.578   7.471  0.4106 -0.7202 -0.0471
   38CHL1   C21 2790   6.649   1.406   7.512 -0.1386  0.0749  0.0326
   38CHL1  H21A 2791   6.714   1.413   7.421  2.2070 -2.6799  1.3081
   38CHL1  H21B 2792   6.631   1.297   7.520  4.9112 -0.9676  0.8637
   38CHL1  H21C 2793   6.715   1.424   7.600 -2.3621  0.1659  1.7605
   38CHL1   C22 2794   6.427   1.446   7.620 -0.3329 -0.0684 -0.2306
   38CHL1  H22A 2795   6.322   1.461   7.587  0.1000 -0.7890 -2.0476
   38CHL1  H22B 2796   6.439   1.341   7.655  0.1731  0.5129  1.4596
   38CHL1   C23 2797   6.450   1.542   7.746  0.7203 -0.2092  0.1612
   38CHL1  H23A 2798   6.534   1.502   7.807 -1.0763 -0.7311  2.4130
   38CHL1  H23B 2799   6.476   1.641   7.704 -2.1545  0.5318 -0.0830
   38CHL1   C24 2800   6.335   1.536   7.843 -0.5504 -0.0928  0.5830
   38CHL1  H24A 2801   6.248   1.592   7.802 -1.9167 -0.8838  2.2642
   38CHL1  H24B 2802   6.302   1.431   7.857 -0.4276 -0.4205 -1.3216
   38CHL1   C25 2803   6.365   1.581   7.984 -0.4620  0.0436  0.1401
   38CHL1   H25 2804   6.391   1.689   7.977  1.1763 -0.3480 -0.3324
   38CHL1   C26 2805   6.233   1.576   8.062 -0.3161 -0.5403  0.7038
   38CHL1  H26A 2806   6.209   1.468   8.074  0.9138 -1.2213 -2.1215
   38CHL1  H26B 2807   6.231   1.631   8.159  1.4885 -3.3643  2.4812
   38CHL1  H26C 2808   6.149   1.608   7.997  1.0247 -1.5147 -1.6416
   38CHL1   C27 2809   6.482   1.516   8.074  0.9728 -0.1366 -0.2003
   38CHL1  H27A 2810   6.487   1.577   8.167 -0.0318 -1.5478  0.8112
   38CHL1  H27B 2811   6.465   1.409   8.098  0.4387 -0.0270 -0.0909
   38CHL1  H27C 2812   6.583   1.538   8.033  1.8966 -0.7919  1.6283
   39CHL1    C3 2813   4.569   0.679   6.742  0.5123 -0.7304 -0.1247
   39CHL1    H3 2814   4.543   0.783   6.771  1.4016 -0.0530 -1.6653
   39CHL1    O3 2815   4.574   0.674   6.604  0.6055 -0.1227  0.4634
   39CHL1   H3' 2816   4.484   0.654   6.578  0.6495  1.2753 -0.9405
   39CHL1    C4 2817   4.707   0.660   6.792  0.4610  0.9182  0.2873
   39CHL1   H4A 2818   4.735   0.556   6.763 -2.8033 -0.0213  0.0427
   39CHL1   H4B 2819   4.780   0.729   6.744 -0.5431  1.0695 -1.1084
   39CHL1    C5 2820   4.716   0.670   6.948  0.9205  0.0007 -0.0859
   39CHL1    C6 2821   4.797   0.758   7.005 -0.7017  0.3312 -0.5640
   39CHL1    H6 2822   4.857   0.828   6.945  0.2459 -0.4287 -0.5309
   39CHL1    C7 2823   4.815   0.757   7.158  0.7455  0.1184  0.4684
   39CHL1   H7A 2824   4.917   0.765   7.201  0.1440  1.2630  1.7733
   39CHL1   H7B 2825   4.764   0.850   7.191  0.3661  0.1559 -0.2097
   39CHL1    C8 2826   4.736   0.645   7.238 -0.1454 -0.4899  0.3211
   39CHL1    H8 2827   4.793   0.550   7.229 -0.8210 -0.8006 -0.9837
   39CHL1   C14 2828   4.721   0.691   7.384 -0.9605 -0.2577  0.1273
   39CHL1   H14 2829   4.657   0.781   7.387  0.8170  1.2138 -2.2525
   39CHL1   C15 2830   4.851   0.726   7.458 -0.1179 -0.2296  0.2189
   39CHL1  H15A 2831   4.934   0.655   7.437  1.1040  0.6515  1.8125
   39CHL1  H15B 2832   4.885   0.828   7.430 -0.7447 -0.3260 -0.9306
   39CHL1   C16 2833   4.818   0.708   7.605  0.5501 -0.1545  0.3596
   39CHL1  H16A 2834   4.883   0.629   7.648  1.2188 -0.8027 -1.7299
   39CHL1  H16B 2835   4.822   0.808   7.655  0.7552  0.7398 -1.3519
   39CHL1   C17 2836   4.671   0.672   7.608 -0.2112  0.3624  0.5499
   39CHL1   H17 2837   4.618   0.770   7.611 -0.2747  0.3917 -0.8118
   39CHL1   C13 2838   4.649   0.595   7.472  0.7982 -0.1272  0.3650
   39CHL1   C18 2839   4.719   0.454   7.478 -0.4784 -0.2887  0.0280
   39CHL1  H18A 2840   4.826   0.467   7.506 -0.1494 -1.1680 -0.7686
   39CHL1  H18B 2841   4.670   0.389   7.554 -0.5906  0.8667  0.9814
   39CHL1  H18C 2842   4.721   0.400   7.381  0.0183  0.5802 -0.4535
   39CHL1   C12 2843   4.510   0.576   7.414  0.3444  0.6017 -0.0470
   39CHL1  H12A 2844   4.452   0.501   7.472  1.6348 -0.8735 -0.6110
   39CHL1  H12B 2845   4.450   0.670   7.414 -2.1015 -0.8526 -1.4967
   39CHL1   C11 2846   4.512   0.529   7.265 -0.0327  0.1062  0.2324
   39CHL1  H11A 2847   4.542   0.423   7.251 -0.9844 -0.6129  2.9815
   39CHL1  H11B 2848   4.409   0.555   7.231 -0.4975  1.1800  2.3095
   39CHL1    C9 2849   4.602   0.621   7.181 -0.2713 -0.6761  1.1326
   39CHL1    H9 2850   4.544   0.715   7.188  0.6288 -0.0879  0.8102
   39CHL1   C10 2851   4.611   0.582   7.028 -0.6081 -0.3370 -0.4461
   39CHL1   C19 2852   4.676   0.438   7.014 -0.4432 -0.2119 -0.3874
   39CHL1  H19A 2853   4.766   0.436   7.078  0.1353 -1.3879 -1.2098
   39CHL1  H19B 2854   4.603   0.359   7.042 -0.4592  0.2421  0.9329
   39CHL1  H19C 2855   4.704   0.408   6.911  0.6924 -2.5825  0.5554
   39CHL1    C1 2856   4.470   0.585   6.957 -0.2458  0.9180 -0.0772
   39CHL1   H1A 2857   4.418   0.495   6.996  0.3813  1.1675  1.3712
   39CHL1   H1B 2858   4.420   0.675   6.997 -1.8744 -1.0263  2.6448
   39CHL1    C2 2859   4.474   0.578   6.800 -0.9549 -0.4908 -0.2812
   39CHL1   H2A 2860   4.369   0.585   6.766 -1.1836 -2.2023  0.0042
   39CHL1   H2B 2861   4.511   0.476   6.776 -0.6294 -0.0340 -1.8039
   39CHL1   C20 2862   4.631   0.602   7.734 -0.0558  0.4110  0.3334
   39CHL1   H20 2863   4.668   0.497   7.727  0.2969  0.5003  0.8014
   39CHL1   C21 2864   4.475   0.593   7.740 -0.8018 -0.4228  0.0952
   39CHL1  H21A 2865   4.444   0.499   7.691  1.9499 -1.4796  0.1849
   39CHL1  H21B 2866   4.449   0.675   7.670  0.9313  0.1960  0.1114
   39CHL1  H21C 2867   4.431   0.584   7.842 -1.0350 -3.6935 -0.1928
   39CHL1   C22 2868   4.684   0.669   7.859 -0.2076 -0.2997  0.1036
   39CHL1  H22A 2869   4.795   0.665   7.870 -0.0590  0.6755 -0.8992
   39CHL1  H22B 2870   4.659   0.777   7.850 -1.7744 -0.6157  0.3348
   39CHL1   C23 2871   4.635   0.620   7.994  0.4208  0.6167 -0.1054
   39CHL1  H23A 2872   4.544   0.680   8.017  0.2702  1.3376 -2.3741
   39CHL1  H23B 2873   4.607   0.513   7.987 -0.8501  1.0178 -1.4547
   39CHL1   C24 2874   4.727   0.641   8.113  0.4203 -0.2588  0.3374
   39CHL1  H24A 2875   4.826   0.598   8.088 -0.2269 -0.7872 -1.4801
   39CHL1  H24B 2876   4.741   0.751   8.123  0.2071 -0.1965 -0.0217
   39CHL1   C25 2877   4.675   0.592   8.247 -0.1570  0.3912  0.9179
   39CHL1   H25 2878   4.637   0.489   8.228 -0.3131  0.3246  1.5644
   39CHL1   C26 2879   4.782   0.564   8.353  0.1940 -0.4207 -1.1982
   39CHL1  H26A 2880   4.858   0.489   8.322  1.1884  0.4040 -0.8111
   39CHL1  H26B 2881   4.837   0.659   8.368  4.0314 -2.4940 -1.0375
   39CHL1  H26C 2882   4.739   0.534   8.451  0.6701  1.5901 -0.3254
   39CHL1   C27 2883   4.560   0.673   8.303  0.0203  0.3067  0.0814
   39CHL1  H27A 2884   4.479   0.674   8.228 -1.2669  0.6870  1.4349
   39CHL1  H27B 2885   4.507   0.632   8.392 -0.4798 -1.9206 -1.1616
   39CHL1  H27C 2886   4.600   0.775   8.315 -1.2680  1.3835 -3.5320
   40CHL1    C3 2887   0.407   3.948   7.153  0.0060  0.5706 -0.2553
   40CHL1    H3 2888   0.455   3.849   7.168  0.3266  0.4022 -2.2089
   40CHL1    O3 2889   0.351   3.936   7.024 -0.3371  0.0555 -0.2337
   40CHL1   H3' 2890   0.394   3.996   6.961 -0.3750 -1.9054 -2.2674
   40CHL1    C4 2891   0.291   3.969   7.256 -0.0179 -0.0493 -1.0695
   40CHL1   H4A 2892   0.212   4.043   7.233 -0.6425  0.3634  2.0048
   40CHL1   H4B 2893   0.242   3.870   7.264 -0.8351  0.4457  0.6139
   40CHL1    C5 2894   0.351   4.012   7.389 -0.0627  0.4922 -0.0548
   40CHL1    C6 2895   0.326   3.943   7.503 -0.2256  0.4818  0.2642
   40CHL1    H6 2896   0.245   3.869   7.502  1.5427 -1.5481 -0.3416
   40CHL1    C7 2897   0.378   3.979   7.638 -0.0613 -0.1739  0.7954
   40CHL1   H7A 2898   0.304   3.959   7.718 -2.0121 -1.2342 -1.1621
   40CHL1   H7B 2899   0.466   3.915   7.661  0.4006  0.5177  0.9811
   40CHL1    C8 2900   0.421   4.125   7.637 -0.3343 -0.2587 -0.1502
   40CHL1    H8 2901   0.333   4.194   7.639  0.1949  0.4662 -0.8604
   40CHL1   C14 2902   0.492   4.150   7.765 -0.0949 -0.7579 -0.0878
   40CHL1   H14 2903   0.569   4.070   7.771  0.7133 -0.1246 -1.4841
   40CHL1   C15 2904   0.414   4.124   7.899 -0.2135 -0.3778  0.4680
   40CHL1  H15A 2905   0.318   4.179   7.900  0.3400  0.5977  0.5928
   40CHL1  H15B 2906   0.389   4.016   7.906 -1.3756 -0.2442 -1.0151
   40CHL1   C16 2907   0.514   4.174   7.999  1.0140 -0.3315 -0.4860
   40CHL1  H16A 2908   0.459   4.238   8.071  0.6519 -0.3731 -0.7268
   40CHL1  H16B 2909   0.569   4.098   8.059  1.7983  0.8632  0.3620
   40CHL1   C17 2910   0.623   4.262   7.924 -0.4173  0.5407 -0.5877
   40CHL1   H17 2911   0.704   4.186   7.917 -0.7516  0.2155 -0.9576
   40CHL1   C13 2912   0.565   4.286   7.782  0.4868 -0.0150  0.4014
   40CHL1   C18 2913   0.465   4.400   7.814  0.6809 -0.6221  0.2468
   40CHL1  H18A 2914   0.391   4.373   7.893  0.2289 -2.7663 -0.8536
   40CHL1  H18B 2915   0.514   4.499   7.829  1.1783 -0.5353 -1.7594
   40CHL1  H18C 2916   0.402   4.420   7.725 -1.0838  0.7809  1.7250
   40CHL1   C12 2917   0.662   4.318   7.667 -0.7972 -0.5375 -0.1189
   40CHL1  H12A 2918   0.709   4.418   7.669 -1.2660 -0.2795 -1.2660
   40CHL1  H12B 2919   0.742   4.241   7.673  0.9814  1.2422  0.0404
   40CHL1   C11 2920   0.580   4.299   7.536  0.3272  0.2741 -0.0329
   40CHL1  H11A 2921   0.489   4.362   7.543 -0.1378 -0.5658  2.5919
   40CHL1  H11B 2922   0.632   4.324   7.441 -1.6866 -0.5090 -1.3930
   40CHL1    C9 2923   0.509   4.161   7.516 -0.0697  0.1412 -0.7664
   40CHL1    H9 2924   0.593   4.088   7.520 -0.1942  0.0411  2.4703
   40CHL1   C10 2925   0.450   4.130   7.380 -0.1618  0.1986 -0.2174
   40CHL1   C19 2926   0.374   4.256   7.333  0.0277 -0.3929  0.4547
   40CHL1  H19A 2927   0.441   4.344   7.322 -0.7480  0.1743  0.2555
   40CHL1  H19B 2928   0.318   4.249   7.237  0.1331 -0.5459  0.4042
   40CHL1  H19C 2929   0.300   4.273   7.414 -0.6638 -0.4881 -0.1488
   40CHL1    C1 2930   0.563   4.089   7.278  0.3523 -0.4928 -0.9195
   40CHL1   H1A 2931   0.629   4.178   7.265 -1.0623  0.6161 -0.7677
   40CHL1   H1B 2932   0.630   4.011   7.320 -0.1819  0.6221  2.2814
   40CHL1    C2 2933   0.513   4.055   7.143  0.0501 -0.2092  0.4224
   40CHL1   H2A 2934   0.594   4.016   7.077 -1.6061 -1.1754 -1.1301
   40CHL1   H2B 2935   0.465   4.141   7.092 -0.4079 -0.5133  0.3344
   40CHL1   C20 2936   0.679   4.379   8.010  0.7842 -0.7199  0.0831
   40CHL1   H20 2937   0.599   4.453   8.031  2.1603  0.7121  0.4885
   40CHL1   C21 2938   0.794   4.444   7.935 -0.2608 -0.9807 -0.4600
   40CHL1  H21A 2939   0.848   4.526   7.987 -1.2147  0.4245 -1.5751
   40CHL1  H21B 2940   0.747   4.497   7.849 -1.4872 -0.9847  0.1913
   40CHL1  H21C 2941   0.873   4.372   7.905  1.4395  0.3231  0.7076
   40CHL1   C22 2942   0.718   4.329   8.154  0.0948 -0.1828 -0.4574
   40CHL1  H22A 2943   0.642   4.263   8.201  0.8263 -1.0583 -0.4794
   40CHL1  H22B 2944   0.810   4.268   8.143  0.8666  1.1705 -1.7884
   40CHL1   C23 2945   0.735   4.448   8.247  0.2164  0.5048 -0.5192
   40CHL1  H23A 2946   0.805   4.527   8.211  0.5842 -0.3398 -1.7083
   40CHL1  H23B 2947   0.635   4.493   8.259 -0.5688 -1.2160 -0.3772
   40CHL1   C24 2948   0.798   4.411   8.383  0.4562 -0.0903  0.6412
   40CHL1  H24A 2949   0.767   4.304   8.394  1.4234 -0.3010  1.5021
   40CHL1  H24B 2950   0.908   4.416   8.368  0.7930 -1.4562  2.3676
   40CHL1   C25 2951   0.741   4.480   8.499 -0.1481 -0.5455 -0.0087
   40CHL1   H25 2952   0.634   4.480   8.469  0.0613 -1.5134 -0.8117
   40CHL1   C26 2953   0.764   4.396   8.626 -0.6891 -0.2902 -0.9556
   40CHL1  H26A 2954   0.691   4.314   8.640  0.5921 -1.1658  1.1759
   40CHL1  H26B 2955   0.866   4.354   8.615  0.8106  3.2422 -2.1508
   40CHL1  H26C 2956   0.770   4.449   8.723  0.7052 -3.0999  0.6211
   40CHL1   C27 2957   0.797   4.623   8.509 -0.0884  0.2440  0.1104
   40CHL1  H27A 2958   0.737   4.661   8.595 -1.6076 -1.0393 -0.3351
   40CHL1  H27B 2959   0.904   4.618   8.540  0.1155 -1.2962 -0.7192
   40CHL1  H27C 2960   0.778   4.685   8.419 -1.0705  2.3937  1.7183
   41CHL1    C3 2961   1.033   5.741   6.897  0.0445 -0.1100  0.1898
   41CHL1    H3 2962   0.947   5.707   6.959 -0.0363 -0.2001  0.0309
   41CHL1    O3 2963   0.986   5.771   6.762 -0.4747 -0.1761 -0.1635
   41CHL1   H3' 2964   1.056   5.816   6.715 -1.3280 -0.5172 -1.8431
   41CHL1    C4 2965   1.096   5.867   6.957 -0.3604 -0.0796  0.0071
   41CHL1   H4A 2966   1.182   5.885   6.889  0.0524 -0.2973  0.4608
   41CHL1   H4B 2967   1.035   5.960   6.950  0.1947  0.2857 -0.0244
   41CHL1    C5 2968   1.144   5.841   7.103 -0.0023 -0.8893  0.1052
   41CHL1    C6 2969   1.100   5.920   7.204  0.2603 -0.1044  0.6169
   41CHL1    H6 2970   1.030   5.999   7.171 -0.5974 -1.1350 -0.0854
   41CHL1    C7 2971   1.130   5.890   7.349  0.1525 -0.4128  0.4039
   41CHL1   H7A 2972   1.156   5.980   7.408  1.6052 -1.8248  2.0372
   41CHL1   H7B 2973   1.054   5.824   7.397  0.6891 -1.1723  0.2330
   41CHL1    C8 2974   1.246   5.791   7.373  0.2657  0.2247  0.1625
   41CHL1    H8 2975   1.344   5.843   7.377  1.0863 -1.1035 -1.4471
   41CHL1   C14 2976   1.240   5.728   7.520 -0.1461 -0.1224 -0.4068
   41CHL1   H14 2977   1.147   5.668   7.512  0.0300 -0.2227 -2.4085
   41CHL1   C15 2978   1.222   5.823   7.648  0.0181  0.0863  0.0286
   41CHL1  H15A 2979   1.248   5.929   7.626  0.7987 -0.1235 -0.0970
   41CHL1  H15B 2980   1.113   5.821   7.670 -0.0023  2.3899  0.3872
   41CHL1   C16 2981   1.311   5.758   7.755  0.1503  0.1551  0.4643
   41CHL1  H16A 2982   1.402   5.820   7.762  1.0066 -1.0259  0.0445
   41CHL1  H16B 2983   1.262   5.743   7.854 -1.3047  0.5210 -0.1707
   41CHL1   C17 2984   1.343   5.612   7.695 -0.5700 -0.1176 -1.0707
   41CHL1   H17 2985   1.252   5.549   7.704 -0.1932 -0.4756  0.4410
   41CHL1   C13 2986   1.358   5.642   7.547  0.4238 -0.2249  0.3442
   41CHL1   C18 2987   1.495   5.724   7.527  0.1651  0.0615 -0.5025
   41CHL1  H18A 2988   1.504   5.818   7.585  1.2416 -1.1413  1.3857
   41CHL1  H18B 2989   1.580   5.662   7.562 -0.0986  0.4744  0.9148
   41CHL1  H18C 2990   1.520   5.742   7.420  0.4252 -0.2460 -0.4973
   41CHL1   C12 2991   1.378   5.528   7.449  0.2280 -0.3416  0.1925
   41CHL1  H12A 2992   1.475   5.478   7.466  0.6519  0.1943 -0.5616
   41CHL1  H12B 2993   1.312   5.445   7.481  0.6040  0.2407  2.6134
   41CHL1   C11 2994   1.361   5.565   7.300  0.3567 -0.4646 -0.2967
   41CHL1  H11A 2995   1.461   5.605   7.273 -0.1128 -1.0424 -3.1602
   41CHL1  H11B 2996   1.333   5.482   7.232 -1.2881 -0.8983  0.8387
   41CHL1    C9 2997   1.246   5.673   7.280  0.0135  0.4197  0.6693
   41CHL1    H9 2998   1.151   5.618   7.298 -1.1168  1.5638 -1.4376
   41CHL1   C10 2999   1.229   5.714   7.123  0.4933  0.5132 -0.8399
   41CHL1   C19 3000   1.376   5.744   7.074 -0.1722  0.0741  0.8028
   41CHL1  H19A 3001   1.435   5.650   7.063  1.1036  0.7633  1.4815
   41CHL1  H19B 3002   1.384   5.800   6.978  4.6755 -1.4424  0.0371
   41CHL1  H19C 3003   1.427   5.808   7.149 -0.6468  0.6532  0.6430
   41CHL1    C1 3004   1.171   5.602   7.036 -0.0126 -0.9486  0.0115
   41CHL1   H1A 3005   1.235   5.511   7.041 -1.5822 -2.0880 -0.0522
   41CHL1   H1B 3006   1.073   5.577   7.081  0.6093  0.1571  2.1341
   41CHL1    C2 3007   1.144   5.638   6.885 -0.0057  0.0604 -0.6051
   41CHL1   H2A 3008   1.109   5.546   6.835  0.1027 -0.8284  0.8985
   41CHL1   H2B 3009   1.240   5.667   6.836 -0.4549  0.5032 -1.2284
   41CHL1   C20 3010   1.455   5.540   7.775  0.3453 -0.0394  0.2866
   41CHL1   H20 3011   1.557   5.569   7.743  1.2047 -1.2376  1.8223
   41CHL1   C21 3012   1.438   5.390   7.746 -0.4695  0.2288  0.5414
   41CHL1  H21A 3013   1.508   5.320   7.796 -1.2373 -1.6482 -0.8918
   41CHL1  H21B 3014   1.429   5.368   7.638 -1.2189  4.2158 -0.3788
   41CHL1  H21C 3015   1.343   5.355   7.790 -1.3996 -1.1636 -2.3572
   41CHL1   C22 3016   1.450   5.569   7.928  0.1520  0.1771 -0.1463
   41CHL1  H22A 3017   1.474   5.676   7.944  1.0409 -0.0171 -0.1270
   41CHL1  H22B 3018   1.345   5.546   7.955 -0.0630  1.8046  0.4880
   41CHL1   C23 3019   1.560   5.500   8.006  0.1942 -0.5305  0.4598
   41CHL1  H23A 3020   1.550   5.390   7.995  1.4819 -1.0116  3.2699
   41CHL1  H23B 3021   1.656   5.536   7.963 -0.8626  2.0899  0.0789
   41CHL1   C24 3022   1.542   5.527   8.152 -0.5129  0.0612 -0.7274
   41CHL1  H24A 3023   1.574   5.633   8.167  1.6706 -0.7075  0.4967
   41CHL1  H24B 3024   1.431   5.526   8.162 -0.4402  0.4238  0.2133
   41CHL1   C25 3025   1.619   5.436   8.253  0.0880 -0.2795  0.1647
   41CHL1   H25 3026   1.610   5.330   8.222 -1.6413  0.6295 -2.8057
   41CHL1   C26 3027   1.770   5.465   8.250 -0.0998  0.3354  0.3224
   41CHL1  H26A 3028   1.822   5.391   8.315 -0.4431  1.8064  2.3453
   41CHL1  H26B 3029   1.800   5.448   8.144 -1.3452 -0.8523  0.1292
   41CHL1  H26C 3030   1.787   5.573   8.267 -0.2517  0.9073 -2.5905
   41CHL1   C27 3031   1.555   5.462   8.390  0.0001 -0.1054 -1.1619
   41CHL1  H27A 3032   1.627   5.444   8.473 -0.9307 -1.8561 -0.6842
   41CHL1  H27B 3033   1.514   5.565   8.396  2.1177  0.7384  0.2325
   41CHL1  H27C 3034   1.476   5.386   8.409 -1.7794  1.8259 -0.4561
   42CHL1    C3 3035   4.739   4.850   6.999 -0.0852 -0.5622 -0.3186
   42CHL1    H3 3036   4.675   4.777   7.054 -0.1305  0.0650  0.4884
   42CHL1    O3 3037   4.724   4.809   6.865 -0.9277 -0.2019  0.0241
   42CHL1   H3' 3038   4.782   4.869   6.819  0.6827 -0.9482  1.0087
   42CHL1    C4 3039   4.682   4.997   7.019 -0.4810  0.1087  0.2068
   42CHL1   H4A 3040   4.741   5.071   6.960  0.7444  0.7520  2.1318
   42CHL1   H4B 3041   4.576   5.003   6.986 -0.7290 -0.9319  0.7512
   42CHL1    C5 3042   4.709   5.024   7.169  1.4947  0.1960 -0.1006
   42CHL1    C6 3043   4.599   5.045   7.251 -0.2051 -0.4802  0.3109
   42CHL1    H6 3044   4.501   5.046   7.201  0.4057 -0.0229 -0.9245
   42CHL1    C7 3045   4.605   5.071   7.400  0.0092 -0.5066  0.1910
   42CHL1   H7A 3046   4.534   5.150   7.433 -1.6267 -1.2542 -1.3603
   42CHL1   H7B 3047   4.573   4.981   7.458  0.4283 -1.0850 -0.4713
   42CHL1    C8 3048   4.751   5.107   7.446 -0.2558  0.1817  0.0050
   42CHL1    H8 3049   4.775   5.209   7.411 -0.9488 -0.0478 -1.1491
   42CHL1   C14 3050   4.767   5.102   7.605 -0.3247  0.1299 -0.1022
   42CHL1   H14 3051   4.750   4.998   7.639 -3.1581  0.5649  0.0330
   42CHL1   C15 3052   4.672   5.184   7.691 -0.2270 -0.1532 -0.2660
   42CHL1  H15A 3053   4.672   5.288   7.653  0.9043  1.0001  2.5810
   42CHL1  H15B 3054   4.578   5.126   7.693 -0.2803 -0.0946  2.2130
   42CHL1   C16 3055   4.745   5.199   7.827  0.2458 -0.0368 -0.5096
   42CHL1  H16A 3056   4.745   5.309   7.839 -0.7818  0.1024 -1.5514
   42CHL1  H16B 3057   4.686   5.154   7.910  1.2435 -1.3482 -0.4764
   42CHL1   C17 3058   4.881   5.127   7.806  0.2211  0.4108 -0.3417
   42CHL1   H17 3059   4.857   5.022   7.832 -0.3857  0.6189 -0.0592
   42CHL1   C13 3060   4.907   5.125   7.655 -0.2722  0.2910  1.0418
   42CHL1   C18 3061   4.961   5.262   7.611  0.3640 -0.4651  0.8549
   42CHL1  H18A 3062   4.968   5.276   7.501  1.3194 -1.2920  0.7904
   42CHL1  H18B 3063   4.902   5.344   7.657 -0.1573  0.7167 -1.7247
   42CHL1  H18C 3064   5.067   5.280   7.641  0.5731  0.6028 -0.4038
   42CHL1   C12 3065   5.002   5.022   7.586 -0.3936  0.8753 -1.2127
   42CHL1  H12A 3066   5.108   5.036   7.615 -0.3363  1.3373 -1.6235
   42CHL1  H12B 3067   4.968   4.922   7.619  0.7394  1.1898  1.1322
   42CHL1   C11 3068   5.001   5.031   7.433  0.0658  0.4064  0.6847
   42CHL1  H11A 3069   5.053   5.121   7.394  1.7219 -1.6281 -2.2596
   42CHL1  H11B 3070   5.062   4.951   7.386  0.4406  0.4586  1.0650
   42CHL1    C9 3071   4.854   5.010   7.386 -0.6680 -0.1742  0.4479
   42CHL1    H9 3072   4.825   4.908   7.419 -1.2344  0.7521  3.0236
   42CHL1   C10 3073   4.852   5.004   7.228  0.5128 -0.0717  0.3794
   42CHL1   C19 3074   4.933   5.125   7.173 -0.0980  0.4806 -0.1988
   42CHL1  H19A 3075   5.041   5.112   7.195 -0.0058 -1.2658 -1.4480
   42CHL1  H19B 3076   4.924   5.136   7.063  0.0296  1.4605 -0.1211
   42CHL1  H19C 3077   4.896   5.218   7.220  0.0615  0.7283 -0.5618
   42CHL1    C1 3078   4.919   4.868   7.182  0.4146 -0.1881  0.2819
   42CHL1   H1A 3079   5.029   4.871   7.200  0.5550  1.7726 -0.6640
   42CHL1   H1B 3080   4.869   4.782   7.232  0.3118  1.6658  3.7095
   42CHL1    C2 3081   4.889   4.832   7.038  0.7885 -0.4866 -0.5900
   42CHL1   H2A 3082   4.926   4.729   7.016  0.2905 -0.5597 -1.1238
   42CHL1   H2B 3083   4.943   4.895   6.964  0.2159  1.0316  0.2589
   42CHL1   C20 3084   4.991   5.169   7.897 -0.3718 -0.2338  0.2977
   42CHL1   H20 3085   5.061   5.244   7.856  0.0622 -0.6540  0.2532
   42CHL1   C21 3086   5.075   5.053   7.924  0.0419 -0.0650 -0.6025
   42CHL1  H21A 3087   5.153   5.088   7.995 -0.2895  1.2229 -0.8448
   42CHL1  H21B 3088   5.137   5.033   7.834  0.8681  0.4452 -0.1607
   42CHL1  H21C 3089   5.012   4.970   7.963 -1.4686  1.1939 -0.2591
   42CHL1   C22 3090   4.943   5.222   8.032 -0.1018 -0.2978 -0.0316
   42CHL1  H22A 3091   5.033   5.267   8.079 -0.8838  1.7898 -0.4418
   42CHL1  H22B 3092   4.878   5.308   8.007 -0.0552 -0.2933 -0.1377
   42CHL1   C23 3093   4.873   5.130   8.133  0.1493  0.3734  0.3548
   42CHL1  H23A 3094   4.798   5.063   8.086 -0.4822 -0.6865  2.7548
   42CHL1  H23B 3095   4.957   5.064   8.162 -0.6707 -1.0776 -0.4754
   42CHL1   C24 3096   4.807   5.194   8.257 -0.0972 -0.0060 -0.5104
   42CHL1  H24A 3097   4.865   5.287   8.278  0.3851 -0.4705  0.2492
   42CHL1  H24B 3098   4.706   5.241   8.248 -0.5202 -0.3412  1.9465
   42CHL1   C25 3099   4.805   5.112   8.382  0.0258  0.7370  0.4789
   42CHL1   H25 3100   4.912   5.086   8.392 -0.0782 -0.0914 -0.4309
   42CHL1   C26 3101   4.757   5.206   8.497 -0.7664  0.7160 -0.8659
   42CHL1  H26A 3102   4.768   5.136   8.583  4.9786  0.3134 -1.5118
   42CHL1  H26B 3103   4.824   5.286   8.535 -1.6004  1.6153 -1.2613
   42CHL1  H26C 3104   4.653   5.243   8.490 -0.4237  2.1292  0.7131
   42CHL1   C27 3105   4.716   4.989   8.374 -0.1627 -0.3039  0.4274
   42CHL1  H27A 3106   4.613   5.029   8.364  0.2298  0.1648 -3.5969
   42CHL1  H27B 3107   4.714   4.928   8.467  1.2752  0.4101  0.9616
   42CHL1  H27C 3108   4.734   4.919   8.289 -1.5823  0.3212 -0.4122
   43CHL1    C3 3109   3.374   2.578   6.914 -0.1531 -0.0257 -0.3738
   43CHL1    H3 3110   3.427   2.675   6.924  0.0645 -0.3437  2.1130
   43CHL1    O3 3111   3.373   2.540   6.776 -0.2578  0.4493 -0.7310
   43CHL1   H3' 3112   3.330   2.455   6.767  0.5275  0.0748 -1.1146
   43CHL1    C4 3113   3.452   2.477   6.998 -0.3285 -0.0222  0.3538
   43CHL1   H4A 3114   3.419   2.374   6.973 -2.1130  0.6737 -0.3653
   43CHL1   H4B 3115   3.556   2.482   6.958 -1.2801  2.7960 -2.1783
   43CHL1    C5 3116   3.455   2.507   7.144 -0.2446  0.5760 -0.3973
   43CHL1    C6 3117   3.570   2.531   7.211 -0.5387  0.1431 -0.1987
   43CHL1    H6 3118   3.667   2.518   7.161 -0.0626 -0.9458  0.9666
   43CHL1    C7 3119   3.564   2.559   7.356  0.4703 -0.4521  0.1343
   43CHL1   H7A 3120   3.657   2.528   7.408  1.4310  0.8324 -0.7422
   43CHL1   H7B 3121   3.573   2.669   7.372  0.5866 -0.3617 -0.5337
   43CHL1    C8 3122   3.438   2.523   7.427  0.7081 -0.0931  0.3073
   43CHL1    H8 3123   3.440   2.412   7.433  0.5935 -0.0413  1.8688
   43CHL1   C14 3124   3.419   2.585   7.569 -0.6169  0.0297 -0.1695
   43CHL1   H14 3125   3.429   2.693   7.544  2.7464 -0.1909 -0.2176
   43CHL1   C15 3126   3.536   2.559   7.667 -0.1635  0.2529 -0.8720
   43CHL1  H15A 3127   3.549   2.452   7.694 -0.4285  0.6724  1.1281
   43CHL1  H15B 3128   3.630   2.613   7.641 -0.5727  2.0448  1.0810
   43CHL1   C16 3129   3.484   2.631   7.790 -0.6707  0.5915  0.3987
   43CHL1  H16A 3130   3.510   2.573   7.881 -1.5916 -0.4025  0.0515
   43CHL1  H16B 3131   3.514   2.738   7.800 -1.4460  0.8400  0.1857
   43CHL1   C17 3132   3.322   2.637   7.778  0.0269  0.4741 -0.2823
   43CHL1   H17 3133   3.310   2.738   7.735  2.8694 -0.0285 -2.5572
   43CHL1   C13 3134   3.290   2.557   7.648 -0.5026  0.1779  0.0762
   43CHL1   C18 3135   3.275   2.404   7.680  0.2770 -0.0399 -0.1936
   43CHL1  H18A 3136   3.341   2.354   7.755 -1.2515 -0.9492  0.5782
   43CHL1  H18B 3137   3.170   2.391   7.713  0.3083  0.0251 -0.0663
   43CHL1  H18C 3138   3.284   2.350   7.584 -0.4938 -2.0820  0.8320
   43CHL1   C12 3139   3.173   2.607   7.565  0.5867 -0.1028  0.3370
   43CHL1  H12A 3140   3.074   2.588   7.613  0.5718  1.2451  0.8966
   43CHL1  H12B 3141   3.195   2.715   7.551  0.9435 -0.1575  0.4752
   43CHL1   C11 3142   3.180   2.550   7.425  0.1902  0.6818 -0.4272
   43CHL1  H11A 3143   3.154   2.442   7.435  0.9649  0.5180 -0.0604
   43CHL1  H11B 3144   3.103   2.600   7.363  1.0366  0.1198 -2.0046
   43CHL1    C9 3145   3.314   2.565   7.347 -0.4706 -0.0183 -0.2848
   43CHL1    H9 3146   3.325   2.675   7.334 -2.0956  0.1044 -0.9164
   43CHL1   C10 3147   3.310   2.519   7.200  1.1711  0.6549  0.5936
   43CHL1   C19 3148   3.231   2.383   7.195  0.6490 -0.2282  0.2366
   43CHL1  H19A 3149   3.231   2.329   7.098 -1.5680 -1.6025  0.9313
   43CHL1  H19B 3150   3.277   2.313   7.267  2.1273 -0.1671 -0.6043
   43CHL1  H19C 3151   3.126   2.403   7.224  1.6024  0.7172  3.4362
   43CHL1    C1 3152   3.231   2.635   7.117  0.1009  0.4929  0.7952
   43CHL1   H1A 3153   3.128   2.633   7.160  0.0176  2.0770  0.7186
   43CHL1   H1B 3154   3.288   2.729   7.126 -1.0424  1.3393 -0.4195
   43CHL1    C2 3155   3.230   2.598   6.965 -0.1598 -0.6677 -0.0773
   43CHL1   H2A 3156   3.180   2.682   6.912  0.1460 -0.6622 -0.3644
   43CHL1   H2B 3157   3.172   2.505   6.954 -0.2362 -0.3667 -2.8750
   43CHL1   C20 3158   3.247   2.611   7.911  0.1972 -0.2188  0.1649
   43CHL1   H20 3159   3.285   2.510   7.936  1.4625  0.3696  0.6835
   43CHL1   C21 3160   3.096   2.622   7.892 -0.0910 -0.4451  0.1417
   43CHL1  H21A 3161   3.067   2.726   7.865 -1.2430 -0.1599  2.2593
   43CHL1  H21B 3162   3.045   2.580   7.981  0.3599  1.4307  1.3393
   43CHL1  H21C 3163   3.082   2.548   7.810  2.1147 -0.8741  0.0992
   43CHL1   C22 3164   3.292   2.712   8.018  0.4115  0.2014 -0.1988
   43CHL1  H22A 3165   3.400   2.702   8.044 -0.2658 -0.8996  2.4991
   43CHL1  H22B 3166   3.274   2.804   7.959 -2.1317 -1.6906 -2.6316
   43CHL1   C23 3167   3.212   2.712   8.150  0.0098  0.8551  0.0082
   43CHL1  H23A 3168   3.102   2.729   8.143 -0.4300 -2.0489 -2.0461
   43CHL1  H23B 3169   3.224   2.607   8.184  2.3180  0.3076 -2.2305
   43CHL1   C24 3170   3.267   2.812   8.258 -0.7826 -0.3817  0.4808
   43CHL1  H24A 3171   3.377   2.806   8.246 -1.1025 -0.6223 -3.4736
   43CHL1  H24B 3172   3.243   2.917   8.231 -0.9488 -0.8426 -1.3062
   43CHL1   C25 3173   3.231   2.790   8.404  0.8508 -0.4676 -0.8730
   43CHL1   H25 3174   3.121   2.775   8.410  1.1615 -2.4573  1.7422
   43CHL1   C26 3175   3.289   2.662   8.462 -0.4766 -0.4325 -0.4387
   43CHL1  H26A 3176   3.264   2.639   8.568  0.2610  0.6095 -0.0257
   43CHL1  H26B 3177   3.264   2.571   8.404  0.1385 -1.9059  1.4938
   43CHL1  H26C 3178   3.399   2.671   8.447 -0.6529  1.0545 -0.9925
   43CHL1   C27 3179   3.259   2.917   8.489 -0.5330  0.1104 -0.4646
   43CHL1  H27A 3180   3.273   2.903   8.599  0.1771  1.2668 -0.3909
   43CHL1  H27B 3181   3.350   2.976   8.463  1.2976  0.1722  4.7991
   43CHL1  H27C 3182   3.180   2.995   8.482  1.4743  2.2369 -0.6170
   44CHL1    C3 3183   2.503   4.775   6.793 -0.7103  0.2178  0.4479
   44CHL1    H3 3184   2.499   4.672   6.836 -1.0391  0.6302  1.4300
   44CHL1    O3 3185   2.512   4.751   6.655  0.1024 -0.0905  0.1171
   44CHL1   H3' 3186   2.592   4.796   6.627  0.1914  0.3589  1.0731
   44CHL1    C4 3187   2.371   4.847   6.816 -0.3512 -0.0882  0.4283
   44CHL1   H4A 3188   2.370   4.948   6.770  2.2697 -0.6305 -1.0026
   44CHL1   H4B 3189   2.291   4.789   6.765  0.7222  0.6234 -2.2613
   44CHL1    C5 3190   2.358   4.855   6.967 -0.4709  0.2385 -0.0448
   44CHL1    C6 3191   2.251   4.807   7.028  0.8095  0.0666  0.7411
   44CHL1    H6 3192   2.186   4.740   6.970  0.7956  0.3415  0.4335
   44CHL1    C7 3193   2.238   4.816   7.174 -0.0745 -0.0188  0.1180
   44CHL1   H7A 3194   2.133   4.849   7.191 -0.2648  0.3004 -1.4653
   44CHL1   H7B 3195   2.261   4.714   7.211 -3.7955 -0.6610  1.0705
   44CHL1    C8 3196   2.324   4.922   7.247 -0.3001 -0.1951  0.0708
   44CHL1    H8 3197   2.280   5.021   7.220  1.3060  0.3420 -0.7249
   44CHL1   C14 3198   2.321   4.896   7.399 -0.6228 -0.2574  0.8446
   44CHL1   H14 3199   2.367   4.795   7.406  0.6525  0.2313 -0.1111
   44CHL1   C15 3200   2.191   4.880   7.471  0.1555 -0.3035 -0.2430
   44CHL1  H15A 3201   2.131   4.969   7.443  2.9699  1.5215 -0.8649
   44CHL1  H15B 3202   2.133   4.787   7.453 -0.5537  0.0592  0.1129
   44CHL1   C16 3203   2.230   4.894   7.617  0.9075  0.6285  0.2490
   44CHL1  H16A 3204   2.169   4.967   7.675  1.2615  0.4782  0.8222
   44CHL1  H16B 3205   2.234   4.799   7.674  4.4591  0.2476 -0.4009
   44CHL1   C17 3206   2.382   4.943   7.617  0.0131  0.1225 -0.3898
   44CHL1   H17 3207   2.444   4.854   7.642  1.8227  1.7829  1.4582
   44CHL1   C13 3208   2.404   4.996   7.472  0.0435 -0.5777 -0.7447
   44CHL1   C18 3209   2.338   5.135   7.447  0.9620  0.1863  0.1169
   44CHL1  H18A 3210   2.346   5.163   7.340  0.2500 -0.4239 -0.1081
   44CHL1  H18B 3211   2.236   5.140   7.491  0.5875  1.0237 -0.8071
   44CHL1  H18C 3212   2.390   5.217   7.499  1.1474  0.6633 -0.8026
   44CHL1   C12 3213   2.545   5.000   7.412 -0.3173  0.3630  0.1571
   44CHL1  H12A 3214   2.613   5.061   7.475 -0.4944  2.0931 -1.2671
   44CHL1  H12B 3215   2.584   4.896   7.415  0.7694  0.5008 -3.7795
   44CHL1   C11 3216   2.551   5.033   7.263  0.0183 -0.1229  0.8892
   44CHL1  H11A 3217   2.515   5.136   7.245  1.2697  0.7814  3.2648
   44CHL1  H11B 3218   2.657   5.036   7.230  0.3146  1.8406  1.9199
   44CHL1    C9 3219   2.466   4.933   7.189  1.1998  0.7183  0.0764
   44CHL1    H9 3220   2.514   4.834   7.207  0.3212  0.2827  0.0884
   44CHL1   C10 3221   2.469   4.941   7.034 -0.5324 -0.2044  0.0955
   44CHL1   C19 3222   2.446   5.089   6.992 -0.2260  0.1346  0.4391
   44CHL1  H19A 3223   2.343   5.114   7.024 -0.3285 -1.2270  1.2296
   44CHL1  H19B 3224   2.520   5.160   7.034  1.8003 -0.9036 -1.1860
   44CHL1  H19C 3225   2.459   5.104   6.882 -0.0916  0.7334  0.5316
   44CHL1    C1 3226   2.607   4.889   6.993  0.5559 -0.2326 -0.2981
   44CHL1   H1A 3227   2.690   4.959   7.018 -0.4607  1.5454 -1.7146
   44CHL1   H1B 3228   2.611   4.788   7.039 -2.0628 -0.0208  0.5265
   44CHL1    C2 3229   2.620   4.860   6.843  0.4093  0.0668 -0.3904
   44CHL1   H2A 3230   2.719   4.812   6.833  0.2892  0.0619 -1.7031
   44CHL1   H2B 3231   2.620   4.959   6.793 -1.8550 -0.2551 -1.1578
   44CHL1   C20 3232   2.407   5.041   7.739 -0.8245 -0.3567  1.3724
   44CHL1   H20 3233   2.334   5.125   7.734  1.7262  1.9405 -1.5699
   44CHL1   C21 3234   2.552   5.099   7.739  0.2936  0.2870  0.4877
   44CHL1  H21A 3235   2.584   5.152   7.832 -2.5603  0.1976  1.6370
   44CHL1  H21B 3236   2.556   5.170   7.654  1.5082  0.7577  0.9121
   44CHL1  H21C 3237   2.619   5.015   7.711 -2.9356 -2.2480 -0.1721
   44CHL1   C22 3238   2.372   4.976   7.877  0.8002 -0.0849 -0.1287
   44CHL1  H22A 3239   2.280   4.915   7.868  0.7336  0.0357 -0.2574
   44CHL1  H22B 3240   2.444   4.897   7.907 -0.3932 -1.1407  0.0418
   44CHL1   C23 3241   2.339   5.074   7.985 -0.0454  0.2755  0.3002
   44CHL1  H23A 3242   2.422   5.142   8.012 -0.9817  1.0747  1.2896
   44CHL1  H23B 3243   2.257   5.137   7.943  0.8020 -0.0811 -2.0293
   44CHL1   C24 3244   2.273   5.010   8.112  0.0937 -0.7874  0.4861
   44CHL1  H24A 3245   2.184   4.953   8.078  0.7882 -1.4697 -0.2354
   44CHL1  H24B 3246   2.350   4.941   8.151 -0.4168 -1.2004  0.7798
   44CHL1   C25 3247   2.221   5.116   8.221  0.4911 -0.4470  0.3315
   44CHL1   H25 3248   2.140   5.180   8.181 -0.6087 -1.3701  1.0243
   44CHL1   C26 3249   2.174   5.037   8.336  0.6173 -0.2446  0.2900
   44CHL1  H26A 3250   2.129   5.100   8.416  1.2980  0.5757  0.0426
   44CHL1  H26B 3251   2.084   4.976   8.311  0.6541  0.6187 -2.2339
   44CHL1  H26C 3252   2.242   4.965   8.386  1.0008 -0.3865 -0.4223
   44CHL1   C27 3253   2.331   5.219   8.263 -0.1830  0.2294  0.0678
   44CHL1  H27A 3254   2.271   5.289   8.325  0.3448  1.6772 -0.9940
   44CHL1  H27B 3255   2.409   5.170   8.325 -0.0439  0.8042  0.3498
   44CHL1  H27C 3256   2.366   5.277   8.175 -0.1096 -1.0088 -0.7406
   45CHL1    C3 3257   3.295   0.152   6.826 -0.2518  0.7347  0.2166
   45CHL1    H3 3258   3.316   0.044   6.844  0.1431  0.6479 -0.7005
   45CHL1    O3 3259   3.269   0.177   6.688 -0.2744  0.1215  0.0290
   45CHL1   H3' 3260   3.252   0.271   6.695 -0.2202  0.1192  0.1947
   45CHL1    C4 3261   3.166   0.177   6.913  0.5310 -0.2185  0.0681
   45CHL1   H4A 3262   3.128   0.280   6.900  0.9598 -0.1789 -0.9232
   45CHL1   H4B 3263   3.090   0.104   6.876  0.2682  0.6238 -1.0989
   45CHL1    C5 3264   3.191   0.154   7.065  0.1980 -0.2023  0.9722
   45CHL1    C6 3265   3.108   0.087   7.149 -0.5779  0.1487 -0.1487
   45CHL1    H6 3266   3.011   0.050   7.113  0.4047  0.0438 -2.8829
   45CHL1    C7 3267   3.127   0.091   7.298  0.4096 -0.2925 -0.4516
   45CHL1   H7A 3268   3.028   0.102   7.346  0.3515  2.5687 -1.0157
   45CHL1   H7B 3269   3.158  -0.010   7.334  0.9415  0.2807  0.7732
   45CHL1    C8 3270   3.226   0.201   7.360 -0.6440  0.4851  0.3841
   45CHL1    H8 3271   3.179   0.301   7.359  1.0304  1.3025 -0.9418
   45CHL1   C14 3272   3.270   0.167   7.500  1.4547 -0.2074 -0.4616
   45CHL1   H14 3273   3.306   0.062   7.500 -1.7657 -1.5006  1.5216
   45CHL1   C15 3274   3.154   0.160   7.604  1.1103  0.3939 -0.8915
   45CHL1  H15A 3275   3.078   0.239   7.584  1.3925  1.0652  0.5640
   45CHL1  H15B 3276   3.102   0.062   7.601  2.1632 -0.3399  1.9335
   45CHL1   C16 3277   3.214   0.169   7.737 -0.2078 -0.0712 -0.2340
   45CHL1  H16A 3278   3.178   0.256   7.796  0.5621 -1.0616  1.7761
   45CHL1  H16B 3279   3.218   0.079   7.802  0.0465  2.4713  3.6087
   45CHL1   C17 3280   3.366   0.203   7.712 -0.7041  0.0878  0.3851
   45CHL1   H17 3281   3.417   0.104   7.706 -0.6025  0.1843 -0.5420
   45CHL1   C13 3282   3.373   0.260   7.562  0.5096  0.4120 -0.3235
   45CHL1   C18 3283   3.314   0.405   7.569 -0.0809  0.4868  0.1206
   45CHL1  H18A 3284   3.373   0.472   7.636 -0.5831  1.8858 -0.8083
   45CHL1  H18B 3285   3.315   0.457   7.472 -1.3902  2.4336  1.0971
   45CHL1  H18C 3286   3.208   0.400   7.600 -0.3614 -0.9095 -0.9705
   45CHL1   C12 3287   3.502   0.240   7.486 -0.3082  0.1606 -0.4461
   45CHL1  H12A 3288   3.575   0.313   7.527 -0.2206  0.2360 -0.7295
   45CHL1  H12B 3289   3.532   0.133   7.488 -0.8803 -0.0008 -0.2201
   45CHL1   C11 3290   3.474   0.273   7.337 -1.0041 -0.9816  0.0918
   45CHL1  H11A 3291   3.454   0.382   7.328  0.3803 -0.4708  2.4747
   45CHL1  H11B 3292   3.567   0.249   7.282  0.3555  0.6055  1.6115
   45CHL1    C9 3293   3.346   0.206   7.269 -0.7032 -0.0203  0.2145
   45CHL1    H9 3294   3.384   0.102   7.259  0.6529  0.6362 -2.4059
   45CHL1   C10 3295   3.310   0.233   7.120 -0.7517  0.0001  0.1974
   45CHL1   C19 3296   3.273   0.384   7.104 -0.1048  0.8956 -0.7267
   45CHL1  H19A 3297   3.348   0.451   7.149  0.2398  0.2239 -0.2766
   45CHL1  H19B 3298   3.254   0.412   6.998 -2.3068  0.2274 -0.5658
   45CHL1  H19C 3299   3.186   0.413   7.168  0.2527  0.4102 -0.0049
   45CHL1    C1 3300   3.433   0.205   7.027  0.3650 -0.1444 -0.4888
   45CHL1   H1A 3301   3.515   0.270   7.065 -1.8169  1.8658  1.0110
   45CHL1   H1B 3302   3.469   0.100   7.030  1.2926  0.1923  0.8094
   45CHL1    C2 3303   3.412   0.232   6.878 -0.2530 -0.3464 -0.2246
   45CHL1   H2A 3304   3.506   0.215   6.821 -1.1626  2.5763 -2.8199
   45CHL1   H2B 3305   3.387   0.337   6.855  0.5956 -0.0545  0.1576
   45CHL1   C20 3306   3.431   0.269   7.836 -0.4690 -0.3316  0.5359
   45CHL1   H20 3307   3.376   0.364   7.854 -0.2221  0.2241 -1.4476
   45CHL1   C21 3308   3.580   0.295   7.804  0.6248 -0.1769 -0.3822
   45CHL1  H21A 3309   3.629   0.343   7.891  1.9094  2.5345 -2.4555
   45CHL1  H21B 3310   3.593   0.357   7.713 -0.6353 -0.6802 -0.9287
   45CHL1  H21C 3311   3.644   0.206   7.786  0.1944 -0.4425 -0.6032
   45CHL1   C22 3312   3.423   0.178   7.967 -1.5899  0.3735  0.6234
   45CHL1  H22A 3313   3.320   0.141   7.983 -0.8782 -1.5732  0.9755
   45CHL1  H22B 3314   3.490   0.093   7.939 -1.1452  1.0638 -0.4765
   45CHL1   C23 3315   3.479   0.246   8.089  0.5814  0.1811 -0.1009
   45CHL1  H23A 3316   3.584   0.278   8.073  0.2373  0.9525 -0.8598
   45CHL1  H23B 3317   3.424   0.343   8.091  1.2468  0.5730 -0.5832
   45CHL1   C24 3318   3.469   0.159   8.218  0.9325 -1.4867  0.0134
   45CHL1  H24A 3319   3.363   0.126   8.226  0.8673 -0.8993  3.5651
   45CHL1  H24B 3320   3.532   0.068   8.211 -0.3943 -2.4235 -0.2259
   45CHL1   C25 3321   3.500   0.240   8.346  1.0094 -0.3800 -0.2392
   45CHL1   H25 3322   3.477   0.179   8.436 -0.8967  0.1151 -0.3654
   45CHL1   C26 3323   3.643   0.291   8.352 -0.4816 -0.0976  0.1884
   45CHL1  H26A 3324   3.671   0.357   8.267 -1.2550  1.5800  1.1855
   45CHL1  H26B 3325   3.657   0.356   8.441  0.0817 -0.7873  0.6163
   45CHL1  H26C 3326   3.719   0.210   8.348 -2.1934 -1.7653 -3.4161
   45CHL1   C27 3327   3.401   0.352   8.369  0.0024 -0.2649  0.1171
   45CHL1  H27A 3328   3.393   0.391   8.473 -1.1145 -0.2018  0.0139
   45CHL1  H27B 3329   3.425   0.433   8.297  1.4507  1.1672  2.1030
   45CHL1  H27C 3330   3.293   0.327   8.360 -0.3220  1.5315 -1.7242
   46CHL1    C3 3331   2.698   0.110   6.891  0.3507 -0.0147 -0.1445
   46CHL1    H3 3332   2.808   0.103   6.885  0.3029  0.0924 -1.4831
   46CHL1    O3 3333   2.640   0.129   6.758  0.1305  0.1933 -0.2699
   46CHL1   H3' 3334   2.677   0.214   6.734  1.2013 -1.0623 -3.6143
   46CHL1    C4 3335   2.637  -0.026   6.943  0.2508 -0.4417  0.1057
   46CHL1   H4A 3336   2.528  -0.011   6.937  0.4369  1.1290  0.3570
   46CHL1   H4B 3337   2.660  -0.110   6.873 -0.9525 -1.3587  0.7714
   46CHL1    C5 3338   2.677  -0.056   7.085  0.0001 -0.0258  0.6690
   46CHL1    C6 3339   2.733  -0.174   7.116 -0.0448  0.4478 -0.8703
   46CHL1    H6 3340   2.752  -0.250   7.037 -0.1706  1.4364 -1.8780
   46CHL1    C7 3341   2.782  -0.208   7.249  0.1717 -0.1193 -0.4836
   46CHL1   H7A 3342   2.768  -0.317   7.265  3.4586 -0.4543  1.0367
   46CHL1   H7B 3343   2.891  -0.191   7.238  0.7949 -3.0611  0.1659
   46CHL1    C8 3344   2.716  -0.119   7.358  0.5499  0.6569  0.2001
   46CHL1    H8 3345   2.611  -0.151   7.371  0.7322 -0.3176 -0.6166
   46CHL1   C14 3346   2.785  -0.136   7.491 -0.1061 -0.1134 -0.0827
   46CHL1   H14 3347   2.890  -0.107   7.469 -0.2457 -0.5246 -1.4058
   46CHL1   C15 3348   2.792  -0.284   7.540  0.3905 -0.4481  0.7256
   46CHL1  H15A 3349   2.695  -0.338   7.547  1.2389 -2.0075  0.8420
   46CHL1  H15B 3350   2.860  -0.341   7.474 -0.2354  0.4234 -0.7450
   46CHL1   C16 3351   2.850  -0.256   7.681  0.3932 -0.6145  0.6204
   46CHL1  H16A 3352   2.822  -0.327   7.762  0.4691  0.1902  1.3724
   46CHL1  H16B 3353   2.960  -0.267   7.669  0.1710 -1.4528 -0.8608
   46CHL1   C17 3354   2.807  -0.108   7.724 -0.6430  0.4665 -0.4773
   46CHL1   H17 3355   2.899  -0.046   7.719  0.2315 -0.7971 -0.5760
   46CHL1   C13 3356   2.724  -0.054   7.606  0.4067  0.2618  0.1891
   46CHL1   C18 3357   2.574  -0.090   7.639  0.2211  0.0454 -0.5390
   46CHL1  H18A 3358   2.558  -0.193   7.676  2.2684 -1.5390 -3.6560
   46CHL1  H18B 3359   2.530  -0.010   7.703  1.0095 -0.5217  0.7657
   46CHL1  H18C 3360   2.516  -0.085   7.545 -0.3859  0.0481 -0.1667
   46CHL1   C12 3361   2.744   0.086   7.569 -0.6134 -0.1161  0.5185
   46CHL1  H12A 3362   2.703   0.160   7.642 -1.9949 -0.4890  0.1514
   46CHL1  H12B 3363   2.852   0.108   7.560 -0.1035 -2.5702  0.0956
   46CHL1   C11 3364   2.686   0.124   7.437  0.3928  0.5609 -0.9144
   46CHL1  H11A 3365   2.576   0.123   7.451  0.4048  2.5178 -0.3636
   46CHL1  H11B 3366   2.692   0.232   7.411 -2.8204  1.3713  1.1543
   46CHL1    C9 3367   2.722   0.031   7.319 -0.0271 -0.2032 -0.4064
   46CHL1    H9 3368   2.829   0.053   7.295 -0.1333 -1.5271 -2.3636
   46CHL1   C10 3369   2.649   0.055   7.184  0.2238  0.0857  0.3273
   46CHL1   C19 3370   2.499   0.055   7.216 -0.0651 -0.1782  0.4148
   46CHL1  H19A 3371   2.483  -0.044   7.264 -0.2046  0.6705  2.1979
   46CHL1  H19B 3372   2.469   0.141   7.280 -0.1265  0.3032 -0.2445
   46CHL1  H19C 3373   2.447   0.070   7.118 -1.2452  1.3105  1.2170
   46CHL1    C1 3374   2.697   0.200   7.130  0.7875 -0.2654 -0.1369
   46CHL1   H1A 3375   2.668   0.283   7.199  1.4651 -0.0895 -0.0626
   46CHL1   H1B 3376   2.808   0.204   7.128  0.9974 -1.8048  3.0601
   46CHL1    C2 3377   2.668   0.231   6.982  0.2189 -0.5984  0.0993
   46CHL1   H2A 3378   2.725   0.321   6.951 -2.2407  0.6575 -1.1080
   46CHL1   H2B 3379   2.560   0.258   6.992  0.1238 -1.5865  2.4695
   46CHL1   C20 3380   2.755  -0.102   7.873  0.1165 -0.1429  0.4161
   46CHL1   H20 3381   2.667  -0.167   7.890  1.3517 -2.0557 -0.1670
   46CHL1   C21 3382   2.728   0.048   7.906  0.3640 -0.2360 -0.4741
   46CHL1  H21A 3383   2.817   0.105   7.872  2.3715 -2.3632  0.9905
   46CHL1  H21B 3384   2.701   0.071   8.011 -1.5206  0.7771 -1.1182
   46CHL1  H21C 3385   2.646   0.095   7.847 -0.1329  0.4047  0.6907
   46CHL1   C22 3386   2.874  -0.149   7.971 -0.5133  0.5837  0.5237
   46CHL1  H22A 3387   2.888  -0.258   7.954  1.7871  1.2849 -3.3062
   46CHL1  H22B 3388   2.974  -0.112   7.939 -1.5122  1.0590 -2.3156
   46CHL1   C23 3389   2.849  -0.121   8.118  0.3341  0.2219  0.1344
   46CHL1  H23A 3390   2.923  -0.185   8.171 -0.0669  2.1640  3.3139
   46CHL1  H23B 3391   2.869  -0.020   8.160  0.0426  0.8779 -1.2340
   46CHL1   C24 3392   2.707  -0.176   8.165 -0.1116 -0.6509  0.8097
   46CHL1  H24A 3393   2.631  -0.121   8.106 -0.0502  1.9031  2.9186
   46CHL1  H24B 3394   2.703  -0.283   8.136 -3.4388 -0.1398 -1.2440
   46CHL1   C25 3395   2.675  -0.146   8.319  1.0115 -0.2258  0.2992
   46CHL1   H25 3396   2.722  -0.046   8.329  1.3356 -0.3655  0.1732
   46CHL1   C26 3397   2.521  -0.158   8.343 -0.1870 -0.7414  0.4085
   46CHL1  H26A 3398   2.478  -0.087   8.269 -0.8950 -1.0182  0.5514
   46CHL1  H26B 3399   2.485  -0.263   8.336 -1.8671 -0.1658 -0.1164
   46CHL1  H26C 3400   2.487  -0.115   8.440  1.1532 -0.5912  0.8460
   46CHL1   C27 3401   2.747  -0.236   8.413  0.0803  0.0589  0.0737
   46CHL1  H27A 3402   2.717  -0.210   8.517  2.6258  0.7590  0.7169
   46CHL1  H27B 3403   2.725  -0.344   8.400 -0.4067  0.0614  0.8280
   46CHL1  H27C 3404   2.856  -0.215   8.420  0.1249 -0.3662  0.8330
   47CHL1    C3 3405   3.112   5.105   6.792 -0.5932  0.5092 -0.1168
   47CHL1    H3 3406   3.051   5.195   6.812 -1.3840 -0.1784  0.6511
   47CHL1    O3 3407   3.151   5.096   6.656  0.0517 -0.0476 -0.5505
   47CHL1   H3' 3408   3.207   5.019   6.644 -0.4029 -0.6776  1.1501
   47CHL1    C4 3409   3.230   5.095   6.880  0.1568 -0.2799  0.3635
   47CHL1   H4A 3410   3.286   5.001   6.861 -0.6120 -0.7216  0.2349
   47CHL1   H4B 3411   3.293   5.181   6.850 -0.0744 -0.3717 -0.4141
   47CHL1    C5 3412   3.195   5.093   7.022  0.1149 -0.4691 -0.5018
   47CHL1    C6 3413   3.243   5.187   7.109  0.2350 -0.2207 -0.3979
   47CHL1    H6 3414   3.307   5.271   7.079  0.7452 -0.3470  0.3195
   47CHL1    C7 3415   3.211   5.186   7.257 -0.3309 -0.3318 -0.7376
   47CHL1   H7A 3416   3.298   5.208   7.323 -2.4676 -2.1987  2.9880
   47CHL1   H7B 3417   3.134   5.264   7.276 -0.2654 -0.8548  2.0073
   47CHL1    C8 3418   3.160   5.053   7.305  0.3409  0.4823  0.4061
   47CHL1    H8 3419   3.244   4.980   7.299  0.5003  0.7567 -1.3693
   47CHL1   C14 3420   3.100   5.051   7.444 -0.3097 -0.6137  0.9698
   47CHL1   H14 3421   3.019   5.128   7.439 -0.3231 -0.3609  3.5896
   47CHL1   C15 3422   3.187   5.116   7.556  0.2639 -0.3534 -0.8457
   47CHL1  H15A 3423   3.294   5.085   7.554  0.4122  0.0794 -0.1600
   47CHL1  H15B 3424   3.187   5.227   7.562 -2.6575 -0.2934 -0.7072
   47CHL1   C16 3425   3.109   5.065   7.691 -0.4836 -0.1969  0.0382
   47CHL1  H16A 3426   3.181   5.002   7.746  0.0998  1.9544  1.8938
   47CHL1  H16B 3427   3.090   5.153   7.756 -0.2680 -1.2228  1.5326
   47CHL1   C17 3428   2.992   4.972   7.641 -0.1019  0.3011  0.5232
   47CHL1   H17 3429   2.901   5.032   7.622 -0.9287 -0.5554  1.6562
   47CHL1   C13 3430   3.034   4.922   7.498 -0.0709  0.1209 -0.3093
   47CHL1   C18 3431   3.136   4.805   7.512 -0.2238 -0.0118 -0.0258
   47CHL1  H18A 3432   3.088   4.710   7.543  1.6826 -1.3477 -0.9602
   47CHL1  H18B 3433   3.182   4.773   7.416  2.1746 -1.7639  1.5891
   47CHL1  H18C 3434   3.222   4.825   7.580  0.1683  0.2705 -0.5962
   47CHL1   C12 3435   2.927   4.881   7.401  0.5144 -0.0419  0.3320
   47CHL1  H12A 3436   2.884   4.783   7.431  1.0038 -0.2973  0.2048
   47CHL1  H12B 3437   2.844   4.954   7.411  1.5264  1.1042  0.6378
   47CHL1   C11 3438   2.979   4.865   7.260  0.5077  0.1330  0.1887
   47CHL1  H11A 3439   3.050   4.780   7.249  1.0791  0.6607 -0.2458
   47CHL1  H11B 3440   2.898   4.853   7.185 -0.2059  0.2035  0.9379
   47CHL1    C9 3441   3.052   4.986   7.204 -0.3919 -0.0274 -0.0080
   47CHL1    H9 3442   2.975   5.065   7.200 -0.5289 -0.2168 -1.4516
   47CHL1   C10 3443   3.095   4.979   7.052 -0.0879 -0.4263 -0.3973
   47CHL1   C19 3444   3.176   4.852   7.035 -0.6618  0.2899 -0.3852
   47CHL1  H19A 3445   3.104   4.767   7.034  0.7446 -0.9903  1.1389
   47CHL1  H19B 3446   3.239   4.842   6.944 -0.9088  0.4204 -0.5722
   47CHL1  H19C 3447   3.234   4.850   7.130 -1.8952  0.4738  0.3902
   47CHL1    C1 3448   2.971   4.983   6.962  0.8305  0.3093  0.3184
   47CHL1   H1A 3449   2.898   4.901   6.977 -0.0486  1.4571  2.9658
   47CHL1   H1B 3450   2.917   5.075   6.991 -2.1124 -1.7961  2.0728
   47CHL1    C2 3451   3.015   4.993   6.815 -0.2995  0.1769  0.0405
   47CHL1   H2A 3452   2.925   5.012   6.752  0.1919  1.0520 -0.4105
   47CHL1   H2B 3453   3.061   4.903   6.768  3.1021  1.7530  0.0767
   47CHL1   C20 3454   2.946   4.866   7.748 -0.4926 -0.4156  0.0308
   47CHL1   H20 3455   3.037   4.808   7.773 -0.5950 -0.3377  0.6110
   47CHL1   C21 3456   2.841   4.765   7.693 -0.0621 -0.5415 -0.5241
   47CHL1  H21A 3457   2.803   4.707   7.780 -3.0336  2.5415  0.4493
   47CHL1  H21B 3458   2.894   4.693   7.627 -0.9658 -0.7633 -1.0228
   47CHL1  H21C 3459   2.767   4.831   7.643  0.7128  0.4421 -0.3937
   47CHL1   C22 3460   2.890   4.945   7.866  0.6604 -0.0255  0.0317
   47CHL1  H22A 3461   2.980   4.987   7.915 -0.2369  2.6451 -0.4405
   47CHL1  H22B 3462   2.816   5.024   7.838  0.1350 -0.5096  0.0503
   47CHL1   C23 3463   2.820   4.857   7.974  0.1892 -0.7079 -0.7941
   47CHL1  H23A 3464   2.769   4.931   8.039  0.9999  1.7124 -2.7420
   47CHL1  H23B 3465   2.732   4.805   7.931 -1.7482  0.6551  1.2845
   47CHL1   C24 3466   2.919   4.766   8.055 -0.6581  0.8576  0.4604
   47CHL1  H24A 3467   2.965   4.709   7.972 -0.6160  2.0897 -0.3893
   47CHL1  H24B 3468   2.998   4.823   8.110  0.4228  0.7590 -0.9334
   47CHL1   C25 3469   2.854   4.682   8.167  0.3718 -0.3458 -0.1348
   47CHL1   H25 3470   2.779   4.618   8.116  0.0767 -1.7973  1.9631
   47CHL1   C26 3471   2.955   4.600   8.245 -0.4063 -0.5211  0.2511
   47CHL1  H26A 3472   3.031   4.553   8.179  0.6159  0.3884  0.7443
   47CHL1  H26B 3473   3.011   4.654   8.325  1.3843 -0.7117 -0.8117
   47CHL1  H26C 3474   2.901   4.518   8.296 -0.0540 -1.3457 -0.6743
   47CHL1   C27 3475   2.788   4.778   8.270  0.0711  0.4034 -0.0157
   47CHL1  H27A 3476   2.745   4.871   8.229 -0.0294  0.0935 -0.6319
   47CHL1  H27B 3477   2.707   4.719   8.318 -0.4624  0.6036 -0.6620
   47CHL1  H27C 3478   2.864   4.801   8.348 -0.5871 -1.4911  1.2616
   48CHL1    C3 3479   5.543   0.819   6.614 -0.3492 -0.5262  0.5418
   48CHL1    H3 3480   5.444   0.867   6.628 -0.0399  0.0591  0.7488
   48CHL1    O3 3481   5.580   0.810   6.476 -0.4794  0.0894  0.1590
   48CHL1   H3' 3482   5.655   0.749   6.481  1.3607  2.3159  2.0458
   48CHL1    C4 3483   5.638   0.924   6.683  0.0505  0.0361  0.2967
   48CHL1   H4A 3484   5.744   0.912   6.652  0.5135  1.0710  1.3967
   48CHL1   H4B 3485   5.618   1.022   6.634  1.6673  0.3267  0.1497
   48CHL1    C5 3486   5.629   0.930   6.832  1.2015  0.1050  0.0736
   48CHL1    C6 3487   5.602   1.045   6.900  1.2574  0.2035 -0.1427
   48CHL1    H6 3488   5.590   1.138   6.842  0.6219 -0.9618 -1.9639
   48CHL1    C7 3489   5.610   1.062   7.048 -0.6062 -0.1518 -0.3362
   48CHL1   H7A 3490   5.674   1.149   7.075 -1.6057  0.2368  0.9015
   48CHL1   H7B 3491   5.510   1.068   7.096 -0.3313 -2.1847  0.5789
   48CHL1    C8 3492   5.664   0.935   7.122  0.1528 -0.4706  0.1712
   48CHL1    H8 3493   5.775   0.942   7.112  0.1439  0.1404  0.4107
   48CHL1   C14 3494   5.635   0.937   7.270  0.0304  0.0327 -0.6113
   48CHL1   H14 3495   5.525   0.932   7.278  0.1773 -1.3213  1.4818
   48CHL1   C15 3496   5.660   1.061   7.357  0.2325 -0.2419 -0.3989
   48CHL1  H15A 3497   5.755   1.118   7.343  0.3261 -0.5563 -1.0617
   48CHL1  H15B 3498   5.578   1.135   7.342 -2.2754 -3.1088 -2.0310
   48CHL1   C16 3499   5.661   1.007   7.506  0.0983  0.2365  0.3865
   48CHL1  H16A 3500   5.765   1.012   7.545  0.2692  0.3870 -0.0790
   48CHL1  H16B 3501   5.578   1.048   7.568 -0.2929 -1.4051  1.0014
   48CHL1   C17 3502   5.631   0.859   7.493 -0.1835 -0.4125 -0.1609
   48CHL1   H17 3503   5.521   0.847   7.492 -0.0911 -1.2938 -0.5897
   48CHL1   C13 3504   5.677   0.825   7.351 -0.2509 -0.1580 -0.0956
   48CHL1   C18 3505   5.828   0.819   7.350  0.3147 -0.1630 -0.2329
   48CHL1  H18A 3506   5.872   0.750   7.426 -0.4896 -0.0069  0.3886
   48CHL1  H18B 3507   5.860   0.785   7.249 -0.9585 -0.5210 -0.5360
   48CHL1  H18C 3508   5.888   0.910   7.370  1.6301 -1.4770  2.2995
   48CHL1   C12 3509   5.616   0.694   7.296 -0.3934  0.3137 -0.2106
   48CHL1  H12A 3510   5.681   0.615   7.337  2.3351  1.3608 -2.2339
   48CHL1  H12B 3511   5.507   0.677   7.312 -1.0511 -0.5293 -4.3091
   48CHL1   C11 3512   5.640   0.684   7.144 -0.2406  0.9391  0.0271
   48CHL1  H11A 3513   5.745   0.648   7.137 -1.4630 -2.8507 -1.2242
   48CHL1  H11B 3514   5.593   0.594   7.099  0.6586 -0.0595  1.0265
   48CHL1    C9 3515   5.604   0.808   7.057 -0.0302 -0.3198 -0.2833
   48CHL1    H9 3516   5.493   0.816   7.055 -0.1808 -1.6810 -3.4371
   48CHL1   C10 3517   5.646   0.793   6.909 -0.1874 -0.7358 -0.1847
   48CHL1   C19 3518   5.794   0.762   6.882 -0.2925  0.6168 -0.0435
   48CHL1  H19A 3519   5.812   0.666   6.935  0.4635  1.6219  1.6246
   48CHL1  H19B 3520   5.811   0.741   6.775 -0.5324 -1.1180  0.2365
   48CHL1  H19C 3521   5.868   0.834   6.923  0.7692 -1.2678  1.4789
   48CHL1    C1 3522   5.558   0.691   6.840  0.6141 -0.3234  0.3914
   48CHL1   H1A 3523   5.566   0.589   6.884 -1.8762 -0.5491  0.4478
   48CHL1   H1B 3524   5.453   0.721   6.860  0.1247 -0.9535 -1.0680
   48CHL1    C2 3525   5.562   0.685   6.686 -0.7401  0.1618  0.3201
   48CHL1   H2A 3526   5.475   0.629   6.645  2.0155 -3.4999 -1.0923
   48CHL1   H2B 3527   5.653   0.630   6.651 -0.1923  1.5699 -0.5804
   48CHL1   C20 3528   5.680   0.781   7.611 -0.6099 -0.1757 -0.2090
   48CHL1   H20 3529   5.789   0.764   7.602 -0.4840  0.9536 -1.0793
   48CHL1   C21 3530   5.609   0.647   7.609  0.4063  0.2601  0.3218
   48CHL1  H21A 3531   5.611   0.618   7.716  0.4699 -0.2477  0.1833
   48CHL1  H21B 3532   5.663   0.574   7.545 -0.3297 -0.4176  0.4648
   48CHL1  H21C 3533   5.503   0.646   7.576  0.5520 -0.6426 -0.1305
   48CHL1   C22 3534   5.658   0.845   7.750 -0.3700  0.1416  0.2219
   48CHL1  H22A 3535   5.692   0.951   7.748  2.6757 -0.6205 -4.1967
   48CHL1  H22B 3536   5.548   0.837   7.759 -0.6815  0.2289 -2.5175
   48CHL1   C23 3537   5.733   0.769   7.870  0.3105 -0.6132  0.3700
   48CHL1  H23A 3538   5.702   0.663   7.870 -4.0646  0.4508 -1.4390
   48CHL1  H23B 3539   5.839   0.775   7.837  0.8128 -1.1940  1.7804
   48CHL1   C24 3540   5.689   0.844   7.994  0.1044  0.0724 -0.0582
   48CHL1  H24A 3541   5.699   0.951   7.968 -2.6406  0.2096 -0.8353
   48CHL1  H24B 3542   5.579   0.832   8.005  0.0913  0.3754  0.1319
   48CHL1   C25 3543   5.759   0.805   8.120 -1.1175  0.0088 -0.5234
   48CHL1   H25 3544   5.733   0.702   8.152  0.9076 -0.2865  0.3148
   48CHL1   C26 3545   5.912   0.832   8.115 -0.2515  0.2812  0.0549
   48CHL1  H26A 3546   5.952   0.823   8.218 -1.2845 -0.8034  0.3993
   48CHL1  H26B 3547   5.960   0.759   8.046  0.1948 -0.3884  1.0504
   48CHL1  H26C 3548   5.926   0.937   8.083 -2.3830  0.2234 -1.2868
   48CHL1   C27 3549   5.712   0.894   8.238  0.2348  0.3230 -0.0642
   48CHL1  H27A 3550   5.726   1.003   8.222  0.2166  0.3306 -0.0290
   48CHL1  H27B 3551   5.606   0.873   8.263  0.6615 -0.8188  0.8956
   48CHL1  H27C 3552   5.777   0.863   8.323  1.5773 -1.7439 -1.7331
   49CHL1    C3 3553   5.659   4.017   6.856 -0.2203 -0.1642 -0.6059
   49CHL1    H3 3554   5.709   3.919   6.842 -2.0763 -0.9525 -2.1256
   49CHL1    O3 3555   5.669   4.074   6.724  0.0638  0.4360  0.3308
   49CHL1   H3' 3556   5.727   4.019   6.671 -1.6864 -1.2067  0.0267
   49CHL1    C4 3557   5.511   4.004   6.900 -0.1903  0.7327  0.4613
   49CHL1   H4A 3558   5.457   4.097   6.873 -0.5170  0.2893 -0.4510
   49CHL1   H4B 3559   5.469   3.919   6.842 -1.9865  1.5011  0.5642
   49CHL1    C5 3560   5.496   3.981   7.051  0.3676  0.0755 -0.4873
   49CHL1    C6 3561   5.415   3.887   7.100 -0.0918 -0.5370 -0.5419
   49CHL1    H6 3562   5.347   3.837   7.030 -0.0556  1.4505 -2.0860
   49CHL1    C7 3563   5.380   3.870   7.248  0.3537  1.3305 -0.3592
   49CHL1   H7A 3564   5.271   3.870   7.270  0.4818 -1.1653  0.5925
   49CHL1   H7B 3565   5.424   3.781   7.299 -2.5747  1.4664  2.7419
   49CHL1    C8 3566   5.429   3.990   7.327  0.2240  0.0793 -0.6859
   49CHL1    H8 3567   5.359   4.074   7.307  2.3038  1.5442 -2.2177
   49CHL1   C14 3568   5.431   3.943   7.474 -0.1777  0.2812  1.5563
   49CHL1   H14 3569   5.508   3.864   7.486  1.1269  1.3010  0.2708
   49CHL1   C15 3570   5.306   3.888   7.529  0.3189 -0.2015  0.0828
   49CHL1  H15A 3571   5.216   3.928   7.477 -0.2744  0.2115  1.3650
   49CHL1  H15B 3572   5.301   3.780   7.504 -0.8975  0.4043 -2.6575
   49CHL1   C16 3573   5.311   3.908   7.675 -0.0459 -0.9458 -0.4798
   49CHL1  H16A 3574   5.226   3.971   7.710  1.0065 -0.9550  2.2867
   49CHL1  H16B 3575   5.311   3.813   7.731  0.9108 -1.8246 -1.8967
   49CHL1   C17 3576   5.443   3.993   7.709  0.5458  0.2398  0.8345
   49CHL1   H17 3577   5.529   3.925   7.730  0.2768 -0.0786  0.9122
   49CHL1   C13 3578   5.475   4.058   7.573 -0.7108  0.2695  0.2956
   49CHL1   C18 3579   5.390   4.183   7.550  0.1045  0.0578  0.3415
   49CHL1  H18A 3580   5.284   4.150   7.555  0.0709 -0.3170 -1.7462
   49CHL1  H18B 3581   5.408   4.269   7.618  1.3701  0.2638 -0.2158
   49CHL1  H18C 3582   5.405   4.232   7.451 -2.0058  0.1815  0.0433
   49CHL1   C12 3583   5.625   4.078   7.539 -0.3984  0.6459  0.0763
   49CHL1  H12A 3584   5.672   4.149   7.610  4.1638 -1.5019 -0.4672
   49CHL1  H12B 3585   5.669   3.978   7.559  0.1750  1.2705  2.1024
   49CHL1   C11 3586   5.641   4.121   7.392  0.3409 -0.3527 -0.0871
   49CHL1  H11A 3587   5.599   4.224   7.397  0.7234 -0.1446 -0.9357
   49CHL1  H11B 3588   5.749   4.133   7.369  0.9490 -1.5628  1.8813
   49CHL1    C9 3589   5.569   4.030   7.293  0.5605 -0.5164 -0.1069
   49CHL1    H9 3590   5.624   3.934   7.287 -0.3726 -0.9912 -1.5938
   49CHL1   C10 3591   5.574   4.072   7.145  0.2049  0.6147 -0.7143
   49CHL1   C19 3592   5.526   4.224   7.136  0.0129  0.7511 -0.4345
   49CHL1  H19A 3593   5.486   4.245   7.034  1.2314 -0.7833 -1.2826
   49CHL1  H19B 3594   5.449   4.249   7.212  0.2586 -0.4364  0.2264
   49CHL1  H19C 3595   5.617   4.281   7.160 -0.7491  1.6089  0.4933
   49CHL1    C1 3596   5.721   4.067   7.099 -0.7213  0.0293  0.7286
   49CHL1   H1A 3597   5.787   4.132   7.160 -0.0105  0.2900 -0.2848
   49CHL1   H1B 3598   5.755   3.962   7.117 -1.2624 -0.6902 -1.9819
   49CHL1    C2 3599   5.748   4.101   6.948 -0.1447  0.3353 -0.2462
   49CHL1   H2A 3600   5.856   4.081   6.934  0.3733 -0.2056  3.4953
   49CHL1   H2B 3601   5.730   4.210   6.937  4.1408  1.0399 -2.2236
   49CHL1   C20 3602   5.434   4.091   7.830 -0.6252 -0.6172  0.6083
   49CHL1   H20 3603   5.361   4.173   7.815 -1.0010 -0.1771  4.0469
   49CHL1   C21 3604   5.569   4.160   7.858  0.0221  0.0079 -0.4291
   49CHL1  H21A 3605   5.583   4.241   7.783  0.6693  1.0867  0.8159
   49CHL1  H21B 3606   5.650   4.087   7.879 -0.0575  0.0441 -0.0046
   49CHL1  H21C 3607   5.562   4.213   7.955 -0.1888 -1.7680  0.5672
   49CHL1   C22 3608   5.392   4.013   7.956 -0.5049  0.2719  0.2948
   49CHL1  H22A 3609   5.299   3.959   7.929 -0.3981  0.7726 -1.1457
   49CHL1  H22B 3610   5.470   3.937   7.980  0.0149 -0.1559 -2.3902
   49CHL1   C23 3611   5.372   4.083   8.092 -0.0558 -0.2963  0.1402
   49CHL1  H23A 3612   5.384   4.003   8.168  0.4078 -0.0257  0.3578
   49CHL1  H23B 3613   5.454   4.158   8.101 -1.2928  1.5023 -2.4703
   49CHL1   C24 3614   5.230   4.139   8.102  0.0327 -0.0327  0.1125
   49CHL1  H24A 3615   5.221   4.216   8.023  1.7839  0.3203  0.2118
   49CHL1  H24B 3616   5.164   4.054   8.075 -0.1853  0.7253 -1.8757
   49CHL1   C25 3617   5.184   4.196   8.236 -0.3550  0.0314  0.6579
   49CHL1   H25 3618   5.243   4.283   8.272 -0.1954 -0.3161  1.2531
   49CHL1   C26 3619   5.036   4.250   8.222  0.0751 -0.2063  0.3508
   49CHL1  H26A 3620   4.959   4.177   8.190  0.6296 -1.6503  2.1217
   49CHL1  H26B 3621   5.001   4.296   8.317  1.6230  1.0071  0.3773
   49CHL1  H26C 3622   5.036   4.333   8.148  2.2265 -0.5056 -0.0557
   49CHL1   C27 3623   5.186   4.087   8.343  0.6500  0.8850  0.1615
   49CHL1  H27A 3624   5.289   4.048   8.351 -0.1691 -1.4678  0.0897
   49CHL1  H27B 3625   5.149   4.122   8.442  4.3539  1.0767  1.6424
   49CHL1  H27C 3626   5.121   4.000   8.321  0.9189  0.4541  1.0183
   50CHL1    C3 3627   5.494   4.684   6.847  0.0122 -0.3121  0.0324
   50CHL1    H3 3628   5.416   4.610   6.877  0.3128 -0.0349  1.5705
   50CHL1    O3 3629   5.488   4.697   6.707  0.2176  0.4048  0.6707
   50CHL1   H3' 3630   5.549   4.770   6.691 -2.0469  1.8958 -1.9773
   50CHL1    C4 3631   5.455   4.822   6.914 -0.2028  0.0425  0.3129
   50CHL1   H4A 3632   5.538   4.891   6.886 -1.4174  1.2864 -0.3152
   50CHL1   H4B 3633   5.362   4.853   6.862  0.1245 -0.1366 -0.4002
   50CHL1    C5 3634   5.446   4.795   7.064 -0.1924  0.1687  0.1369
   50CHL1    C6 3635   5.342   4.838   7.141  0.2957  0.1463 -0.0069
   50CHL1    H6 3636   5.260   4.891   7.091 -1.6180 -0.9365  1.8349
   50CHL1    C7 3637   5.328   4.821   7.297 -0.1771 -1.1062  0.6446
   50CHL1   H7A 3638   5.302   4.914   7.352 -0.0339 -1.1336  0.7588
   50CHL1   H7B 3639   5.265   4.734   7.326  0.5067 -1.6557  0.5027
   50CHL1    C8 3640   5.469   4.780   7.359 -0.3995  1.0424 -0.1124
   50CHL1    H8 3641   5.534   4.871   7.356  1.3679 -0.1946 -0.9808
   50CHL1   C14 3642   5.442   4.726   7.499  0.4894  0.0264  0.2997
   50CHL1   H14 3643   5.384   4.632   7.488  0.8056 -0.0068 -1.4251
   50CHL1   C15 3644   5.365   4.816   7.599  0.2045 -0.1232 -0.4251
   50CHL1  H15A 3645   5.391   4.924   7.592 -2.3613  0.5520 -0.7241
   50CHL1  H15B 3646   5.255   4.813   7.586  0.1058  3.6918 -1.5157
   50CHL1   C16 3647   5.398   4.754   7.741  0.0153 -0.1216  0.1020
   50CHL1  H16A 3648   5.445   4.832   7.804  1.6970 -0.6822 -0.4005
   50CHL1  H16B 3649   5.306   4.706   7.782 -0.3755 -0.9164 -1.6096
   50CHL1   C17 3650   5.513   4.647   7.712  0.5053 -0.8970 -0.5304
   50CHL1   H17 3651   5.463   4.548   7.707 -2.1267  0.2618  0.9553
   50CHL1   C13 3652   5.564   4.673   7.569  0.0991 -0.1720  0.1731
   50CHL1   C18 3653   5.680   4.776   7.564 -0.1047  0.6234  0.0691
   50CHL1  H18A 3654   5.775   4.743   7.611  0.5449  3.6046  1.0297
   50CHL1  H18B 3655   5.706   4.805   7.460  1.5227 -1.1768 -0.0906
   50CHL1  H18C 3656   5.651   4.871   7.612  1.4133 -0.0376  2.4430
   50CHL1   C12 3657   5.615   4.555   7.481  0.0677  0.1335 -0.4474
   50CHL1  H12A 3658   5.697   4.508   7.539 -1.0214 -1.8804 -0.4264
   50CHL1  H12B 3659   5.525   4.489   7.487 -0.9683  1.4977 -0.4196
   50CHL1   C11 3660   5.649   4.596   7.340 -0.2205  0.9538 -0.4701
   50CHL1  H11A 3661   5.742   4.657   7.328  0.7461 -0.1822  0.9525
   50CHL1  H11B 3662   5.672   4.499   7.291  0.7581  0.4135  1.0037
   50CHL1    C9 3663   5.538   4.670   7.268  0.8902 -0.4379 -0.2069
   50CHL1    H9 3664   5.463   4.590   7.254  1.1581 -1.3391  2.8041
   50CHL1   C10 3665   5.569   4.719   7.126  0.3698 -0.2982 -0.2407
   50CHL1   C19 3666   5.690   4.826   7.129  0.4945  1.0579 -0.6113
   50CHL1  H19A 3667   5.696   4.860   7.024 -2.2448  0.1616 -1.1318
   50CHL1  H19B 3668   5.668   4.912   7.196  1.1075 -0.1186  1.2059
   50CHL1  H19C 3669   5.784   4.785   7.173 -0.1304 -0.4425 -0.5986
   50CHL1    C1 3670   5.620   4.599   7.037 -0.5688  0.0521 -0.6450
   50CHL1   H1A 3671   5.718   4.566   7.078 -2.2892 -2.5737  1.7728
   50CHL1   H1B 3672   5.554   4.511   7.054 -0.1349 -0.2350 -0.4117
   50CHL1    C2 3673   5.633   4.634   6.887 -0.1754 -0.1582  0.2056
   50CHL1   H2A 3674   5.674   4.547   6.832  1.2666  1.3225 -1.1815
   50CHL1   H2B 3675   5.706   4.717   6.877 -0.1815 -0.1006  0.6048
   50CHL1   C20 3676   5.610   4.641   7.838  0.4420 -0.4192  0.0303
   50CHL1   H20 3677   5.674   4.729   7.818 -0.0731 -0.1721 -0.5316
   50CHL1   C21 3678   5.697   4.513   7.836 -0.0802  0.7033  0.0164
   50CHL1  H21A 3679   5.636   4.420   7.838 -0.8186  1.1961  1.3829
   50CHL1  H21B 3680   5.756   4.499   7.928  1.8852  2.5724 -0.8767
   50CHL1  H21C 3681   5.774   4.519   7.756 -0.0189  1.1784  0.1095
   50CHL1   C22 3682   5.550   4.647   7.980 -0.0376  0.2284  0.2637
   50CHL1  H22A 3683   5.640   4.655   8.046  1.8498 -0.5886 -2.0583
   50CHL1  H22B 3684   5.483   4.734   7.995 -0.8583 -0.1891 -0.8874
   50CHL1   C23 3685   5.460   4.527   8.013  0.1828  0.5389  0.2456
   50CHL1  H23A 3686   5.385   4.527   7.931 -0.1233 -0.6411  0.5117
   50CHL1  H23B 3687   5.511   4.429   8.003  0.5260  0.6910  0.5048
   50CHL1   C24 3688   5.381   4.536   8.150 -0.0288 -0.0752 -0.5384
   50CHL1  H24A 3689   5.336   4.637   8.143 -2.5204 -0.9877  1.0217
   50CHL1  H24B 3690   5.302   4.458   8.157  0.5594 -0.4919  2.6345
   50CHL1   C25 3691   5.472   4.534   8.273 -0.8207  0.1384 -0.3104
   50CHL1   H25 3692   5.543   4.614   8.244 -0.4804  0.1759  0.5872
   50CHL1   C26 3693   5.406   4.597   8.396  0.2905  0.5228 -0.3539
   50CHL1  H26A 3694   5.480   4.610   8.477  0.3522  2.1500 -0.6314
   50CHL1  H26B 3695   5.361   4.696   8.374  0.6860  1.0102  0.9423
   50CHL1  H26C 3696   5.324   4.527   8.418  1.4158 -2.0191 -3.3866
   50CHL1   C27 3697   5.538   4.393   8.307  0.5312  0.0822  0.4985
   50CHL1  H27A 3698   5.601   4.351   8.226  1.5241  2.0110  0.2132
   50CHL1  H27B 3699   5.600   4.399   8.400  1.7493  1.6520 -0.3633
   50CHL1  H27C 3700   5.455   4.325   8.333  0.0540  1.0601  1.6626
   51CHL1    C3 3701   0.067   2.960   6.992  0.2805  0.3687 -0.0018
   51CHL1    H3 3702   0.054   2.851   7.014  1.3264  0.1280 -0.5211
   51CHL1    O3 3703   0.092   2.970   6.857  0.5245  0.2427  0.0940
   51CHL1   H3' 3704   0.096   3.063   6.836 -1.0250  0.8080  2.0060
   51CHL1    C4 3705  -0.070   3.023   7.027 -0.1850 -0.1276  0.3241
   51CHL1   H4A 3706  -0.059   3.131   7.003  0.7210  0.6224  3.6714
   51CHL1   H4B 3707  -0.140   2.976   6.954 -0.1407 -0.5077  0.5261
   51CHL1    C5 3708  -0.117   3.012   7.168 -0.1755  0.6918  0.8854
   51CHL1    C6 3709  -0.238   2.954   7.196 -0.2096 -0.5403 -0.9736
   51CHL1    H6 3710  -0.296   2.912   7.112 -1.6045  1.6193 -1.1800
   51CHL1    C7 3711  -0.289   2.945   7.337  0.1728 -0.3642 -0.4248
   51CHL1   H7A 3712  -0.395   2.981   7.341  0.3891  0.1612  1.0307
   51CHL1   H7B 3713  -0.300   2.840   7.369 -0.5963  0.6050  2.9174
   51CHL1    C8 3714  -0.192   3.022   7.439 -0.4611  0.5098 -0.1629
   51CHL1    H8 3715  -0.211   3.131   7.429 -0.1946  0.4518 -1.6375
   51CHL1   C14 3716  -0.214   2.979   7.585 -0.3329 -0.8095  0.2294
   51CHL1   H14 3717  -0.179   2.873   7.583 -1.0598 -1.0538 -1.0387
   51CHL1   C15 3718  -0.361   2.978   7.634  0.3549 -0.3394  0.1967
   51CHL1  H15A 3719  -0.421   3.060   7.590  1.2047  0.8568  1.2124
   51CHL1  H15B 3720  -0.408   2.882   7.603  1.0523 -0.9562  0.9926
   51CHL1   C16 3721  -0.348   2.987   7.790 -0.0867  0.1633 -0.1181
   51CHL1  H16A 3722  -0.377   3.089   7.825  0.6146 -0.0519  1.1360
   51CHL1  H16B 3723  -0.403   2.914   7.852  0.0804  0.3502  0.2512
   51CHL1   C17 3724  -0.193   2.963   7.824 -0.6001 -0.0210  0.8227
   51CHL1   H17 3725  -0.181   2.855   7.798  2.2210 -0.0666  1.9146
   51CHL1   C13 3726  -0.123   3.031   7.699  0.2124 -0.2141 -0.6262
   51CHL1   C18 3727  -0.151   3.183   7.706 -0.0508  0.8038  0.0342
   51CHL1  H18A 3728  -0.249   3.206   7.752  0.8453  1.5504  1.6321
   51CHL1  H18B 3729  -0.071   3.232   7.764  0.3907  1.4928 -1.1136
   51CHL1  H18C 3730  -0.139   3.231   7.606 -3.0433 -0.5284 -1.1093
   51CHL1   C12 3731   0.023   2.991   7.660 -0.2599 -0.1064 -0.2878
   51CHL1  H12A 3732   0.087   3.043   7.734  0.1390 -1.8100  0.5920
   51CHL1  H12B 3733   0.037   2.881   7.665 -1.7545 -0.4794 -2.5906
   51CHL1   C11 3734   0.055   3.050   7.518  0.3161  0.3267 -0.6119
   51CHL1  H11A 3735   0.048   3.161   7.517  0.4375  0.3343 -1.5890
   51CHL1  H11B 3736   0.163   3.030   7.500  0.2580 -0.4035 -0.2185
   51CHL1    C9 3737  -0.043   2.999   7.410 -0.0298  0.4463  0.3456
   51CHL1    H9 3738  -0.029   2.890   7.422  0.4761  0.5362  0.5947
   51CHL1   C10 3739  -0.007   3.051   7.266  0.6824  0.1194  0.1124
   51CHL1   C19 3740   0.011   3.203   7.268 -0.7923 -1.0670 -0.1729
   51CHL1  H19A 3741   0.018   3.248   7.167 -1.5236  0.4643  0.4132
   51CHL1  H19B 3742  -0.067   3.264   7.318  0.8137  0.7302  0.2786
   51CHL1  H19C 3743   0.104   3.233   7.321 -1.1631 -0.6614  0.2618
   51CHL1    C1 3744   0.136   2.988   7.223  0.7549 -0.3697  0.1901
   51CHL1   H1A 3745   0.218   3.021   7.291  0.5898 -2.7680  1.6719
   51CHL1   H1B 3746   0.118   2.880   7.242 -2.5213  0.0593 -0.0145
   51CHL1    C2 3747   0.174   3.014   7.077  0.2384 -0.3471  0.0812
   51CHL1   H2A 3748   0.272   2.970   7.047  2.0365  1.3107  3.0184
   51CHL1   H2B 3749   0.169   3.124   7.064 -1.4064 -0.1995  1.5545
   51CHL1   C20 3750  -0.149   3.000   7.965  0.0644  1.0253 -0.4965
   51CHL1   H20 3751  -0.124   3.108   7.966  1.0184  0.8335 -1.7900
   51CHL1   C21 3752  -0.020   2.924   7.988 -0.0465 -0.0413 -0.1880
   51CHL1  H21A 3753  -0.031   2.814   7.981 -2.9989  0.1993 -0.7141
   51CHL1  H21B 3754   0.021   2.934   8.091  2.2276  2.0181 -1.1946
   51CHL1  H21C 3755   0.056   2.974   7.925  0.6531  0.2205  0.8413
   51CHL1   C22 3756  -0.263   2.974   8.072 -0.3716 -0.1549  0.0564
   51CHL1  H22A 3757  -0.360   3.017   8.038 -1.9405 -2.3018  1.5644
   51CHL1  H22B 3758  -0.285   2.866   8.089  2.1681 -0.4312  2.1496
   51CHL1   C23 3759  -0.229   3.043   8.209  0.3060  0.0945 -0.1243
   51CHL1  H23A 3760  -0.128   3.007   8.240  0.7652  1.4097 -0.0002
   51CHL1  H23B 3761  -0.221   3.154   8.200  0.3725  0.2218  1.2794
   51CHL1   C24 3762  -0.331   3.019   8.319  0.9771 -0.5712  0.2516
   51CHL1  H24A 3763  -0.421   3.073   8.282  2.2913  1.5715  0.0398
   51CHL1  H24B 3764  -0.351   2.910   8.328  0.0756 -0.4767 -0.3823
   51CHL1   C25 3765  -0.286   3.073   8.455 -0.0579  0.5385 -0.0521
   51CHL1   H25 3766  -0.187   3.024   8.460 -0.8611 -1.1327  0.1716
   51CHL1   C26 3767  -0.264   3.223   8.460  0.1046 -0.7413 -0.2158
   51CHL1  H26A 3768  -0.269   3.249   8.568 -1.2291  0.8849 -0.6270
   51CHL1  H26B 3769  -0.163   3.247   8.420 -0.6246  0.7816 -1.2608
   51CHL1  H26C 3770  -0.343   3.275   8.402 -0.5196 -0.5476  0.7896
   51CHL1   C27 3771  -0.386   3.012   8.556  0.3265  0.4079  0.1545
   51CHL1  H27A 3772  -0.376   2.901   8.561 -0.4565  0.2702 -0.9014
   51CHL1  H27B 3773  -0.361   3.046   8.658 -0.0490 -0.6473  0.6123
   51CHL1  H27C 3774  -0.483   3.058   8.524  1.2151  1.4275 -1.1762
   52CHL1    C3 3775   0.338   2.675   6.918 -1.3222  0.4862 -0.6240
   52CHL1    H3 3776   0.269   2.755   6.952 -0.5781  0.2187  1.6701
   52CHL1    O3 3777   0.390   2.687   6.788  0.3273 -0.3071  0.9774
   52CHL1   H3' 3778   0.306   2.686   6.741  0.7587  1.0578  0.1154
   52CHL1    C4 3779   0.461   2.692   7.015 -0.1678  0.3871  0.2430
   52CHL1   H4A 3780   0.535   2.613   6.987 -1.4993 -0.9538  0.3982
   52CHL1   H4B 3781   0.511   2.789   6.995  0.0000  0.1082 -0.7774
   52CHL1    C5 3782   0.414   2.672   7.156  0.2060 -0.3177 -0.0698
   52CHL1    C6 3783   0.431   2.776   7.236 -0.2257 -0.1598 -0.8803
   52CHL1    H6 3784   0.473   2.869   7.193 -1.6608  1.4870  1.0921
   52CHL1    C7 3785   0.382   2.782   7.378  0.3734 -0.2267  0.0608
   52CHL1   H7A 3786   0.452   2.829   7.450  0.5981 -0.5217  0.0397
   52CHL1   H7B 3787   0.295   2.851   7.373  1.2934  0.9072 -0.4401
   52CHL1    C8 3788   0.347   2.638   7.426  0.6653 -0.2184 -0.9281
   52CHL1    H8 3789   0.441   2.579   7.437  0.9577  0.5788  1.4088
   52CHL1   C14 3790   0.277   2.639   7.554 -0.2551 -0.1432 -0.1253
   52CHL1   H14 3791   0.184   2.696   7.532 -0.2243  0.1105  0.3875
   52CHL1   C15 3792   0.350   2.725   7.663  0.5926 -0.2826 -0.3627
   52CHL1  H15A 3793   0.458   2.698   7.668  1.4694  2.9430  0.6954
   52CHL1  H15B 3794   0.344   2.831   7.628  2.5529  0.2554  0.7306
   52CHL1   C16 3795   0.272   2.689   7.792 -0.7283  0.0104  0.1979
   52CHL1  H16A 3796   0.346   2.675   7.873 -2.8260 -0.9267  2.0311
   52CHL1  H16B 3797   0.205   2.777   7.807  1.0935  2.4142 -3.9255
   52CHL1   C17 3798   0.195   2.563   7.759 -0.7061  0.1920 -0.8120
   52CHL1   H17 3799   0.087   2.588   7.747 -1.1723 -0.8863  0.8324
   52CHL1   C13 3800   0.254   2.507   7.626 -0.0490 -0.2489  0.3971
   52CHL1   C18 3801   0.392   2.432   7.650 -0.0651 -0.6177  0.5002
   52CHL1  H18A 3802   0.459   2.423   7.562  1.1349  1.8967  1.0621
   52CHL1  H18B 3803   0.453   2.476   7.732 -1.1204  0.9246  0.4987
   52CHL1  H18C 3804   0.363   2.330   7.685 -0.4216 -1.7986 -2.8562
   52CHL1   C12 3805   0.159   2.430   7.527  0.6374 -0.1166  0.7004
   52CHL1  H12A 3806   0.149   2.323   7.556  2.9490 -0.2791  1.0596
   52CHL1  H12B 3807   0.058   2.476   7.530  0.8221  0.3241  0.1028
   52CHL1   C11 3808   0.212   2.418   7.386  0.0519 -0.1291 -0.3941
   52CHL1  H11A 3809   0.302   2.353   7.388  0.3249  0.0317  4.3508
   52CHL1  H11B 3810   0.134   2.384   7.315  0.0584  0.9319 -0.9301
   52CHL1    C9 3811   0.262   2.557   7.324  0.0347 -0.4500 -0.8037
   52CHL1    H9 3812   0.168   2.617   7.320  0.3569  0.4638  2.3277
   52CHL1   C10 3813   0.324   2.547   7.189 -0.5293  0.7565  0.0089
   52CHL1   C19 3814   0.422   2.424   7.190  0.6970 -0.4155  0.0260
   52CHL1  H19A 3815   0.490   2.421   7.277 -1.5910 -1.8150  1.8925
   52CHL1  H19B 3816   0.364   2.329   7.186 -2.3082  1.2470  0.3624
   52CHL1  H19C 3817   0.476   2.425   7.093 -1.4702  2.8228 -1.3495
   52CHL1    C1 3818   0.209   2.531   7.080 -0.5369 -0.2677  0.0148
   52CHL1   H1A 3819   0.158   2.433   7.089 -1.3267  0.2011  0.8103
   52CHL1   H1B 3820   0.141   2.617   7.092  1.4970  1.2540  1.4092
   52CHL1    C2 3821   0.266   2.540   6.939 -0.6852  0.0638  0.5026
   52CHL1   H2A 3822   0.184   2.517   6.867 -1.8117 -0.0634  1.7902
   52CHL1   H2B 3823   0.342   2.461   6.920 -0.7154  0.2835 -0.6087
   52CHL1   C20 3824   0.193   2.459   7.875 -0.3586  0.8181 -0.2358
   52CHL1   H20 3825   0.292   2.409   7.874 -0.4523  0.4279  2.4180
   52CHL1   C21 3826   0.097   2.339   7.827  0.1644 -0.1940  0.3771
   52CHL1  H21A 3827   0.079   2.273   7.914 -2.7349 -0.3860 -0.2681
   52CHL1  H21B 3828   0.134   2.281   7.740 -0.4973  1.3881 -1.0219
   52CHL1  H21C 3829  -0.007   2.376   7.812 -0.1128  0.6011  3.5142
   52CHL1   C22 3830   0.153   2.512   8.018 -0.9208 -0.0003  0.0356
   52CHL1  H22A 3831   0.227   2.589   8.048  1.6330 -1.6856 -1.4311
   52CHL1  H22B 3832   0.055   2.563   8.019 -2.1125 -2.1660  0.3523
   52CHL1   C23 3833   0.153   2.412   8.139  0.2814  0.0480  0.0740
   52CHL1  H23A 3834   0.071   2.339   8.123  1.2165 -1.2000  0.7947
   52CHL1  H23B 3835   0.247   2.353   8.142  0.2043 -0.0503  0.5863
   52CHL1   C24 3836   0.143   2.480   8.275  0.0474 -0.3525 -0.6396
   52CHL1  H24A 3837   0.239   2.535   8.276  0.8560 -1.7165 -1.0537
   52CHL1  H24B 3838   0.062   2.556   8.285  1.6822  1.5795 -1.5115
   52CHL1   C25 3839   0.144   2.379   8.384 -0.8992 -0.2493 -1.1197
   52CHL1   H25 3840   0.222   2.305   8.357  0.4960  0.2009  1.3853
   52CHL1   C26 3841   0.181   2.442   8.523  0.5213 -0.6117  0.4832
   52CHL1  H26A 3842   0.115   2.529   8.541 -0.3358 -1.2320  0.4019
   52CHL1  H26B 3843   0.166   2.382   8.615 -2.6594  1.9025  1.7911
   52CHL1  H26C 3844   0.284   2.482   8.507 -0.4872  1.4455 -1.4828
   52CHL1   C27 3845   0.008   2.305   8.405  0.3331  0.3995  0.1635
   52CHL1  H27A 3846  -0.072   2.379   8.424 -0.8357 -1.2311  1.9748
   52CHL1  H27B 3847  -0.019   2.246   8.314 -1.7020 -0.7645  1.4352
   52CHL1  H27C 3848   0.008   2.233   8.490  0.4913 -1.0726 -1.0298
   53CHL1    C3 3849   3.183   1.930   6.919 -0.1429 -0.0726  0.8851
   53CHL1    H3 3850   3.169   2.041   6.915 -3.8955 -0.4181  0.8134
   53CHL1    O3 3851   3.124   1.880   6.798 -0.0194 -0.4247  0.2662
   53CHL1   H3' 3852   3.178   1.921   6.730  0.1257  2.7391  2.1270
   53CHL1    C4 3853   3.338   1.895   6.924 -0.2373 -0.1712  0.0589
   53CHL1   H4A 3854   3.356   1.785   6.927  2.4501  0.1642 -0.5717
   53CHL1   H4B 3855   3.389   1.927   6.831 -1.2291  1.3743  0.0243
   53CHL1    C5 3856   3.407   1.950   7.053 -0.5620  0.2763 -0.4531
   53CHL1    C6 3857   3.513   2.034   7.050 -0.8673  1.1237  0.6150
   53CHL1    H6 3858   3.541   2.079   6.953 -1.4575 -0.7466 -0.4926
   53CHL1    C7 3859   3.586   2.083   7.173  0.3454  0.2113 -0.0344
   53CHL1   H7A 3860   3.696   2.064   7.170  0.4950  0.0360  3.1293
   53CHL1   H7B 3861   3.570   2.193   7.180  1.0012  0.3160 -0.1323
   53CHL1    C8 3862   3.545   2.010   7.308  0.9930 -0.3608  0.5046
   53CHL1    H8 3863   3.592   1.911   7.327 -0.9874 -1.1988  1.2693
   53CHL1   C14 3864   3.585   2.091   7.433  0.0999 -0.5005 -0.3451
   53CHL1   H14 3865   3.535   2.190   7.428  2.4181  0.6907 -1.3148
   53CHL1   C15 3866   3.733   2.128   7.440 -0.2906 -0.1394 -0.3115
   53CHL1  H15A 3867   3.800   2.041   7.454  0.0157  0.0080 -0.8408
   53CHL1  H15B 3868   3.765   2.213   7.377 -0.7298 -0.5727 -1.1415
   53CHL1   C16 3869   3.734   2.186   7.586 -0.2533 -0.0776 -0.5771
   53CHL1  H16A 3870   3.817   2.163   7.655 -0.7153  0.3439  0.1380
   53CHL1  H16B 3871   3.733   2.297   7.579 -0.4268  0.1339  2.0334
   53CHL1   C17 3872   3.601   2.142   7.663 -0.2242 -0.0262  0.6083
   53CHL1   H17 3873   3.532   2.228   7.646  1.8057  1.0218 -3.5527
   53CHL1   C13 3874   3.540   2.035   7.569  0.3160  0.4627 -0.6709
   53CHL1   C18 3875   3.597   1.898   7.607  0.0893  0.4945  0.1422
   53CHL1  H18A 3876   3.579   1.824   7.527 -1.3321  1.0498 -0.0802
   53CHL1  H18B 3877   3.707   1.904   7.625  0.1398  1.6676 -0.4088
   53CHL1  H18C 3878   3.546   1.848   7.692 -0.6635  2.8249  1.1479
   53CHL1   C12 3879   3.385   2.029   7.560  0.0259  0.2938  0.0784
   53CHL1  H12A 3880   3.345   1.999   7.659 -0.4917  2.6225  0.6487
   53CHL1  H12B 3881   3.353   2.135   7.551  1.6679  0.6769 -2.3133
   53CHL1   C11 3882   3.336   1.945   7.446 -0.0373 -0.5951  0.8829
   53CHL1  H11A 3883   3.364   1.839   7.460 -4.1716 -1.9726  0.3145
   53CHL1  H11B 3884   3.227   1.948   7.466  0.0584 -3.0327  2.0497
   53CHL1    C9 3885   3.391   1.993   7.305  0.1527  0.1169 -0.0000
   53CHL1    H9 3886   3.352   2.096   7.287  0.0414  0.0622 -0.0694
   53CHL1   C10 3887   3.336   1.911   7.185 -0.5656  0.4363  0.5705
   53CHL1   C19 3888   3.384   1.766   7.199  0.0908 -0.0762  0.2500
   53CHL1  H19A 3889   3.323   1.710   7.273 -1.8876 -1.5206 -2.3016
   53CHL1  H19B 3890   3.370   1.708   7.105  0.0524 -1.5184  1.1037
   53CHL1  H19C 3891   3.489   1.750   7.231 -1.0491  1.3586  5.6267
   53CHL1    C1 3892   3.183   1.932   7.173 -0.6291  0.0889 -0.5853
   53CHL1   H1A 3893   3.124   1.896   7.260 -1.2748  2.0711 -0.1411
   53CHL1   H1B 3894   3.172   2.043   7.168  1.4979  0.4442  1.0830
   53CHL1    C2 3895   3.112   1.871   7.046  0.7002 -0.0948 -0.6026
   53CHL1   H2A 3896   3.009   1.912   7.048  0.9309  0.4790  0.0354
   53CHL1   H2B 3897   3.110   1.760   7.050  3.1943 -0.1922 -0.4619
   53CHL1   C20 3898   3.624   2.106   7.811  0.2900 -0.3921  0.1609
   53CHL1   H20 3899   3.701   2.026   7.805  1.0931  0.3109  0.8952
   53CHL1   C21 3900   3.493   2.065   7.870  0.2644  0.1993  0.2315
   53CHL1  H21A 3901   3.464   1.964   7.835 -2.4618 -0.0321  2.7637
   53CHL1  H21B 3902   3.405   2.131   7.853  0.0610 -0.0793  0.1911
   53CHL1  H21C 3903   3.509   2.050   7.979  2.4405  3.1931  0.4663
   53CHL1   C22 3904   3.684   2.233   7.884 -0.3893 -0.4227  0.5411
   53CHL1  H22A 3905   3.788   2.249   7.849 -0.6202 -0.2553 -0.0718
   53CHL1  H22B 3906   3.621   2.320   7.857  2.3792  0.9767 -1.9276
   53CHL1   C23 3907   3.677   2.234   8.039 -0.9127 -0.2034 -0.2987
   53CHL1  H23A 3908   3.580   2.197   8.077 -1.2062 -0.4966 -1.3195
   53CHL1  H23B 3909   3.756   2.163   8.073 -1.1718  0.1634  1.1251
   53CHL1   C24 3910   3.706   2.374   8.090  0.4380 -0.0714  0.5185
   53CHL1  H24A 3911   3.815   2.392   8.084  0.5148  0.0289  1.9915
   53CHL1  H24B 3912   3.659   2.446   8.019 -0.1087  0.9958  1.9077
   53CHL1   C25 3913   3.648   2.406   8.227 -0.1415  0.0716  0.4490
   53CHL1   H25 3914   3.548   2.359   8.219 -0.7488  1.5932 -1.5202
   53CHL1   C26 3915   3.733   2.359   8.341 -0.4507 -0.5227  0.7302
   53CHL1  H26A 3916   3.731   2.248   8.337 -0.4862 -0.5363  1.0616
   53CHL1  H26B 3917   3.841   2.386   8.334 -0.2024 -1.3820  1.0665
   53CHL1  H26C 3918   3.689   2.388   8.439 -0.2839 -1.5677  1.1325
   53CHL1   C27 3919   3.629   2.557   8.246 -0.1289 -0.3255  0.7424
   53CHL1  H27A 3920   3.586   2.614   8.161 -0.5924 -0.8643  0.6114
   53CHL1  H27B 3921   3.554   2.576   8.325  1.3575 -1.0175  2.3944
   53CHL1  H27C 3922   3.721   2.615   8.270 -0.9271  0.0636  3.1849
   54CHL1    C3 3923   5.214   1.426   6.793  0.8860  0.8155 -0.1559
   54CHL1    H3 3924   5.281   1.515   6.790  1.0766  0.6469 -1.7044
   54CHL1    O3 3925   5.193   1.390   6.656  0.4172 -0.2898 -0.2173
   54CHL1   H3' 3926   5.120   1.327   6.659 -0.8877  1.1767 -0.0044
   54CHL1    C4 3927   5.289   1.316   6.866  0.4410  0.4230 -0.3122
   54CHL1   H4A 3928   5.232   1.221   6.853  1.1125 -0.2499  1.3262
   54CHL1   H4B 3929   5.380   1.299   6.805  0.1758  1.0000 -0.8800
   54CHL1    C5 3930   5.321   1.352   7.008 -0.1328  1.0305  0.3366
   54CHL1    C6 3931   5.445   1.377   7.051 -0.7774 -0.0807 -0.0715
   54CHL1    H6 3932   5.524   1.343   6.982  0.0371  2.3198 -0.4035
   54CHL1    C7 3933   5.481   1.419   7.189 -0.7250  0.3920  0.1397
   54CHL1   H7A 3934   5.565   1.356   7.226 -0.8790  0.7412  1.1150
   54CHL1   H7B 3935   5.507   1.527   7.186 -0.8927  0.4419  0.3928
   54CHL1    C8 3936   5.358   1.398   7.286  0.1820  0.0516  0.0867
   54CHL1    H8 3937   5.337   1.291   7.307 -1.6940  0.2514 -0.5326
   54CHL1   C14 3938   5.401   1.475   7.414 -0.3200  0.3368  1.0769
   54CHL1   H14 3939   5.421   1.576   7.372  2.4644 -0.3996  0.4231
   54CHL1   C15 3940   5.537   1.439   7.475  0.2508  0.2954 -0.7378
   54CHL1  H15A 3941   5.540   1.328   7.468 -1.3618  0.2729 -1.6183
   54CHL1  H15B 3942   5.615   1.483   7.410  0.1541 -0.5740 -1.4647
   54CHL1   C16 3943   5.524   1.495   7.611 -0.7385 -0.0261  0.0720
   54CHL1  H16A 3944   5.560   1.407   7.668  0.8037  0.2757 -0.4101
   54CHL1  H16B 3945   5.591   1.580   7.636 -1.5040  1.0882 -1.4416
   54CHL1   C17 3946   5.376   1.551   7.631 -0.5767 -0.2491  0.0653
   54CHL1   H17 3947   5.384   1.651   7.582 -1.2328 -1.0774 -1.8377
   54CHL1   C13 3948   5.294   1.481   7.520 -0.2098 -0.2004  0.3322
   54CHL1   C18 3949   5.249   1.340   7.571 -0.1658 -0.1249  0.3777
   54CHL1  H18A 3950   5.169   1.349   7.647 -1.4428  3.6849 -1.1558
   54CHL1  H18B 3951   5.223   1.274   7.485 -0.4664  2.3218 -1.5117
   54CHL1  H18C 3952   5.335   1.299   7.628  0.8829  0.5961 -0.6442
   54CHL1   C12 3953   5.172   1.555   7.465 -0.1528 -0.5842  0.4977
   54CHL1  H12A 3954   5.087   1.569   7.535 -1.2894 -0.4319 -0.8789
   54CHL1  H12B 3955   5.202   1.659   7.436 -0.2496  0.3261  3.3527
   54CHL1   C11 3956   5.120   1.490   7.329 -1.0947 -0.0866 -0.0630
   54CHL1  H11A 3957   5.063   1.397   7.350  0.2793 -0.3798  2.9543
   54CHL1  H11B 3958   5.061   1.571   7.282  1.9973  0.8492 -2.7149
   54CHL1    C9 3959   5.237   1.467   7.221  0.4263 -0.7094 -0.0912
   54CHL1    H9 3960   5.270   1.570   7.197  0.5469 -1.1352 -1.8669
   54CHL1   C10 3961   5.202   1.392   7.091 -0.3481  0.3709 -0.0425
   54CHL1   C19 3962   5.123   1.270   7.120 -0.4403 -0.3731  0.3209
   54CHL1  H19A 3963   5.176   1.208   7.195 -0.7906  0.9030  1.6741
   54CHL1  H19B 3964   5.026   1.300   7.166 -2.1158 -0.2176 -3.0190
   54CHL1  H19C 3965   5.092   1.201   7.038 -0.8673 -1.3698  1.2977
   54CHL1    C1 3966   5.112   1.497   7.016 -0.3410 -0.0621  0.1013
   54CHL1   H1A 3967   5.011   1.498   7.062 -1.6916  1.1609 -2.6653
   54CHL1   H1B 3968   5.166   1.594   7.014  1.1702 -0.8690  0.4360
   54CHL1    C2 3969   5.079   1.466   6.869 -1.0910  0.2465  0.4884
   54CHL1   H2A 3970   5.022   1.542   6.811 -2.4455 -0.7380  0.4682
   54CHL1   H2B 3971   5.024   1.372   6.847 -1.9201  1.1834 -1.6758
   54CHL1   C20 3972   5.318   1.563   7.770  0.4029 -0.3747  0.1993
   54CHL1   H20 3973   5.213   1.528   7.765 -0.1938  1.3428  0.1711
   54CHL1   C21 3974   5.328   1.711   7.813  0.3060  0.0672 -0.1944
   54CHL1  H21A 3975   5.275   1.713   7.911  0.5549 -0.0815 -0.0539
   54CHL1  H21B 3976   5.285   1.786   7.744 -1.5628 -1.2646 -0.5467
   54CHL1  H21C 3977   5.437   1.730   7.822  0.4084 -0.3888 -0.4321
   54CHL1   C22 3978   5.381   1.466   7.870  0.5559  0.4197  0.1303
   54CHL1  H22A 3979   5.373   1.365   7.824  0.6223  1.0272 -1.2743
   54CHL1  H22B 3980   5.489   1.491   7.878  0.4153  1.0277  0.1875
   54CHL1   C23 3981   5.318   1.448   8.012  0.1024 -0.5347  0.3763
   54CHL1  H23A 3982   5.335   1.546   8.062  0.9734  0.4858 -1.7695
   54CHL1  H23B 3983   5.208   1.436   8.000 -0.4587  2.5084  1.4995
   54CHL1   C24 3984   5.392   1.339   8.083  0.7993  0.2064 -0.5341
   54CHL1  H24A 3985   5.387   1.246   8.023 -1.6285 -0.4034  0.4883
   54CHL1  H24B 3986   5.498   1.360   8.109  0.2883  0.5253  1.5098
   54CHL1   C25 3987   5.316   1.311   8.216 -0.0099  0.4926  0.4245
   54CHL1   H25 3988   5.213   1.275   8.195 -0.0372  1.7185 -1.8303
   54CHL1   C26 3989   5.388   1.189   8.285  0.7768 -0.0996 -0.6539
   54CHL1  H26A 3990   5.363   1.113   8.207 -0.8373  0.0659 -0.3341
   54CHL1  H26B 3991   5.498   1.203   8.288  0.5380  1.9496  0.0305
   54CHL1  H26C 3992   5.345   1.164   8.384  1.3169 -1.7366 -0.7980
   54CHL1   C27 3993   5.298   1.434   8.309 -0.4516  0.1395  0.5014
   54CHL1  H27A 3994   5.213   1.496   8.274 -1.5274 -1.6928 -0.2584
   54CHL1  H27B 3995   5.287   1.409   8.417 -2.5422 -0.0130  0.2764
   54CHL1  H27C 3996   5.398   1.479   8.289  0.4364 -1.5285  0.9970
   55CHL1    C3 3997   4.483   5.540   6.935  0.6793  0.1340  0.0861
   55CHL1    H3 3998   4.574   5.603   6.946  1.2415 -0.5689 -0.4926
   55CHL1    O3 3999   4.481   5.471   6.809  0.2835 -0.2822 -0.7784
   55CHL1   H3' 4000   4.418   5.399   6.814  0.5566 -0.4869 -0.1234
   55CHL1    C4 4001   4.476   5.432   7.050 -0.1703 -0.3666  0.2048
   55CHL1   H4A 4002   4.393   5.359   7.041 -0.4330  0.1720 -2.9027
   55CHL1   H4B 4003   4.562   5.363   7.035  0.0035 -0.1872  0.3781
   55CHL1    C5 4004   4.461   5.492   7.188  0.6290 -0.2157  0.7504
   55CHL1    C6 4005   4.545   5.461   7.281 -0.7379 -0.2790 -0.5638
   55CHL1    H6 4006   4.629   5.395   7.257 -1.0026 -0.4097 -1.1525
   55CHL1    C7 4007   4.554   5.524   7.421 -0.1828  0.0207 -0.0104
   55CHL1   H7A 4008   4.569   5.443   7.496 -1.8857  0.7012  1.1209
   55CHL1   H7B 4009   4.644   5.589   7.426  0.9579 -1.6287  2.9388
   55CHL1    C8 4010   4.424   5.601   7.453 -0.0946 -0.4654  0.2341
   55CHL1    H8 4011   4.348   5.522   7.470  0.0455 -0.9124 -1.1160
   55CHL1   C14 4012   4.440   5.680   7.588  0.3587  0.0738  0.0258
   55CHL1   H14 4013   4.522   5.754   7.573  0.8475 -0.7621 -1.6854
   55CHL1   C15 4014   4.483   5.596   7.715 -0.3344  0.4057  0.2792
   55CHL1  H15A 4015   4.429   5.499   7.725 -0.0793  0.3505  1.2511
   55CHL1  H15B 4016   4.594   5.593   7.713 -0.2350  2.3813  1.0192
   55CHL1   C16 4017   4.441   5.689   7.836 -0.5062 -0.0774  0.6414
   55CHL1  H16A 4018   4.370   5.629   7.898 -2.5621  2.3781  0.8507
   55CHL1  H16B 4019   4.529   5.707   7.901 -1.2547  1.0040  1.3898
   55CHL1   C17 4020   4.363   5.806   7.773 -0.4994 -0.5406  0.7591
   55CHL1   H17 4021   4.425   5.896   7.756 -1.1475  0.0404  1.4175
   55CHL1   C13 4022   4.314   5.759   7.630 -0.2041 -0.4562 -0.6167
   55CHL1   C18 4023   4.187   5.669   7.655  0.3004 -0.1698  0.5356
   55CHL1  H18A 4024   4.103   5.739   7.677  0.2340 -0.0355 -0.1251
   55CHL1  H18B 4025   4.160   5.606   7.567  0.7744 -2.1932  1.7714
   55CHL1  H18C 4026   4.183   5.606   7.747 -0.5825 -1.1807 -0.1733
   55CHL1   C12 4027   4.285   5.858   7.516  0.1177  0.1922  0.3409
   55CHL1  H12A 4028   4.187   5.903   7.539 -0.5753  0.0667 -2.0589
   55CHL1  H12B 4029   4.370   5.929   7.506 -0.2793  0.9606  2.1195
   55CHL1   C11 4030   4.267   5.781   7.377  0.0333  0.0819 -0.2851
   55CHL1  H11A 4031   4.175   5.719   7.382 -1.9978  2.9306  0.0435
   55CHL1  H11B 4032   4.243   5.864   7.308 -0.0073  0.5340  0.2658
   55CHL1    C9 4033   4.383   5.692   7.333 -0.3587  0.1024 -0.3162
   55CHL1    H9 4034   4.472   5.756   7.314  0.2248 -0.6081 -0.0172
   55CHL1   C10 4035   4.361   5.608   7.204 -0.3414 -0.7345 -0.1189
   55CHL1   C19 4036   4.213   5.543   7.205 -0.4697  0.2127 -0.0264
   55CHL1  H19A 4037   4.200   5.467   7.125 -1.7116  1.6483 -1.2594
   55CHL1  H19B 4038   4.203   5.491   7.302 -1.2867  0.7129  0.1625
   55CHL1  H19C 4039   4.129   5.615   7.198 -1.0258 -0.4339 -0.1386
   55CHL1    C1 4040   4.366   5.700   7.078 -0.2835  0.7568  0.0142
   55CHL1   H1A 4041   4.270   5.756   7.088 -1.8202 -1.3911 -1.8087
   55CHL1   H1B 4042   4.456   5.763   7.087 -0.7157  1.6881 -1.6224
   55CHL1    C2 4043   4.359   5.627   6.941 -0.2891 -0.5573  0.2198
   55CHL1   H2A 4044   4.364   5.706   6.864  0.3520 -0.6997  0.1115
   55CHL1   H2B 4045   4.263   5.571   6.937 -0.9658  0.5624  0.2759
   55CHL1   C20 4046   4.256   5.842   7.873  0.1188 -0.3180  0.6814
   55CHL1   H20 4047   4.189   5.756   7.892  1.0232 -1.5872 -1.4170
   55CHL1   C21 4048   4.172   5.965   7.821 -0.3394 -0.1124  0.3871
   55CHL1  H21A 4049   4.114   5.943   7.728 -1.3698 -0.6547  1.1304
   55CHL1  H21B 4050   4.224   6.062   7.806  0.7978 -0.7543  0.0619
   55CHL1  H21C 4051   4.093   5.990   7.896  0.2656  1.7689  0.4491
   55CHL1   C22 4052   4.318   5.871   8.009 -0.5163 -0.0907 -0.2665
   55CHL1  H22A 4053   4.310   5.778   8.071  1.8673 -0.3308 -0.2271
   55CHL1  H22B 4054   4.424   5.897   7.991 -0.9168  0.9471 -1.1930
   55CHL1   C23 4055   4.253   5.982   8.102 -0.4032  0.7344 -0.0989
   55CHL1  H23A 4056   4.252   6.076   8.043  1.7985 -0.1068 -1.6168
   55CHL1  H23B 4057   4.145   5.967   8.120 -0.3402  1.3340  0.8246
   55CHL1   C24 4058   4.321   6.006   8.242 -0.0760 -0.2493  0.7958
   55CHL1  H24A 4059   4.428   6.031   8.225  0.0536 -1.7553 -0.9134
   55CHL1  H24B 4060   4.267   6.093   8.285 -3.3464 -2.2938  1.2328
   55CHL1   C25 4061   4.307   5.884   8.339  0.0847 -0.5684 -0.2805
   55CHL1   H25 4062   4.325   5.789   8.284 -0.1719 -1.3377  0.9215
   55CHL1   C26 4063   4.404   5.892   8.458 -0.2735  0.7054  0.5436
   55CHL1  H26A 4064   4.399   5.801   8.523 -1.4086  0.0484 -0.4328
   55CHL1  H26B 4065   4.504   5.902   8.411 -0.6674  2.0125 -0.0437
   55CHL1  H26C 4066   4.388   5.985   8.517  0.1250  0.9782  0.2280
   55CHL1   C27 4067   4.155   5.877   8.391  0.5481 -0.1689  0.0073
   55CHL1  H27A 4068   4.125   5.970   8.444 -1.1705 -0.6773 -0.0109
   55CHL1  H27B 4069   4.088   5.865   8.303  0.6224  0.8876 -0.2105
   55CHL1  H27C 4070   4.142   5.785   8.451 -0.7350 -0.6285 -0.9413
   56CHL1    C3 4071   2.377   2.096   7.048 -0.0771  0.2413  0.0292
   56CHL1    H3 4072   2.486   2.114   7.052 -0.2645  1.3048  2.4873
   56CHL1    O3 4073   2.334   2.094   6.917 -0.0972  0.1812  0.2902
   56CHL1   H3' 4074   2.387   2.166   6.882  3.1729 -2.2434 -0.2371
   56CHL1    C4 4075   2.337   1.961   7.113  0.3712 -0.0049  0.7204
   56CHL1   H4A 4076   2.227   1.971   7.100  0.8460  3.1264 -2.0313
   56CHL1   H4B 4077   2.380   1.880   7.050  1.3078  0.8272  0.2483
   56CHL1    C5 4078   2.375   1.956   7.259 -0.0704 -0.2507 -0.3154
   56CHL1    C6 4079   2.450   1.860   7.301 -0.3038 -0.2939 -0.0198
   56CHL1    H6 4080   2.468   1.774   7.235 -0.8140 -1.3894  1.2209
   56CHL1    C7 4081   2.514   1.849   7.436 -0.6474 -0.2450 -0.4383
   56CHL1   H7A 4082   2.529   1.743   7.465  0.1010 -0.6807 -2.2694
   56CHL1   H7B 4083   2.618   1.888   7.435 -0.1334 -1.4126  1.9168
   56CHL1    C8 4084   2.428   1.934   7.536 -0.0885 -0.6858 -0.2024
   56CHL1    H8 4085   2.326   1.890   7.538 -0.7562  0.7925 -0.5716
   56CHL1   C14 4086   2.508   1.936   7.673  0.3775 -0.6216 -0.1586
   56CHL1   H14 4087   2.607   1.982   7.652 -0.4570  0.9721 -0.7431
   56CHL1   C15 4088   2.522   1.806   7.758  0.0369 -0.3393  1.2029
   56CHL1  H15A 4089   2.427   1.750   7.756 -0.0745 -0.1530 -0.9619
   56CHL1  H15B 4090   2.590   1.740   7.701 -1.6409 -0.2157 -1.0605
   56CHL1   C16 4091   2.544   1.856   7.901  0.0138 -0.6641  0.7279
   56CHL1  H16A 4092   2.481   1.790   7.964 -0.5889 -0.8675 -0.0792
   56CHL1  H16B 4093   2.649   1.831   7.930 -0.1155  0.8433  2.6895
   56CHL1   C17 4094   2.526   2.005   7.900 -0.2423 -0.7951 -0.1631
   56CHL1   H17 4095   2.620   2.058   7.874 -0.0188 -1.0326  0.1412
   56CHL1   C13 4096   2.441   2.024   7.776  0.0712 -0.0780 -0.3252
   56CHL1   C18 4097   2.292   1.992   7.804  0.2840 -0.3823  0.4509
   56CHL1  H18A 4098   2.267   1.895   7.853  1.2583 -1.3309 -0.8454
   56CHL1  H18B 4099   2.250   2.069   7.872  0.0834  2.1147 -2.3283
   56CHL1  H18C 4100   2.230   1.993   7.712 -1.5555  1.8117  1.6095
   56CHL1   C12 4101   2.449   2.170   7.714  1.0685 -0.1351 -0.3725
   56CHL1  H12A 4102   2.409   2.247   7.783 -0.8611 -1.5449  0.1494
   56CHL1  H12B 4103   2.558   2.179   7.692  0.9732 -1.1681 -1.3524
   56CHL1   C11 4104   2.363   2.176   7.583 -0.3261  0.1183 -0.1578
   56CHL1  H11A 4105   2.256   2.152   7.602 -0.0945 -0.2410  0.7441
   56CHL1  H11B 4106   2.377   2.277   7.538  2.1131 -1.5089 -3.4597
   56CHL1    C9 4107   2.417   2.076   7.483 -0.3192 -0.2205  0.2558
   56CHL1    H9 4108   2.520   2.108   7.458  0.5993 -0.8819  2.8095
   56CHL1   C10 4109   2.341   2.078   7.345 -0.1587 -0.1502  0.1249
   56CHL1   C19 4110   2.186   2.068   7.375  0.6952 -0.0647  0.8674
   56CHL1  H19A 4111   2.153   2.167   7.414 -0.7750 -0.7258  1.3954
   56CHL1  H19B 4112   2.128   2.061   7.281 -0.8770  3.6124  1.4049
   56CHL1  H19C 4113   2.157   1.999   7.458 -0.3873 -1.1940 -0.3966
   56CHL1    C1 4114   2.369   2.212   7.268 -0.3928 -0.7468 -0.4033
   56CHL1   H1A 4115   2.317   2.284   7.333 -2.7118 -2.4064 -0.3055
   56CHL1   H1B 4116   2.478   2.234   7.261 -0.4859  0.1289  0.7653
   56CHL1    C2 4117   2.315   2.207   7.121 -0.0183  0.3393  0.0559
   56CHL1   H2A 4118   2.339   2.305   7.075 -1.4862  0.0910 -1.3403
   56CHL1   H2B 4119   2.204   2.196   7.116 -0.0940  1.4663 -1.1609
   56CHL1   C20 4120   2.486   2.073   8.027 -0.4028 -0.0123 -0.0917
   56CHL1   H20 4121   2.417   2.158   8.010 -0.4854 -0.0278  0.1576
   56CHL1   C21 4122   2.613   2.134   8.083 -0.3009  0.0363 -0.0190
   56CHL1  H21A 4123   2.595   2.171   8.186  2.5492 -0.1948  0.6287
   56CHL1  H21B 4124   2.646   2.215   8.015 -1.3553  0.5292  0.0237
   56CHL1  H21C 4125   2.702   2.069   8.097  2.4853  3.6480  0.1338
   56CHL1   C22 4126   2.408   1.991   8.129 -0.3243  0.5054  0.3411
   56CHL1  H22A 4127   2.337   1.937   8.063  2.9390 -2.6147 -0.9317
   56CHL1  H22B 4128   2.473   1.914   8.177 -2.1301 -0.3000  1.6092
   56CHL1   C23 4129   2.347   2.077   8.239  0.0721 -0.8129  0.8679
   56CHL1  H23A 4130   2.416   2.121   8.313  0.4556  0.0798 -0.0119
   56CHL1  H23B 4131   2.299   2.164   8.189  2.1689 -0.7772 -1.2250
   56CHL1   C24 4132   2.238   2.010   8.319 -0.1605 -0.1625 -1.1314
   56CHL1  H24A 4133   2.175   1.953   8.247 -1.8504 -0.0227  0.1906
   56CHL1  H24B 4134   2.290   1.950   8.396  2.1079  2.8417 -0.1298
   56CHL1   C25 4135   2.141   2.117   8.388 -0.1686 -0.2176  0.2370
   56CHL1   H25 4136   2.207   2.202   8.417 -0.7928  0.2358  0.3636
   56CHL1   C26 4137   2.034   2.179   8.291  0.0294  0.1738 -0.6705
   56CHL1  H26A 4138   1.980   2.085   8.266  0.3128 -0.4760  1.0449
   56CHL1  H26B 4139   2.079   2.229   8.203 -0.1731 -1.1742 -1.5736
   56CHL1  H26C 4140   1.974   2.246   8.356  1.0925 -2.2712  3.1399
   56CHL1   C27 4141   2.063   2.057   8.508 -0.0810  0.1833  1.0214
   56CHL1  H27A 4142   2.134   2.010   8.578  2.4565 -1.6899 -2.4754
   56CHL1  H27B 4143   2.004   2.136   8.559  1.3566  2.8635 -1.1982
   56CHL1  H27C 4144   1.993   1.979   8.470  1.1298  0.3790 -1.8811
   57SAPC     N 4145   0.939   6.564  10.896 -0.4183 -0.0828  0.5017
   57SAPC   C12 4146   0.810   6.574  10.825  0.2642 -0.3455 -0.2951
   57SAPC  H12A 4147   0.733   6.541  10.893  0.9692 -1.7480 -0.1285
   57SAPC  H12B 4148   0.819   6.499  10.748  0.9025 -0.4725 -0.1035
   57SAPC   C13 4149   0.942   6.646  11.024 -0.7349 -0.0915  0.7408
   57SAPC  H13A 4150   0.867   6.597  11.084 -0.0177 -0.1663  1.6077
   57SAPC  H13B 4151   1.035   6.633  11.078 -0.2951  1.5324  0.4429
   57SAPC  H13C 4152   0.908   6.745  11.000 -0.2676 -0.2411 -0.6217
   57SAPC   C14 4153   0.958   6.424  10.948  0.0376  0.0037 -0.1488
   57SAPC  H14A 4154   0.866   6.388  10.991  1.5848  0.1686  3.6916
   57SAPC  H14B 4155   0.977   6.355  10.867  0.5432 -0.1174  0.0675
   57SAPC  H14C 4156   1.028   6.411  11.029 -0.7952 -1.2317  0.4032
   57SAPC   C15 4157   1.057   6.600  10.815 -0.0565  0.0991  0.3593
   57SAPC  H15A 4158   1.044   6.697  10.770 -1.3785 -0.1709  0.1019
   57SAPC  H15B 4159   1.151   6.589  10.867  0.6425 -2.8694 -1.2815
   57SAPC  H15C 4160   1.086   6.540  10.731  3.1117  1.9937 -0.0517
   57SAPC   C11 4161   0.774   6.710  10.772 -0.3622  0.3529 -0.3215
   57SAPC  H11A 4162   0.848   6.737  10.693 -0.8441 -0.5807 -1.1100
   57SAPC  H11B 4163   0.793   6.794  10.842 -0.8732  0.4889 -0.3450
   57SAPC     P 4164   0.599   6.654  10.593 -0.2856  0.0729  0.0485
   57SAPC   O13 4165   0.598   6.505  10.598  0.3597  0.0439  0.3704
   57SAPC   O14 4166   0.477   6.720  10.550  0.3495 -0.2493  0.7383
   57SAPC   O12 4167   0.636   6.714  10.738 -0.8465  0.0600  0.5339
   57SAPC   O11 4168   0.722   6.694  10.496 -0.3195 -0.0583 -0.4336
   57SAPC    C1 4169   0.687   6.751  10.367  0.7222 -0.1659 -0.3683
   57SAPC    HA 4170   0.588   6.719  10.328  0.7646 -0.9453  0.1321
   57SAPC    HB 4171   0.690   6.862  10.367  1.1258 -0.1756 -0.6302
   57SAPC    C2 4172   0.778   6.709  10.248  0.4987 -0.6092  0.0546
   57SAPC    HS 4173   0.885   6.739  10.248  0.8744 -1.8917 -0.3204
   57SAPC   O21 4174   0.721   6.754  10.122 -0.4809  0.5595  0.3730
   57SAPC   C21 4175   0.753   6.865  10.072 -0.3924  0.3367  0.3681
   57SAPC   O22 4176   0.823   6.950  10.117 -0.0743  0.2381 -0.7617
   57SAPC   C22 4177   0.651   6.877   9.960  0.6385 -0.4361 -1.1853
   57SAPC   H2R 4178   0.652   6.777   9.911  1.3107 -0.7959 -0.4663
   57SAPC   H2S 4179   0.555   6.902  10.009  2.8327  2.4392  2.2000
   57SAPC    C3 4180   0.778   6.558  10.239  0.5989 -0.2933 -0.7555
   57SAPC    HX 4181   0.672   6.526  10.246 -0.5446  3.0576 -1.1169
   57SAPC    HY 4182   0.826   6.514  10.329 -0.1915 -3.2514 -1.6570
   57SAPC   O31 4183   0.848   6.505  10.120 -0.0156  0.4573 -0.1723
   57SAPC   C31 4184   0.815   6.385  10.079 -0.1718  0.0867 -0.5011
   57SAPC   O32 4185   0.730   6.314  10.138 -0.1192 -0.6042 -1.1682
   57SAPC   C32 4186   0.896   6.344   9.961 -0.0497 -0.5607  0.0897
   57SAPC   H2X 4187   0.862   6.243   9.931 -1.1930 -0.1825  0.0786
   57SAPC   H2Y 4188   1.004   6.335   9.987  1.0240  2.5217 -2.5772
   57SAPC   C23 4189   0.677   6.984   9.853  0.1645  0.8331 -0.0481
   57SAPC   H3R 4190   0.704   7.075   9.912  1.6963 -1.4808  3.0686
   57SAPC   H3S 4191   0.589   6.998   9.786  0.0740 -1.4299 -0.4857
   57SAPC   C24 4192   0.805   6.944   9.767 -0.2859 -0.0944  0.0883
   57SAPC   H4R 4193   0.887   6.910   9.834 -0.7228 -2.7821 -0.6080
   57SAPC   H4S 4194   0.850   7.030   9.713 -1.8439  1.2626  0.8659
   57SAPC   C25 4195   0.754   6.827   9.676  0.0312  0.0788  0.4862
   57SAPC   H5R 4196   0.749   6.729   9.726  1.2919 -0.3593 -0.2208
   57SAPC   C26 4197   0.718   6.834   9.548 -0.6939  0.0042  0.8422
   57SAPC   H6R 4198   0.697   6.742   9.491 -0.1909  0.4760 -0.1335
   57SAPC   C27 4199   0.732   6.956   9.468 -0.9411 -0.1188  0.6080
   57SAPC   H7R 4200   0.840   6.965   9.443 -0.8628 -0.9675  0.6316
   57SAPC   H7S 4201   0.707   7.054   9.515  0.8178  0.3487  0.6350
   57SAPC   C28 4202   0.649   6.945   9.345  0.1401 -0.1859  0.2451
   57SAPC   H8R 4203   0.564   7.014   9.352  1.1690  1.1202  0.3678
   57SAPC   C29 4204   0.680   6.880   9.230 -0.1236 -0.1088 -0.2871
   57SAPC   H9R 4205   0.613   6.878   9.143  0.3781  1.0185 -0.7236
   57SAPC  C210 4206   0.812   6.812   9.215 -1.0487  0.4452  0.5112
   57SAPC  H10R 4207   0.869   6.787   9.306  0.3995 -1.9586 -0.9717
   57SAPC  H10S 4208   0.880   6.881   9.160  1.1749 -2.0035  0.0073
   57SAPC  C211 4209   0.791   6.686   9.142  0.1637 -0.2124  0.0251
   57SAPC  H11R 4210   0.762   6.609   9.216  2.5627  0.3289  1.6131
   57SAPC  C212 4211   0.808   6.647   9.017  0.4328 -0.1964  0.3370
   57SAPC  H12R 4212   0.789   6.541   8.994 -2.5371  0.2490  0.3002
   57SAPC  C213 4213   0.870   6.733   8.902 -0.2553  0.5386  0.4405
   57SAPC  H13R 4214   0.980   6.722   8.899 -0.3079  0.3261 -1.3963
   57SAPC  H13S 4215   0.845   6.841   8.911  1.3649  1.0409 -0.6423
   57SAPC  C214 4216   0.816   6.674   8.780  0.1548 -0.1064 -0.1713
   57SAPC  H14R 4217   0.713   6.634   8.790 -0.3308  1.3375  0.9872
   57SAPC  C215 4218   0.872   6.683   8.654  0.7584  0.0028  1.2847
   57SAPC  H15R 4219   0.811   6.639   8.574  0.6078 -2.9089  2.8549
   57SAPC  C216 4220   0.998   6.744   8.611 -0.6163  0.6604  0.5080
   57SAPC  H16R 4221   1.069   6.660   8.593 -1.2934 -0.0063  0.8576
   57SAPC  H16S 4222   1.038   6.807   8.693 -1.3227  1.4048  0.2845
   57SAPC  C217 4223   0.981   6.839   8.492  0.0447  0.0634  0.5394
   57SAPC  H17R 4224   0.894   6.906   8.504  0.1840  1.2300 -3.5483
   57SAPC  H17S 4225   0.948   6.780   8.404 -0.2215 -0.1479  0.7798
   57SAPC  C218 4226   1.097   6.933   8.463  0.5231  0.7933 -0.4135
   57SAPC  H18R 4227   1.125   6.994   8.551 -1.3947 -0.9730  1.5461
   57SAPC  H18S 4228   1.055   6.998   8.384  3.1434  0.5978 -2.1013
   57SAPC  C219 4229   1.217   6.850   8.416 -0.5773  0.2892  0.4678
   57SAPC  H19R 4230   1.207   6.836   8.306 -1.0875  2.9354  0.0966
   57SAPC  H19S 4231   1.240   6.760   8.477  1.3791  2.2383  2.8532
   57SAPC  C220 4232   1.351   6.930   8.419  1.0089  0.0379  0.0737
   57SAPC  H20R 4233   1.336   7.007   8.498 -0.6608  1.2263 -1.3091
   57SAPC  H20S 4234   1.357   6.973   8.317 -1.5152  0.4890  0.0332
   57SAPC  H20T 4235   1.435   6.860   8.432  0.6957 -0.2473  0.6338
   57SAPC   C33 4236   0.877   6.435   9.839 -0.1473 -0.6667  0.3660
   57SAPC   H3X 4237   0.899   6.539   9.871 -2.3255 -0.6888  2.1991
   57SAPC   H3Y 4238   0.768   6.428   9.824 -0.4083 -1.0175  2.1842
   57SAPC   C34 4239   0.945   6.395   9.709  0.6296  0.5161 -0.5201
   57SAPC   H4X 4240   0.935   6.284   9.703  0.0764  0.5676 -0.5554
   57SAPC   H4Y 4241   1.056   6.405   9.714  0.7167 -0.8647  2.1154
   57SAPC   C35 4242   0.893   6.443   9.577 -0.6003  0.3234  0.5535
   57SAPC   H5X 4243   0.902   6.553   9.566 -0.6092  0.2111 -0.7614
   57SAPC   H5Y 4244   0.785   6.420   9.560 -0.0758 -1.1989 -1.0858
   57SAPC   C36 4245   0.981   6.387   9.455 -1.0149  0.5571 -0.5155
   57SAPC   H6X 4246   0.967   6.277   9.461  1.6744  0.1185 -1.0456
   57SAPC   H6Y 4247   1.088   6.397   9.482 -0.6716 -0.9924 -1.1791
   57SAPC   C37 4248   0.925   6.429   9.321 -0.1094  0.1885  0.7872
   57SAPC   H7X 4249   0.941   6.539   9.310  2.2920 -0.1636  0.0194
   57SAPC   H7Y 4250   0.817   6.412   9.339 -0.0593  0.3192  1.2375
   57SAPC   C38 4251   0.975   6.350   9.196  0.0765 -0.2806  0.5069
   57SAPC   H8X 4252   0.931   6.385   9.100  2.6189 -0.9089 -0.9901
   57SAPC   H8Y 4253   0.932   6.248   9.203  3.2878 -2.1960 -3.4380
   57SAPC   C39 4254   1.125   6.344   9.194 -0.5320 -0.6051 -0.3452
   57SAPC   H9X 4255   1.175   6.303   9.285  2.5374  0.0762 -1.5755
   57SAPC   H9Y 4256   1.162   6.449   9.193 -0.8584 -0.4899 -0.2091
   57SAPC  C310 4257   1.177   6.286   9.066  0.1928  0.1644  0.0181
   57SAPC  H10X 4258   1.107   6.203   9.044  2.7194 -1.3876 -2.8376
   57SAPC  H10Y 4259   1.276   6.240   9.084 -0.4983 -1.4920 -0.2050
   57SAPC  C311 4260   1.174   6.385   8.947  0.3142  0.5495 -0.8437
   57SAPC  H11X 4261   1.216   6.479   8.989  1.9285  1.2617 -3.7459
   57SAPC  H11Y 4262   1.069   6.399   8.913  0.0783 -0.1925 -0.4371
   57SAPC  C312 4263   1.260   6.341   8.822  0.1572 -0.2136  0.2185
   57SAPC  H12X 4264   1.233   6.239   8.786  0.8528  0.2472 -1.7154
   57SAPC  H12Y 4265   1.366   6.317   8.848  0.2324  0.1541  0.2495
   57SAPC  C313 4266   1.243   6.439   8.699  0.2593  0.1156 -0.0772
   57SAPC  H13X 4267   1.298   6.532   8.725  0.3262  0.2255 -0.6057
   57SAPC  H13Y 4268   1.135   6.465   8.697  0.2280  0.3640  2.2691
   57SAPC  C314 4269   1.285   6.381   8.565  0.1973  0.4999  0.2020
   57SAPC  H14X 4270   1.262   6.463   8.492  0.9099  0.2809 -0.2760
   57SAPC  H14Y 4271   1.204   6.310   8.537  0.7451  0.1010 -0.4084
   57SAPC  C315 4272   1.430   6.334   8.549 -0.1221 -0.4134 -0.1074
   57SAPC  H15X 4273   1.433   6.295   8.445  0.1382  3.4990 -1.7515
   57SAPC  H15Y 4274   1.445   6.249   8.619 -2.8955  0.2037  1.4047
   57SAPC  C316 4275   1.532   6.451   8.562  0.3343 -0.0213 -0.7256
   57SAPC  H16X 4276   1.504   6.505   8.656 -2.9888 -3.0497  0.2704
   57SAPC  H16Y 4277   1.529   6.516   8.472  0.2770 -2.1667 -2.3241
   57SAPC  C317 4278   1.677   6.403   8.580 -0.1716 -0.2043  0.2699
   57SAPC  H17X 4279   1.672   6.315   8.649  0.7925  1.4289  2.5246
   57SAPC  H17Y 4280   1.740   6.485   8.618 -0.1616  1.4129 -2.9030
   57SAPC  C318 4281   1.743   6.358   8.452 -0.2084  0.2811  0.0506
   57SAPC  H18X 4282   1.680   6.282   8.401  0.3674  0.3619 -0.7983
   57SAPC  H18Y 4283   1.842   6.308   8.469 -0.4324 -0.4606 -0.7532
   57SAPC  H18Z 4284   1.762   6.444   8.385  0.7397 -0.0767 -0.1542
   58SAPC     N 4285   4.733   2.587  10.899  0.1481  0.8208  0.6667
   58SAPC   C12 4286   4.811   2.711  10.876  0.0493  0.5398  0.7366
   58SAPC  H12A 4287   4.743   2.795  10.881 -1.1994 -0.5014  2.8736
   58SAPC  H12B 4288   4.851   2.720  10.776  3.5920  1.2910  2.0793
   58SAPC   C13 4289   4.658   2.582  11.032 -0.1093 -0.8001 -0.0101
   58SAPC  H13A 4290   4.721   2.600  11.118 -0.6573 -0.0803  0.2458
   58SAPC  H13B 4291   4.575   2.650  11.027  1.6870  1.4220 -1.5762
   58SAPC  H13C 4292   4.613   2.484  11.046 -0.9191 -0.5578 -0.8720
   58SAPC   C14 4293   4.628   2.578  10.792  0.5646 -0.0547 -0.8927
   58SAPC  H14A 4294   4.568   2.491  10.815 -0.7797  0.9146 -0.6160
   58SAPC  H14B 4295   4.563   2.661  10.815  1.4304 -0.0855  2.1937
   58SAPC  H14C 4296   4.657   2.572  10.688 -0.4456 -4.1221 -1.1190
   58SAPC   C15 4297   4.815   2.463  10.880 -0.0867 -0.5014  0.3109
   58SAPC  H15A 4298   4.868   2.470  10.786 -1.3289 -1.1818 -0.4682
   58SAPC  H15B 4299   4.884   2.465  10.963 -0.3388 -0.3871  0.5196
   58SAPC  H15C 4300   4.750   2.377  10.873 -1.9031  0.8780 -0.6011
   58SAPC   C11 4301   4.934   2.731  10.966 -0.7117 -0.0693 -0.9202
   58SAPC  H11A 4302   4.912   2.696  11.069 -2.7110  2.4555 -0.3774
   58SAPC  H11B 4303   4.957   2.840  10.967 -0.4365 -0.0724  1.9177
   58SAPC     P 4304   5.118   2.667  10.781  0.5437  0.2419 -0.0868
   58SAPC   O13 4305   5.166   2.805  10.764 -0.3965 -0.4217 -0.8694
   58SAPC   O14 4306   5.230   2.568  10.774 -0.0270 -0.4060 -0.3409
   58SAPC   O12 4307   5.046   2.646  10.926 -0.2773 -0.0897  0.1421
   58SAPC   O11 4308   5.009   2.639  10.671  0.4448  0.4360  0.7605
   58SAPC    C1 4309   4.990   2.515  10.600 -0.6440 -0.6733 -0.6366
   58SAPC    HA 4310   5.038   2.433  10.656  1.9896  0.7184 -0.7015
   58SAPC    HB 4311   4.880   2.496  10.596 -0.9402  0.2080  1.4629
   58SAPC    C2 4312   5.045   2.507  10.456 -0.5462  0.1548 -0.1091
   58SAPC    HS 4313   5.155   2.498  10.473 -0.6739 -3.0095 -0.3742
   58SAPC   O21 4314   5.017   2.631  10.385 -0.0718  0.7245 -0.4043
   58SAPC   C21 4315   5.048   2.637  10.257 -0.0669  0.7372 -0.6366
   58SAPC   O22 4316   5.114   2.555  10.194  0.0654 -0.2127  0.1556
   58SAPC   C22 4317   4.988   2.766  10.190 -0.0200 -0.2908 -0.0207
   58SAPC   H2R 4318   4.962   2.835  10.273  0.7385  0.9101 -0.7564
   58SAPC   H2S 4319   5.049   2.813  10.110 -1.2839 -0.8977 -1.3767
   58SAPC    C3 4320   4.992   2.381  10.380  0.4601 -0.4846 -0.1431
   58SAPC    HX 4321   4.985   2.299  10.455 -0.5995  1.0070  1.4912
   58SAPC    HY 4322   5.043   2.338  10.291 -2.5468 -4.5527 -0.2063
   58SAPC   O31 4323   4.865   2.408  10.325  0.0089 -0.1890 -0.3471
   58SAPC   C31 4324   4.762   2.322  10.343  0.7759 -0.5621  0.6576
   58SAPC   O32 4325   4.757   2.232  10.422  0.0628 -0.1240 -0.7435
   58SAPC   C32 4326   4.668   2.355  10.227 -0.3288 -0.1570 -0.5561
   58SAPC   H2X 4327   4.742   2.363  10.145  1.9560 -0.7692  1.3475
   58SAPC   H2Y 4328   4.612   2.450  10.237 -0.8480 -0.0630 -3.3910
   58SAPC   C23 4329   4.847   2.735  10.125  0.0140  0.1795  0.3509
   58SAPC   H3R 4330   4.799   2.828  10.086  0.0659  1.1083  2.3474
   58SAPC   H3S 4331   4.774   2.695  10.199  2.4437 -2.1327  1.6818
   58SAPC   C24 4332   4.866   2.635  10.010 -0.1686  0.4415 -0.4126
   58SAPC   H4R 4333   4.890   2.540  10.062  0.3343 -0.0319 -1.4754
   58SAPC   H4S 4334   4.946   2.656   9.935  0.1063 -0.8708 -0.5169
   58SAPC   C25 4335   4.730   2.625   9.946 -0.2701  0.2593 -0.1781
   58SAPC   H5R 4336   4.648   2.615  10.019 -0.0105 -3.1048 -0.1739
   58SAPC   C26 4337   4.708   2.629   9.812 -0.1184  0.5901  0.2747
   58SAPC   H6R 4338   4.607   2.610   9.772 -1.1188  2.7076  1.6090
   58SAPC   C27 4339   4.814   2.649   9.704  0.3261 -0.1446 -0.6827
   58SAPC   H7R 4340   4.777   2.592   9.616 -0.2503  0.7973 -1.0646
   58SAPC   H7S 4341   4.914   2.604   9.723  1.4383  1.9753 -1.1818
   58SAPC   C28 4342   4.835   2.798   9.681 -0.0487  0.7376  0.2721
   58SAPC   H8R 4343   4.880   2.847   9.768  1.8860 -2.1614  1.0759
   58SAPC   C29 4344   4.822   2.862   9.558  0.0665  0.3377  0.3231
   58SAPC   H9R 4345   4.836   2.971   9.556 -3.2056  0.8399 -1.4322
   58SAPC  C210 4346   4.775   2.800   9.428 -0.2852 -0.0046 -0.1412
   58SAPC  H10R 4347   4.761   2.691   9.444  0.6554  0.1533  2.1515
   58SAPC  H10S 4348   4.856   2.810   9.353 -0.6494 -1.4413 -0.7625
   58SAPC  C211 4349   4.642   2.861   9.381  0.5719  0.4843 -0.1350
   58SAPC  H11R 4350   4.585   2.896   9.469  0.0597  0.3317 -0.3997
   58SAPC  C212 4351   4.589   2.879   9.263  0.2249 -0.6146 -0.0206
   58SAPC  H12R 4352   4.488   2.922   9.268  1.0679  1.4030  0.8275
   58SAPC  C213 4353   4.646   2.839   9.136 -0.3008  0.0747 -0.6239
   58SAPC  H13R 4354   4.723   2.764   9.166  0.4931  0.9445 -0.4275
   58SAPC  H13S 4355   4.695   2.922   9.082 -1.0419 -0.5765 -2.3789
   58SAPC  C214 4356   4.559   2.763   9.038  0.7481  0.5511  0.3221
   58SAPC  H14R 4357   4.532   2.659   9.064 -2.1356  0.9713 -0.6490
   58SAPC  C215 4358   4.531   2.802   8.911  0.6676 -0.4067 -0.2993
   58SAPC  H15R 4359   4.457   2.739   8.860  1.4962 -1.8311  0.2067
   58SAPC  C216 4360   4.577   2.926   8.830  0.5328  0.0000  0.2300
   58SAPC  H16R 4361   4.655   2.989   8.877 -0.8322  2.0243 -0.0736
   58SAPC  H16S 4362   4.487   2.985   8.800 -0.5136 -1.5108  0.2383
   58SAPC  C217 4363   4.656   2.873   8.700  0.6095  0.5639 -0.3245
   58SAPC  H17R 4364   4.595   2.802   8.639  0.1321 -0.5507  1.3733
   58SAPC  H17S 4365   4.758   2.838   8.725 -0.0320 -1.6690 -0.6027
   58SAPC  C218 4366   4.680   2.997   8.605  0.6414  0.5865 -0.1439
   58SAPC  H18R 4367   4.731   3.076   8.663 -0.7459  0.2275  1.6517
   58SAPC  H18S 4368   4.578   3.035   8.583  0.8317  1.4692  0.4812
   58SAPC  C219 4369   4.755   2.953   8.480  0.0204 -0.0828  0.4358
   58SAPC  H19R 4370   4.680   2.885   8.435  0.9582 -2.7652  2.6117
   58SAPC  H19S 4371   4.845   2.888   8.495  0.3268  0.3268  0.3827
   58SAPC  C220 4372   4.800   3.072   8.392  0.5619 -0.0568 -0.6923
   58SAPC  H20R 4373   4.867   3.131   8.458  0.1862 -1.0507  0.6445
   58SAPC  H20S 4374   4.710   3.123   8.352 -0.3070 -2.0960 -1.4933
   58SAPC  H20T 4375   4.843   3.025   8.301 -0.8460 -0.4540 -1.1747
   58SAPC   C33 4376   4.571   2.243  10.186 -0.0725  1.0256  0.1571
   58SAPC   H3X 4377   4.481   2.249  10.251 -1.6277 -1.6205 -1.5638
   58SAPC   H3Y 4378   4.616   2.144  10.212 -0.3046  1.1407  1.0174
   58SAPC   C34 4379   4.525   2.239  10.039  0.6949 -0.0706 -0.6232
   58SAPC   H4X 4380   4.467   2.329  10.011  0.8289  0.8638  1.8605
   58SAPC   H4Y 4381   4.463   2.147  10.028 -1.0154  1.3416 -5.4893
   58SAPC   C35 4382   4.643   2.227   9.947  0.1300  0.3841  0.1400
   58SAPC   H5X 4383   4.715   2.150   9.983  0.0123 -0.6678 -1.7291
   58SAPC   H5Y 4384   4.702   2.321   9.943  0.3022  0.2702  0.0313
   58SAPC   C36 4385   4.596   2.185   9.806 -0.1588  0.5561 -0.0239
   58SAPC   H6X 4386   4.522   2.102   9.811 -1.9639  1.9880 -1.3947
   58SAPC   H6Y 4387   4.684   2.147   9.750 -1.0625 -2.3238  0.3374
   58SAPC   C37 4388   4.520   2.296   9.729  0.3487  0.1691  0.1597
   58SAPC   H7X 4389   4.599   2.370   9.702  0.7362  1.0555  3.3620
   58SAPC   H7Y 4390   4.445   2.346   9.794 -0.3675  2.7935 -2.4299
   58SAPC   C38 4391   4.442   2.235   9.607 -0.1266 -0.0037  0.5405
   58SAPC   H8X 4392   4.361   2.307   9.583 -0.3130 -0.3740  0.0612
   58SAPC   H8Y 4393   4.391   2.140   9.631 -1.5729  0.8615  1.0164
   58SAPC   C39 4394   4.523   2.220   9.469 -0.3006 -0.1879  0.0888
   58SAPC   H9X 4395   4.470   2.151   9.400 -0.0635 -1.9683  1.6017
   58SAPC   H9Y 4396   4.615   2.167   9.501 -0.6346 -1.2374 -0.6331
   58SAPC  C310 4397   4.542   2.349   9.396 -0.1412 -0.7224 -0.2315
   58SAPC  H10X 4398   4.618   2.332   9.317  1.0803  0.7527  0.5812
   58SAPC  H10Y 4399   4.589   2.424   9.463 -0.2534 -0.5217 -0.3747
   58SAPC  C311 4400   4.411   2.399   9.341 -0.2436  1.0226  0.1055
   58SAPC  H11X 4401   4.361   2.429   9.436  0.6770 -0.2103  1.0110
   58SAPC  H11Y 4402   4.354   2.312   9.302 -2.3303  1.1079  2.6988
   58SAPC  C312 4403   4.412   2.520   9.249  0.4048  0.4321 -0.1898
   58SAPC  H12X 4404   4.443   2.484   9.149 -0.0164  0.1936 -0.2345
   58SAPC  H12Y 4405   4.491   2.588   9.289  0.4741  0.2174  0.0454
   58SAPC  C313 4406   4.277   2.591   9.234 -0.1483  0.3768 -0.2165
   58SAPC  H13X 4407   4.303   2.687   9.183 -1.2310 -0.2898 -2.1444
   58SAPC  H13Y 4408   4.237   2.611   9.336 -0.4264 -1.3620  0.0463
   58SAPC  C314 4409   4.172   2.514   9.150 -0.4110 -0.5144  0.0007
   58SAPC  H14X 4410   4.072   2.559   9.166  0.0621  0.7693 -0.5165
   58SAPC  H14Y 4411   4.156   2.410   9.186 -3.9699 -0.7588 -1.8744
   58SAPC  C315 4412   4.197   2.504   8.999 -0.0722 -0.2786  1.0664
   58SAPC  H15X 4413   4.275   2.426   8.985 -0.8995 -1.1142  1.0635
   58SAPC  H15Y 4414   4.242   2.598   8.960 -0.8382 -1.0431 -1.9147
   58SAPC  C316 4415   4.077   2.462   8.914 -0.0186 -0.3528 -0.2552
   58SAPC  H16X 4416   4.122   2.437   8.816 -0.3022  0.4859 -0.6074
   58SAPC  H16Y 4417   4.005   2.547   8.914  1.6579  1.1580 -2.0818
   58SAPC  C317 4418   3.995   2.339   8.966 -0.1750  0.1883  0.6435
   58SAPC  H17X 4419   3.966   2.345   9.073  2.4494 -0.3263  1.4500
   58SAPC  H17Y 4420   4.058   2.248   8.967 -2.5409 -1.5382  1.9040
   58SAPC  C318 4421   3.877   2.318   8.875  0.7822  0.0359 -0.0066
   58SAPC  H18X 4422   3.814   2.236   8.916  0.2410  0.0989 -0.7079
   58SAPC  H18Y 4423   3.915   2.307   8.771 -2.0802  0.2811 -1.1528
   58SAPC  H18Z 4424   3.812   2.408   8.877 -0.5123 -0.8791  1.5769
   59SAPC     N 4425   0.204   5.349  11.222  0.0953 -0.1867 -0.1757
   59SAPC   C12 4426   0.152   5.283  11.096 -0.0317  0.4079  0.3323
   59SAPC  H12A 4427   0.154   5.348  11.009 -0.3754 -2.7230 -2.2217
   59SAPC  H12B 4428   0.052   5.253  11.123  0.6901  1.3065  4.7800
   59SAPC   C13 4429   0.338   5.409  11.214 -0.4850 -0.2614 -0.2984
   59SAPC  H13A 4430   0.355   5.474  11.298  1.3718 -2.4762  1.1464
   59SAPC  H13B 4431   0.412   5.333  11.196 -0.9266 -0.5960 -0.7307
   59SAPC  H13C 4432   0.348   5.480  11.133 -0.1227 -1.0258 -0.9476
   59SAPC   C14 4433   0.114   5.462  11.256  0.3736 -0.1891  0.0076
   59SAPC  H14A 4434   0.139   5.518  11.345 -0.9307  1.5302 -0.6690
   59SAPC  H14B 4435   0.113   5.537  11.178  0.2372  1.5156  1.5725
   59SAPC  H14C 4436   0.010   5.436  11.270  0.7159 -2.3680 -1.0918
   59SAPC   C15 4437   0.200   5.249  11.332 -0.5043 -0.2452  0.0184
   59SAPC  H15A 4438   0.101   5.210  11.350  0.1136 -1.2654  1.3456
   59SAPC  H15B 4439   0.264   5.166  11.309 -1.1820 -0.3569 -1.6509
   59SAPC  H15C 4440   0.234   5.295  11.424  0.3779 -0.3621 -0.2402
   59SAPC   C11 4441   0.239   5.164  11.039  0.0975  0.5406  0.7892
   59SAPC  H11A 4442   0.191   5.135  10.943 -0.1333  3.6239 -0.1563
   59SAPC  H11B 4443   0.211   5.081  11.107  0.4002  2.6921  3.7472
   59SAPC     P 4444   0.487   5.089  11.085  0.0540  0.3032  0.1690
   59SAPC   O13 4445   0.615   5.150  11.064  0.3818  0.4025  0.6516
   59SAPC   O14 4446   0.443   5.053  11.221  0.5646 -0.4494 -0.2143
   59SAPC   O12 4447   0.377   5.188  11.024  0.7333 -0.2900  0.1065
   59SAPC   O11 4448   0.474   4.971  10.978  0.1333  0.1276 -0.4421
   59SAPC    C1 4449   0.495   4.985  10.837  0.3409  0.5000 -0.4333
   59SAPC    HA 4450   0.430   5.067  10.798  0.1585  0.7940  0.4638
   59SAPC    HB 4451   0.599   5.019  10.816  0.4312 -0.5787 -1.8027
   59SAPC    C2 4452   0.443   4.861  10.758  0.0769 -0.4662  0.0700
   59SAPC    HS 4453   0.427   4.892  10.652  0.1806  1.5789  0.6143
   59SAPC   O21 4454   0.317   4.802  10.807  0.2520 -0.2218  0.3338
   59SAPC   C21 4455   0.205   4.857  10.763 -0.0041 -0.0507 -0.3742
   59SAPC   O22 4456   0.193   4.941  10.675  0.0485  0.6421 -0.6989
   59SAPC   C22 4457   0.088   4.800  10.844 -0.0367  0.2694  0.1102
   59SAPC   H2R 4458   0.093   4.860  10.937  0.4942  0.4146 -0.0038
   59SAPC   H2S 4459  -0.008   4.813  10.790  0.6965  1.0321 -1.0690
   59SAPC    C3 4460   0.551   4.750  10.765 -0.8259  1.0025 -0.0225
   59SAPC    HX 4461   0.578   4.729  10.870  0.3239 -2.0718 -0.8336
   59SAPC    HY 4462   0.647   4.797  10.737 -0.7990  0.2974 -1.1921
   59SAPC   O31 4463   0.526   4.635  10.682  0.4110 -0.6436  0.6741
   59SAPC   C31 4464   0.593   4.526  10.711 -0.3976  0.6276  0.2163
   59SAPC   O32 4465   0.685   4.526  10.792 -0.2028 -0.4703  0.3085
   59SAPC   C32 4466   0.546   4.411  10.623 -0.1421 -0.3025 -0.5334
   59SAPC   H2X 4467   0.540   4.452  10.520  0.8948 -0.7565 -0.7904
   59SAPC   H2Y 4468   0.446   4.374  10.655  0.4197 -2.2542 -0.8880
   59SAPC   C23 4469   0.097   4.645  10.876 -0.0533  0.3795 -0.5364
   59SAPC   H3R 4470  -0.005   4.620  10.912 -0.4629  2.6760  0.0378
   59SAPC   H3S 4471   0.175   4.630  10.954 -1.1556  1.8703  0.9087
   59SAPC   C24 4472   0.132   4.560  10.753  0.1282 -0.2116 -0.2252
   59SAPC   H4R 4473   0.136   4.454  10.786 -2.7167 -0.2210  0.3493
   59SAPC   H4S 4474   0.233   4.586  10.717  0.6984 -0.5464  1.0697
   59SAPC   C25 4475   0.034   4.561  10.637  0.8766 -0.5147  0.3343
   59SAPC   H5R 4476  -0.073   4.562  10.665  1.0410  2.8434  1.2705
   59SAPC   C26 4477   0.063   4.563  10.504  0.1025 -0.0892 -0.0716
   59SAPC   H6R 4478  -0.018   4.582  10.432 -1.9324  0.3389  2.2050
   59SAPC   C27 4479   0.197   4.573  10.429  0.4543  0.0018  0.2266
   59SAPC   H7R 4480   0.174   4.534  10.328 -1.4832 -1.2604  1.1014
   59SAPC   H7S 4481   0.266   4.498  10.474 -0.7058 -0.9322  0.4969
   59SAPC   C28 4482   0.269   4.701  10.420 -0.5478 -0.0430  0.6067
   59SAPC   H8R 4483   0.350   4.716  10.492  0.5465  0.2102 -0.6496
   59SAPC   C29 4484   0.272   4.799  10.320 -0.5377 -0.5016 -0.5986
   59SAPC   H9R 4485   0.328   4.893  10.333 -1.6174  0.1927 -0.8461
   59SAPC  C210 4486   0.187   4.790  10.201 -0.1161 -0.2081  0.5288
   59SAPC  H10R 4487   0.079   4.797  10.228 -0.2723  0.4308 -0.2296
   59SAPC  H10S 4488   0.203   4.693  10.150  1.7807 -0.4215  1.4142
   59SAPC  C211 4489   0.221   4.895  10.102 -0.6749 -0.7289  0.1242
   59SAPC  H11R 4490   0.227   4.995  10.145  0.2816 -0.8516  0.2927
   59SAPC  C212 4491   0.258   4.886   9.967  0.2650  0.1836  0.1833
   59SAPC  H12R 4492   0.288   4.970   9.903  1.9806  0.0717  0.7800
   59SAPC  C213 4493   0.258   4.763   9.887  0.2713  0.0601  0.0069
   59SAPC  H13R 4494   0.314   4.683   9.941  0.6081  0.3606  0.1119
   59SAPC  H13S 4495   0.315   4.785   9.794  0.5504 -0.4504  0.0508
   59SAPC  C214 4496   0.126   4.708   9.852 -0.1372  0.0034 -0.2264
   59SAPC  H14R 4497   0.047   4.737   9.925  2.4431  0.8897  2.4214
   59SAPC  C215 4498   0.098   4.621   9.754  0.5219 -0.1667 -0.1486
   59SAPC  H15R 4499  -0.005   4.583   9.745 -0.1079  0.6682  2.6703
   59SAPC  C216 4500   0.189   4.561   9.653 -0.2149 -0.0132  0.6321
   59SAPC  H16R 4501   0.217   4.456   9.678 -0.5608  0.3760  2.9149
   59SAPC  H16S 4502   0.281   4.623   9.645 -0.5966  0.4831 -0.0066
   59SAPC  C217 4503   0.140   4.562   9.504  0.8047  0.2776  0.6301
   59SAPC  H17R 4504   0.228   4.532   9.444  1.3076  1.3510  0.8020
   59SAPC  H17S 4505   0.097   4.661   9.477 -1.1217 -0.8805 -0.8735
   59SAPC  C218 4506   0.031   4.458   9.471 -0.6950  0.2099  0.3684
   59SAPC  H18R 4507  -0.063   4.473   9.528 -0.0608  1.7993  1.0780
   59SAPC  H18S 4508   0.075   4.358   9.490 -1.0766 -0.2661 -1.1098
   59SAPC  C219 4509  -0.008   4.479   9.322  0.1432 -0.3733 -0.8989
   59SAPC  H19R 4510  -0.038   4.585   9.303  0.2322 -0.6392 -2.6026
   59SAPC  H19S 4511  -0.108   4.430   9.319 -1.2812  1.6853  3.6011
   59SAPC  C220 4512   0.089   4.416   9.228 -0.7301 -0.4206  0.0826
   59SAPC  H20R 4513   0.109   4.314   9.266  0.5707  0.4271  1.8406
   59SAPC  H20S 4514   0.194   4.451   9.219 -0.9852 -0.2237 -3.3926
   59SAPC  H20T 4515   0.050   4.411   9.124  0.6158 -2.3847 -0.3712
   59SAPC   C33 4516   0.635   4.282  10.601  0.2913  0.4320 -0.2576
   59SAPC   H3X 4517   0.564   4.205  10.564  0.6807 -0.3060  0.4867
   59SAPC   H3Y 4518   0.684   4.258  10.698 -1.1722 -0.6864  0.2410
   59SAPC   C34 4519   0.744   4.299  10.489  0.9557 -0.0871 -0.2194
   59SAPC   H4X 4520   0.847   4.263  10.511  0.1974 -0.5619  3.0977
   59SAPC   H4Y 4521   0.752   4.409  10.479 -0.7013 -0.0480 -1.5451
   59SAPC   C35 4522   0.708   4.235  10.356 -0.5382 -0.9274  0.2886
   59SAPC   H5X 4523   0.788   4.272  10.288  0.5285 -1.3657  1.2875
   59SAPC   H5Y 4524   0.612   4.282  10.325  0.2954  1.8064  1.4831
   59SAPC   C36 4525   0.729   4.082  10.342  0.0773  0.2500 -0.1904
   59SAPC   H6X 4526   0.655   4.043  10.415 -1.2030  1.2506 -0.9132
   59SAPC   H6Y 4527   0.835   4.066  10.370 -0.3062  1.0135  1.8517
   59SAPC   C37 4528   0.704   4.030  10.198  0.0132  0.1398  0.1745
   59SAPC   H7X 4529   0.775   4.090  10.137  0.4763  1.2254  1.7428
   59SAPC   H7Y 4530   0.601   4.060  10.170 -0.2436 -0.9934 -0.1272
   59SAPC   C38 4531   0.727   3.879  10.170 -0.0637 -0.5856 -0.0827
   59SAPC   H8X 4532   0.694   3.820  10.258  1.7949 -0.6265  0.6379
   59SAPC   H8Y 4533   0.835   3.857  10.152 -0.1791 -0.0851 -1.5891
   59SAPC   C39 4534   0.653   3.824  10.038 -0.5465 -0.1758  0.2367
   59SAPC   H9X 4535   0.546   3.842  10.058  0.0052  3.1022  0.8469
   59SAPC   H9Y 4536   0.670   3.715  10.027 -1.4984 -0.2305 -0.7999
   59SAPC  C310 4537   0.696   3.901   9.906 -0.4799 -0.0241 -0.3270
   59SAPC  H10X 4538   0.807   3.890   9.902 -0.5732 -0.7418 -1.1481
   59SAPC  H10Y 4539   0.669   4.007   9.922  0.3342 -0.2243  3.2609
   59SAPC  C311 4540   0.632   3.851   9.781 -0.0347 -0.2032  0.7047
   59SAPC  H11X 4541   0.523   3.870   9.787 -0.0051 -0.2059  1.3679
   59SAPC  H11Y 4542   0.647   3.742   9.786  0.7703 -0.1760 -0.8025
   59SAPC  C312 4543   0.695   3.902   9.649  0.9504 -0.0176 -0.0960
   59SAPC  H12X 4544   0.800   3.865   9.651  1.5035  1.2751 -2.3512
   59SAPC  H12Y 4545   0.703   4.012   9.638 -1.7422  0.2374 -0.0905
   59SAPC  C313 4546   0.629   3.845   9.517  0.4222 -0.1868 -0.1128
   59SAPC  H13X 4547   0.525   3.884   9.507  0.1012 -0.9237  0.3328
   59SAPC  H13Y 4548   0.638   3.736   9.531 -0.7899 -0.0506  2.0878
   59SAPC  C314 4549   0.703   3.888   9.385 -0.7625 -0.8476  0.0752
   59SAPC  H14X 4550   0.703   3.999   9.393  0.2741 -0.9207  1.4502
   59SAPC  H14Y 4551   0.633   3.850   9.308 -1.1202  0.0882 -0.0676
   59SAPC  C315 4552   0.850   3.831   9.364 -0.0433 -0.9118 -0.3094
   59SAPC  H15X 4553   0.855   3.722   9.345  1.9832 -1.2304  1.6369
   59SAPC  H15Y 4554   0.902   3.854   9.459 -0.8317  1.1227 -0.3074
   59SAPC  C316 4555   0.924   3.896   9.243  0.7228  0.0619 -0.2044
   59SAPC  H16X 4556   0.857   3.884   9.155  2.6148  0.5674 -1.7688
   59SAPC  H16Y 4557   1.016   3.841   9.215  2.2764  1.0792  2.5449
   59SAPC  C317 4558   0.955   4.046   9.249  0.0201 -0.7060 -0.1896
   59SAPC  H17X 4559   0.856   4.096   9.247  0.1449 -0.2873  1.9324
   59SAPC  H17Y 4560   1.003   4.083   9.157 -0.6117  1.1531  0.1924
   59SAPC  C318 4561   1.029   4.092   9.374  0.3509 -0.6978  0.5446
   59SAPC  H18X 4562   0.963   4.077   9.462 -0.8602  2.1006  0.2189
   59SAPC  H18Y 4563   1.058   4.200   9.369  0.1206 -0.6601 -3.3586
   59SAPC  H18Z 4564   1.123   4.036   9.391  1.1452  0.5799  0.5524
   60SAPC     N 4565   0.940   3.284  11.094 -0.0954 -0.1182  0.4960
   60SAPC   C12 4566   1.023   3.229  10.984 -0.6856 -0.1287  0.6982
   60SAPC  H12A 4567   1.126   3.241  11.012 -0.5109 -0.4410  0.2081
   60SAPC  H12B 4568   1.004   3.281  10.891 -0.8111  0.0557  0.8250
   60SAPC   C13 4569   0.987   3.231  11.228 -0.5587 -0.4283  0.3823
   60SAPC  H13A 4570   0.931   3.270  11.312 -0.8801  1.7257 -0.7685
   60SAPC  H13B 4571   0.978   3.124  11.238  0.5979 -0.5872 -0.0779
   60SAPC  H13C 4572   1.086   3.265  11.254 -0.9968  0.2454  1.2415
   60SAPC   C14 4573   0.943   3.438  11.089 -0.3142 -0.1803  0.2742
   60SAPC  H14A 4574   1.045   3.468  11.110  0.0806 -0.4758 -1.1392
   60SAPC  H14B 4575   0.923   3.485  10.994  0.3540 -0.6223 -0.0956
   60SAPC  H14C 4576   0.867   3.484  11.150 -0.5074  1.3883 -1.0859
   60SAPC   C15 4577   0.803   3.228  11.091 -0.0427 -0.4226  0.1245
   60SAPC  H15A 4578   0.742   3.283  11.021 -0.5649 -2.0424 -0.7655
   60SAPC  H15B 4579   0.797   3.126  11.054 -0.8011 -0.5625  0.5987
   60SAPC  H15C 4580   0.757   3.223  11.189 -0.5137  0.5379 -0.0352
   60SAPC   C11 4581   1.022   3.076  10.953 -0.7587 -0.0412 -0.2468
   60SAPC  H11A 4582   1.036   3.008  11.039  1.1741 -0.3048 -0.7231
   60SAPC  H11B 4583   1.117   3.060  10.897  0.6763  0.5006  1.9210
   60SAPC     P 4584   0.831   2.903  10.907  0.2945  0.1307 -0.0603
   60SAPC   O13 4585   0.920   2.802  10.962 -0.1007  0.2841 -0.2423
   60SAPC   O14 4586   0.713   2.938  10.991  0.0225  0.2235  0.0603
   60SAPC   O12 4587   0.907   3.042  10.882 -0.2363 -0.1812  0.5555
   60SAPC   O11 4588   0.774   2.858  10.762 -0.1816  1.1044 -0.1514
   60SAPC    C1 4589   0.759   2.954  10.652  0.3686  0.2092  0.2888
   60SAPC    HA 4590   0.778   3.058  10.685  2.1814  0.0104 -0.0111
   60SAPC    HB 4591   0.838   2.925  10.580 -1.0596 -1.8919 -0.5441
   60SAPC    C2 4592   0.613   2.946  10.602  0.0378  0.2645  0.5426
   60SAPC    HS 4593   0.595   2.837  10.588  3.4104 -0.5773  1.9162
   60SAPC   O21 4594   0.605   3.025  10.481 -0.8471  0.7388  0.0557
   60SAPC   C21 4595   0.571   2.957  10.372  0.4615 -0.3593  0.7112
   60SAPC   O22 4596   0.566   2.837  10.361 -0.7650 -0.3797  0.4914
   60SAPC   C22 4597   0.541   3.050  10.256  0.1450  0.9633  0.2137
   60SAPC   H2R 4598   0.559   2.986  10.167 -1.9414 -0.8124  0.9804
   60SAPC   H2S 4599   0.435   3.082  10.257 -0.1417  0.0564  0.2613
   60SAPC    C3 4600   0.508   3.000  10.701  0.5245  0.6626 -0.5234
   60SAPC    HX 4601   0.550   3.087  10.754 -1.0928  0.8670  0.4972
   60SAPC    HY 4602   0.502   2.918  10.776 -0.7737  0.7174 -0.5542
   60SAPC   O31 4603   0.372   3.012  10.639  0.1130 -0.1949  0.3216
   60SAPC   C31 4604   0.342   3.137  10.606  0.3552  0.3186  0.0080
   60SAPC   O32 4605   0.405   3.235  10.641  0.6392  0.7573 -0.4536
   60SAPC   C32 4606   0.207   3.140  10.527 -0.4516  0.1631 -0.9899
   60SAPC   H2X 4607   0.126   3.140  10.604  0.4648  0.4407  0.0037
   60SAPC   H2Y 4608   0.213   3.054  10.457  0.6881 -0.0831 -0.6055
   60SAPC   C23 4609   0.631   3.178  10.251  0.5080  0.1530  0.0910
   60SAPC   H3R 4610   0.733   3.154  10.213 -0.1074 -1.6232 -0.5647
   60SAPC   H3S 4611   0.639   3.221  10.353 -0.1952  0.3276  0.0732
   60SAPC   C24 4612   0.575   3.286  10.154 -0.3794 -0.9114 -0.5839
   60SAPC   H4R 4613   0.651   3.368  10.157 -0.2877 -0.8549 -2.8949
   60SAPC   H4S 4614   0.480   3.323  10.198  0.6464  1.8773 -0.5313
   60SAPC   C25 4615   0.549   3.252  10.006 -0.7434  0.1811 -0.2174
   60SAPC   H5R 4616   0.475   3.171   9.997  0.2901 -1.1375  2.0833
   60SAPC   C26 4617   0.612   3.303   9.896  0.6108  0.5600  0.3655
   60SAPC   H6R 4618   0.575   3.269   9.798  0.4096  2.2159 -0.1712
   60SAPC   C27 4619   0.721   3.397   9.888 -0.6918 -0.2044 -0.4098
   60SAPC   H7R 4620   0.815   3.338   9.884  0.1398  1.0960 -0.6059
   60SAPC   H7S 4621   0.719   3.459   9.980 -0.6483 -1.2640  0.3178
   60SAPC   C28 4622   0.727   3.467   9.754  0.0489 -0.2362  0.5101
   60SAPC   H8R 4623   0.632   3.457   9.700 -2.3294 -3.0141  4.6539
   60SAPC   C29 4624   0.839   3.511   9.696  0.5074 -0.0678  0.3940
   60SAPC   H9R 4625   0.829   3.569   9.603 -1.4413 -0.3561  0.3834
   60SAPC  C210 4626   0.978   3.500   9.754  0.0988 -0.3269  0.2050
   60SAPC  H10R 4627   1.040   3.446   9.680  0.5878 -1.5014  1.4210
   60SAPC  H10S 4628   1.002   3.442   9.846  0.4219 -0.5399 -0.0122
   60SAPC  C211 4629   1.009   3.646   9.767  0.5528  0.2122  0.6163
   60SAPC  H11R 4630   0.959   3.692   9.853 -1.2763  1.5305 -1.0591
   60SAPC  C212 4631   1.087   3.721   9.695  0.4182  0.3610  0.0916
   60SAPC  H12R 4632   1.090   3.829   9.719 -3.3532  0.7257 -0.4232
   60SAPC  C213 4633   1.166   3.678   9.573  0.1170 -0.4759 -0.0479
   60SAPC  H13R 4634   1.101   3.679   9.483  0.1885  2.8934 -0.1602
   60SAPC  H13S 4635   1.203   3.573   9.584  3.2519  0.7532  3.5031
   60SAPC  C214 4636   1.278   3.783   9.554  0.1260  0.1984 -0.2973
   60SAPC  H14R 4637   1.315   3.823   9.649  0.6234  0.9892 -0.8172
   60SAPC  C215 4638   1.322   3.822   9.437 -0.1531 -0.0342 -0.1005
   60SAPC  H15R 4639   1.398   3.902   9.441 -0.4603  0.2656 -0.2326
   60SAPC  C216 4640   1.288   3.759   9.308 -0.2304 -0.0452  0.0595
   60SAPC  H16R 4641   1.180   3.782   9.293 -0.3067  0.2338  0.9679
   60SAPC  H16S 4642   1.285   3.649   9.323 -0.0465 -0.0516  0.0409
   60SAPC  C217 4643   1.386   3.785   9.191 -0.3751  0.4446  0.0012
   60SAPC  H17R 4644   1.396   3.686   9.142 -2.1702  0.0668  0.3205
   60SAPC  H17S 4645   1.488   3.811   9.224 -0.0943 -2.0251  1.3205
   60SAPC  C218 4646   1.336   3.895   9.098  0.2820  0.5565 -0.8394
   60SAPC  H18R 4647   1.347   3.991   9.154 -0.7136 -1.1820  2.6112
   60SAPC  H18S 4648   1.229   3.873   9.080 -0.0374  0.2280  1.1878
   60SAPC  C219 4649   1.403   3.905   8.959  0.3715  0.1688  0.2443
   60SAPC  H19R 4650   1.406   3.807   8.907  1.4485  1.3081 -2.0007
   60SAPC  H19S 4651   1.511   3.916   8.984  0.8515 -0.4626 -1.4095
   60SAPC  C220 4652   1.353   4.016   8.870  0.2039  0.6532  0.6885
   60SAPC  H20R 4653   1.251   3.992   8.834  0.6060 -1.5356  0.9054
   60SAPC  H20S 4654   1.421   4.030   8.783 -0.8782  0.6878 -0.1655
   60SAPC  H20T 4655   1.345   4.116   8.918  3.4540  0.9809  0.7893
   60SAPC   C33 4656   0.194   3.274  10.452  0.1816 -0.4852 -0.7036
   60SAPC   H3X 4657   0.260   3.278  10.363  0.5591 -0.3758 -0.4213
   60SAPC   H3Y 4658   0.212   3.360  10.520 -0.3761 -0.7278 -0.2443
   60SAPC   C34 4659   0.047   3.293  10.413 -0.6507  0.0902 -0.0886
   60SAPC   H4X 4660   0.032   3.397  10.378 -0.7077  0.5263  1.1812
   60SAPC   H4Y 4661  -0.021   3.287  10.501  0.5981 -0.4990  0.8642
   60SAPC   C35 4662  -0.007   3.205  10.297 -0.1026 -0.1472 -0.0872
   60SAPC   H5X 4663  -0.117   3.218  10.296 -0.4291 -2.5553 -0.2573
   60SAPC   H5Y 4664   0.010   3.099  10.327  1.6940 -0.2566 -1.3368
   60SAPC   C36 4665   0.049   3.237  10.160  0.2942  0.7137  0.1389
   60SAPC   H6X 4666   0.160   3.242  10.160  0.4354 -1.3574  0.5330
   60SAPC   H6Y 4667   0.008   3.336  10.130  0.0893  0.1889 -1.4174
   60SAPC   C37 4668  -0.007   3.140  10.062  0.1460  0.2022  0.2699
   60SAPC   H7X 4669  -0.114   3.169  10.064  0.1761  0.4265  3.6169
   60SAPC   H7Y 4670   0.001   3.033  10.091 -1.9870  0.0886  0.5380
   60SAPC   C38 4671   0.061   3.143   9.925  0.2300  0.3059 -0.5486
   60SAPC   H8X 4672   0.170   3.123   9.928  0.6710  2.5617  0.4524
   60SAPC   H8Y 4673   0.053   3.245   9.881 -1.8826 -0.3687 -1.9071
   60SAPC   C39 4674  -0.006   3.055   9.820  0.2032 -0.5588  0.4020
   60SAPC   H9X 4675  -0.115   3.075   9.813  0.1387 -1.4046 -2.6321
   60SAPC   H9Y 4676   0.008   2.947   9.845 -0.0775 -0.2867  1.8205
   60SAPC  C310 4677   0.041   3.089   9.672  0.4752 -0.0082  0.8168
   60SAPC  H10X 4678   0.152   3.084   9.671  0.6420  2.1328  2.3219
   60SAPC  H10Y 4679   0.010   3.189   9.636 -0.8255 -0.6265  0.1499
   60SAPC  C311 4680  -0.028   2.995   9.573 -0.2306  0.0958 -0.7736
   60SAPC  H11X 4681  -0.133   2.972   9.598  0.4440 -1.0450  1.3124
   60SAPC  H11Y 4682   0.029   2.899   9.574  1.5025  1.0583  0.9254
   60SAPC  C312 4683  -0.036   3.052   9.430  0.2399  0.2179  0.5976
   60SAPC  H12X 4684  -0.101   3.141   9.442  0.2834  0.4929 -0.9827
   60SAPC  H12Y 4685  -0.092   2.981   9.366 -1.9708  0.5397  2.0738
   60SAPC  C313 4686   0.092   3.093   9.365 -0.2797 -0.0423 -0.0879
   60SAPC  H13X 4687   0.164   3.008   9.361 -1.1423 -0.7553 -2.5994
   60SAPC  H13Y 4688   0.136   3.175   9.426  0.3980 -0.3369 -0.1765
   60SAPC  C314 4689   0.072   3.124   9.221  0.2106  0.1347 -0.1836
   60SAPC  H14X 4690  -0.001   3.206   9.205  0.1768  0.0280 -0.5942
   60SAPC  H14Y 4691   0.028   3.037   9.167 -0.7463  0.9184 -0.6975
   60SAPC  C315 4692   0.200   3.169   9.139 -0.4035 -0.4805 -0.3777
   60SAPC  H15X 4693   0.275   3.216   9.205  0.0962 -0.8303 -0.6888
   60SAPC  H15Y 4694   0.176   3.255   9.073  0.8226  0.5289  0.4531
   60SAPC  C316 4695   0.271   3.060   9.060 -0.6045  0.4145 -0.0035
   60SAPC  H16X 4696   0.202   2.994   9.004 -0.8641  0.7132 -0.0352
   60SAPC  H16Y 4697   0.331   2.995   9.127 -1.2439 -1.2006 -0.9581
   60SAPC  C317 4698   0.370   3.114   8.953  0.5093 -0.1659  0.3884
   60SAPC  H17X 4699   0.428   3.194   9.002 -0.4711  0.7241  0.1281
   60SAPC  H17Y 4700   0.312   3.154   8.867  0.6308 -3.3555 -1.3642
   60SAPC  C318 4701   0.458   3.008   8.886 -0.4491  0.1387  0.5530
   60SAPC  H18X 4702   0.402   2.937   8.821  1.0585 -0.7809  0.2200
   60SAPC  H18Y 4703   0.512   2.951   8.965 -0.3598 -1.4258 -0.5910
   60SAPC  H18Z 4704   0.536   3.063   8.829 -1.9659  0.4500 -1.3434
   61SAPC     N 4705   1.316   3.017  10.635  0.2409  0.2531 -0.0629
   61SAPC   C12 4706   1.213   3.123  10.597  0.0970  0.2502  0.1525
   61SAPC  H12A 4707   1.125   3.113  10.660 -0.2265  0.0081 -0.3354
   61SAPC  H12B 4708   1.172   3.104  10.499 -0.1345  0.2596  0.2467
   61SAPC   C13 4709   1.394   3.048  10.757 -0.2659  0.0903 -0.1861
   61SAPC  H13A 4710   1.489   2.997  10.766  0.4985  1.2451 -1.2959
   61SAPC  H13B 4711   1.417   3.154  10.758 -0.9104  0.2361 -0.3537
   61SAPC  H13C 4712   1.328   3.023  10.839 -1.5673  1.3135 -0.8133
   61SAPC   C14 4713   1.242   2.888  10.639  0.0469 -0.1428 -0.2036
   61SAPC  H14A 4714   1.183   2.874  10.549 -1.4047 -4.4112  1.1786
   61SAPC  H14B 4715   1.304   2.800  10.644 -0.0076 -0.3442 -2.0958
   61SAPC  H14C 4716   1.158   2.894  10.707 -0.2794  0.2280 -0.6325
   61SAPC   C15 4717   1.413   3.023  10.517  0.4716 -0.7733 -0.0222
   61SAPC  H15A 4718   1.366   2.990  10.425  0.8865  1.2014 -1.0114
   61SAPC  H15B 4719   1.443   3.127  10.508  1.7845 -0.6426  4.0561
   61SAPC  H15C 4720   1.498   2.961  10.540  1.9083  1.3257  0.7193
   61SAPC   C11 4721   1.248   3.273  10.602  0.2182 -0.4707  0.1996
   61SAPC  H11A 4722   1.154   3.324  10.572  1.1814  0.7179 -0.9200
   61SAPC  H11B 4723   1.327   3.294  10.527  3.1001 -0.9113  2.9194
   61SAPC     P 4724   1.314   3.473  10.737 -0.2265  0.0200  0.2542
   61SAPC   O13 4725   1.190   3.542  10.691 -0.0988  0.3124 -0.0211
   61SAPC   O14 4726   1.356   3.514  10.875  0.1104 -0.2105  0.2000
   61SAPC   O12 4727   1.294   3.312  10.731  0.0903  0.5426  0.8059
   61SAPC   O11 4728   1.436   3.499  10.642 -0.0370  0.4337 -0.0641
   61SAPC    C1 4729   1.551   3.418  10.628 -0.1220 -0.1368  0.0528
   61SAPC    HA 4730   1.575   3.376  10.727 -0.5989  0.3985  0.4043
   61SAPC    HB 4731   1.526   3.346  10.547 -1.0914  2.1154 -1.7755
   61SAPC    C2 4732   1.671   3.501  10.592 -0.4055  0.1524 -0.4597
   61SAPC    HS 4733   1.685   3.584  10.665 -0.0845  1.9982 -2.5259
   61SAPC   O21 4734   1.645   3.560  10.463 -0.0758 -0.5209 -0.7454
   61SAPC   C21 4735   1.703   3.674  10.438 -0.2745 -0.0306  0.3373
   61SAPC   O22 4736   1.766   3.742  10.521 -0.0804  0.5623 -0.1787
   61SAPC   C22 4737   1.684   3.699  10.287  0.0007 -0.3379 -0.1758
   61SAPC   H2R 4738   1.787   3.686  10.248  0.6958  3.5161 -0.0545
   61SAPC   H2S 4739   1.614   3.623  10.246 -0.0696  0.9911 -2.7091
   61SAPC    C3 4740   1.798   3.411  10.580  0.3017 -0.2077  0.5316
   61SAPC    HX 4741   1.766   3.337  10.504 -4.3165  1.2613  0.6950
   61SAPC    HY 4742   1.810   3.359  10.677  0.6639  4.0978  3.0757
   61SAPC   O31 4743   1.915   3.490  10.539 -0.4021  0.2991 -0.2612
   61SAPC   C31 4744   2.013   3.519  10.625  0.2257  0.6097  0.2264
   61SAPC   O32 4745   2.034   3.469  10.736  0.1190  0.2412 -0.2462
   61SAPC   C32 4746   2.091   3.625  10.553  0.1948 -1.1744  0.7263
   61SAPC   H2X 4747   2.067   3.718  10.609  2.0544 -0.1943 -0.0270
   61SAPC   H2Y 4748   2.046   3.643  10.453 -2.4956  1.7094  2.2363
   61SAPC   C23 4749   1.637   3.841  10.258  0.2178 -0.1602  0.2601
   61SAPC   H3R 4750   1.641   3.849  10.147 -0.2444  0.6306  0.2904
   61SAPC   H3S 4751   1.718   3.912  10.288  0.3096 -0.7962  1.5882
   61SAPC   C24 4752   1.496   3.876  10.327  0.1805 -0.0433 -0.2177
   61SAPC   H4R 4753   1.498   3.864  10.437  5.1868 -2.7799 -0.3065
   61SAPC   H4S 4754   1.436   3.793  10.284 -0.9359  0.2886  0.6602
   61SAPC   C25 4755   1.437   4.009  10.276 -0.0608  0.6518  0.0383
   61SAPC   H5R 4756   1.476   4.092  10.338  1.1893 -0.4579  0.7847
   61SAPC   C26 4757   1.344   4.039  10.180 -0.1926  0.4101  0.0978
   61SAPC   H6R 4758   1.319   4.146  10.164 -1.0543  0.0291 -1.3312
   61SAPC   C27 4759   1.265   3.935  10.105  0.0263 -0.3048  0.2899
   61SAPC   H7R 4760   1.282   3.842  10.164  0.1302  1.3367  3.0426
   61SAPC   H7S 4761   1.314   3.933  10.005 -0.2905  0.1280  0.1252
   61SAPC   C28 4762   1.115   3.974  10.103  0.1225 -0.4048  0.0728
   61SAPC   H8R 4763   1.055   3.923  10.179  1.9249  0.2242  2.0188
   61SAPC   C29 4764   1.047   4.047  10.015 -0.3644 -0.1712 -0.1319
   61SAPC   H9R 4765   0.939   4.062  10.025 -0.0821  0.8132  1.8180
   61SAPC  C210 4766   1.108   4.124   9.896  0.1568  0.3607  0.7959
   61SAPC  H10R 4767   1.195   4.061   9.867 -0.7077  0.5939 -2.6160
   61SAPC  H10S 4768   1.147   4.221   9.934  2.6193 -0.4021  0.3691
   61SAPC  C211 4769   1.002   4.129   9.786 -0.4589  0.1676 -0.0584
   61SAPC  H11R 4770   0.951   4.033   9.770  0.0759 -0.2025  0.4093
   61SAPC  C212 4771   0.984   4.227   9.696 -0.8091 -0.8347 -0.0015
   61SAPC  H12R 4772   0.909   4.210   9.618  1.2541  0.6920 -2.4600
   61SAPC  C213 4773   1.068   4.355   9.678  0.1413  0.2820  0.5688
   61SAPC  H13R 4774   1.119   4.348   9.580 -1.9610 -0.2176 -0.5482
   61SAPC  H13S 4775   1.144   4.357   9.759  0.4789  0.6158  0.2428
   61SAPC  C214 4776   0.973   4.479   9.689 -0.1012  0.4357  0.5732
   61SAPC  H14R 4777   0.925   4.484   9.788  1.0233  0.0400  1.1563
   61SAPC  C215 4778   0.956   4.580   9.600 -0.1923  0.7057  0.1604
   61SAPC  H15R 4779   0.878   4.657   9.609 -1.1633  0.0128 -1.8160
   61SAPC  C216 4780   1.038   4.588   9.473 -1.2262 -0.2560 -0.0013
   61SAPC  H16R 4781   0.994   4.522   9.395  1.7235 -0.2911 -1.7830
   61SAPC  H16S 4782   1.140   4.544   9.482 -2.3677 -3.1803 -0.3556
   61SAPC  C217 4783   1.037   4.732   9.417 -0.8638 -0.5322 -0.1085
   61SAPC  H17R 4784   1.100   4.801   9.477  1.9295 -3.0896  0.1559
   61SAPC  H17S 4785   0.937   4.779   9.421 -0.3229  0.8384 -1.4200
   61SAPC  C218 4786   1.079   4.728   9.266 -0.4190  0.2132  0.6629
   61SAPC  H18R 4787   1.016   4.650   9.219 -1.4083  1.7226 -0.6164
   61SAPC  H18S 4788   1.181   4.684   9.261 -0.4764  0.1295  0.1039
   61SAPC  C219 4789   1.071   4.860   9.199 -0.2016 -0.1288 -0.8894
   61SAPC  H19R 4790   0.969   4.905   9.198 -0.2582 -0.2372 -0.3109
   61SAPC  H19S 4791   1.109   4.844   9.096  0.5414 -1.6276 -0.4081
   61SAPC  C220 4792   1.174   4.961   9.263  0.4395  0.1059  0.4182
   61SAPC  H20R 4793   1.280   4.928   9.272  0.4738  0.0382 -0.2307
   61SAPC  H20S 4794   1.146   4.994   9.366 -0.4979  1.9415 -0.3820
   61SAPC  H20T 4795   1.171   5.059   9.210 -0.3346  0.1670  0.5668
   61SAPC   C33 4796   2.249   3.602  10.567  0.7377 -0.5613 -0.0637
   61SAPC   H3X 4797   2.267   3.574  10.673  0.0266  0.2767  0.2860
   61SAPC   H3Y 4798   2.294   3.703  10.559  0.2918 -0.0780  2.7338
   61SAPC   C34 4799   2.309   3.496  10.474  0.5331 -0.8216 -0.7986
   61SAPC   H4X 4800   2.251   3.404  10.496 -2.9196  0.5281 -3.3946
   61SAPC   H4Y 4801   2.411   3.467  10.509  0.5853  1.8501  1.7073
   61SAPC   C35 4802   2.299   3.514  10.326 -0.3594 -0.8197 -0.0310
   61SAPC   H5X 4803   2.199   3.553  10.300 -0.3722 -0.3536  0.6891
   61SAPC   H5Y 4804   2.319   3.420  10.271  0.6586 -0.8410  0.3388
   61SAPC   C36 4805   2.405   3.617  10.277  0.9001  0.1463  0.0182
   61SAPC   H6X 4806   2.506   3.573  10.291  0.2668 -1.1853  0.6352
   61SAPC   H6Y 4807   2.394   3.719  10.319 -0.7135 -0.3358  0.8648
   61SAPC   C37 4808   2.376   3.634  10.127  0.2826 -0.4813  1.2345
   61SAPC   H7X 4809   2.270   3.668  10.128  0.1731 -0.7516  3.6176
   61SAPC   H7Y 4810   2.373   3.537  10.073  1.2836 -1.8961  3.5534
   61SAPC   C38 4811   2.477   3.729  10.065 -0.1510  0.2876  0.5523
   61SAPC   H8X 4812   2.570   3.673  10.041 -0.2490  0.5966 -0.6135
   61SAPC   H8Y 4813   2.509   3.813  10.130  2.6708 -2.1866  2.6259
   61SAPC   C39 4814   2.429   3.794   9.931  0.2129  0.1001 -0.2790
   61SAPC   H9X 4815   2.338   3.856   9.941  0.0434 -0.3362  1.1432
   61SAPC   H9Y 4816   2.420   3.716   9.852  2.0772  0.4326 -0.8786
   61SAPC  C310 4817   2.539   3.902   9.879  0.0392  0.1478  0.4090
   61SAPC  H10X 4818   2.637   3.848   9.876 -1.0177 -2.0195  2.0480
   61SAPC  H10Y 4819   2.543   3.982   9.956  2.1190  0.8053 -0.2995
   61SAPC  C311 4820   2.503   3.953   9.740  0.2700 -0.1478 -0.3250
   61SAPC  H11X 4821   2.401   3.997   9.739 -0.5274 -1.8913  0.3301
   61SAPC  H11Y 4822   2.486   3.867   9.673  1.1780 -0.0106 -0.7469
   61SAPC  C312 4823   2.605   4.045   9.671 -0.8195 -0.6261 -0.1888
   61SAPC  H12X 4824   2.695   3.983   9.650 -1.2852 -1.2833 -0.2704
   61SAPC  H12Y 4825   2.621   4.128   9.743  0.0372  0.7391 -1.8724
   61SAPC  C313 4826   2.563   4.101   9.535 -0.9861 -0.2116  0.0387
   61SAPC  H13X 4827   2.639   4.171   9.497 -0.8119 -0.4964 -0.1437
   61SAPC  H13Y 4828   2.470   4.161   9.549 -0.3830  0.7729 -0.1284
   61SAPC  C314 4829   2.534   3.991   9.434  0.0550  1.6569 -0.5250
   61SAPC  H14X 4830   2.445   3.932   9.464  1.2536 -0.8783 -1.6930
   61SAPC  H14Y 4831   2.623   3.925   9.433 -0.8049  0.4180 -2.4816
   61SAPC  C315 4832   2.504   4.049   9.296 -0.4693  0.1105 -0.0867
   61SAPC  H15X 4833   2.598   4.076   9.243 -0.1694 -1.4989 -0.4095
   61SAPC  H15Y 4834   2.439   4.135   9.325  0.4720  0.1628  2.0484
   61SAPC  C316 4835   2.417   3.952   9.205  0.2382  0.6165 -0.5351
   61SAPC  H16X 4836   2.438   3.980   9.100 -0.5531 -1.1647 -1.2104
   61SAPC  H16Y 4837   2.309   3.972   9.218 -0.0137  1.0381 -2.8757
   61SAPC  C317 4838   2.457   3.800   9.214 -0.5728  0.4079 -0.8275
   61SAPC  H17X 4839   2.460   3.756   9.316 -0.5555  0.2156 -0.9093
   61SAPC  H17Y 4840   2.559   3.791   9.170  0.2298 -2.0434  1.2710
   61SAPC  C318 4841   2.369   3.708   9.131 -0.3989  0.6621  0.1244
   61SAPC  H18X 4842   2.383   3.717   9.022  0.1992 -0.4435  0.0935
   61SAPC  H18Y 4843   2.268   3.736   9.168 -0.3049  0.7493  0.3208
   61SAPC  H18Z 4844   2.377   3.602   9.165  2.1798  0.9522  0.5941
   62SAPC     N 4845   0.683   2.518  10.863  0.0909  0.2235  0.5957
   62SAPC   C12 4846   0.730   2.567  10.720  0.5301 -0.1877 -0.2648
   62SAPC  H12A 4847   0.819   2.508  10.705  1.7157  1.0810  1.4065
   62SAPC  H12B 4848   0.769   2.668  10.723  1.2495 -0.4380 -0.8132
   62SAPC   C13 4849   0.581   2.618  10.921  0.2595  0.1546 -0.2146
   62SAPC  H13A 4850   0.495   2.640  10.860 -0.0875 -0.0288  0.2098
   62SAPC  H13B 4851   0.545   2.582  11.016  0.7286  0.9361  0.2786
   62SAPC  H13C 4852   0.627   2.716  10.926  0.2175  0.2401 -1.3104
   62SAPC   C14 4853   0.625   2.382  10.853  0.7755 -0.9099  0.3144
   62SAPC  H14A 4854   0.530   2.398  10.804  1.3665  0.7115 -0.3541
   62SAPC  H14B 4855   0.690   2.323  10.789  0.7400 -0.4694 -0.1373
   62SAPC  H14C 4856   0.611   2.336  10.950  1.2457 -1.1026  0.2927
   62SAPC   C15 4857   0.806   2.521  10.951  0.0169 -0.3990  0.2242
   62SAPC  H15A 4858   0.798   2.527  11.058  2.2174  2.7096  0.3427
   62SAPC  H15B 4859   0.873   2.440  10.923 -0.7558 -0.7865 -0.5764
   62SAPC  H15C 4860   0.865   2.608  10.926 -0.1526  0.6663  3.1580
   62SAPC   C11 4861   0.634   2.550  10.596 -0.0430 -0.0717  0.3549
   62SAPC  H11A 4862   0.701   2.578  10.512 -0.7118  1.0345  0.1687
   62SAPC  H11B 4863   0.549   2.621  10.588  0.4690  0.7109  1.5719
   62SAPC     P 4864   0.660   2.323  10.467 -0.3085 -0.3316 -0.4943
   62SAPC   O13 4865   0.797   2.302  10.511  0.2206  0.2719 -0.3170
   62SAPC   O14 4866   0.576   2.201  10.455 -0.2089 -0.5344 -0.6515
   62SAPC   O12 4867   0.591   2.418  10.573 -0.4184 -0.6362  0.0577
   62SAPC   O11 4868   0.653   2.411  10.336  0.3310 -0.5109  0.3049
   62SAPC    C1 4869   0.548   2.405  10.237 -0.5916 -0.4233 -0.2216
   62SAPC    HA 4870   0.451   2.382  10.286 -0.8413 -1.7100 -1.2445
   62SAPC    HB 4871   0.540   2.498  10.178 -3.0872  0.1952  0.9567
   62SAPC    C2 4872   0.565   2.299  10.126  0.0814  0.0632  0.2227
   62SAPC    HS 4873   0.675   2.281  10.123 -0.1255 -1.3040  0.2147
   62SAPC   O21 4874   0.509   2.354  10.004 -0.5773 -0.5282  0.2637
   62SAPC   C21 4875   0.588   2.351   9.902  0.1453  0.2752  0.4008
   62SAPC   O22 4876   0.686   2.292   9.881 -0.1793  0.5031  0.3872
   62SAPC   C22 4877   0.507   2.430   9.797 -0.3919  0.4593  0.2066
   62SAPC   H2R 4878   0.408   2.385   9.774  1.0091 -1.9637 -1.5980
   62SAPC   H2S 4879   0.486   2.526   9.849  2.4991  0.9438  0.6520
   62SAPC    C3 4880   0.516   2.154  10.151  0.7940 -0.0675 -0.4080
   62SAPC    HX 4881   0.413   2.164  10.191  1.0520 -1.0033  0.5519
   62SAPC    HY 4882   0.566   2.103  10.236 -0.5115  0.1572  0.5289
   62SAPC   O31 4883   0.511   2.082  10.027 -0.1390  0.2075 -0.3661
   62SAPC   C31 4884   0.605   1.988  10.010  1.0436  0.0011  0.5179
   62SAPC   O32 4885   0.673   1.942  10.099 -0.2773 -0.3535  0.6481
   62SAPC   C32 4886   0.603   1.941   9.864 -0.2537 -0.0121 -0.3699
   62SAPC   H2X 4887   0.555   2.018   9.799 -1.5119 -0.9299 -0.5694
   62SAPC   H2Y 4888   0.538   1.852   9.852 -1.6355  0.7695  1.0550
   62SAPC   C23 4889   0.573   2.465   9.662  0.0654 -0.5313  0.4048
   62SAPC   H3R 4890   0.671   2.509   9.688  0.9350 -0.9677 -1.8568
   62SAPC   H3S 4891   0.522   2.552   9.616  2.2555  0.8038  0.4000
   62SAPC   C24 4892   0.583   2.340   9.568  0.0550  0.4258 -0.1627
   62SAPC   H4R 4893   0.491   2.340   9.507  0.3709 -2.9211 -0.8141
   62SAPC   H4S 4894   0.572   2.253   9.636 -1.0113  1.1321  0.6011
   62SAPC   C25 4895   0.700   2.328   9.480 -0.7136  0.3634  0.0485
   62SAPC   H5R 4896   0.789   2.305   9.541 -1.5672 -0.6151  0.9740
   62SAPC   C26 4897   0.708   2.342   9.346 -0.1058  0.8087  0.1579
   62SAPC   H6R 4898   0.797   2.316   9.287 -0.9036 -2.7294  0.2817
   62SAPC   C27 4899   0.589   2.371   9.254  0.4279 -0.2258  0.4378
   62SAPC   H7R 4900   0.494   2.339   9.302  0.5475 -1.5768 -0.1768
   62SAPC   H7S 4901   0.597   2.318   9.157  1.6028  1.1887 -0.2731
   62SAPC   C28 4902   0.573   2.521   9.238 -0.4796  0.8751  0.2567
   62SAPC   H8R 4903   0.585   2.574   9.334 -1.1323  0.8902  0.3356
   62SAPC   C29 4904   0.536   2.588   9.129  0.2094  0.4061 -0.3155
   62SAPC   H9R 4905   0.539   2.698   9.129 -1.9706  0.5077  0.3480
   62SAPC  C210 4906   0.497   2.528   9.000  0.1596  0.0294 -0.2574
   62SAPC  H10R 4907   0.467   2.422   9.015 -2.1811  0.8244  1.1776
   62SAPC  H10S 4908   0.586   2.535   8.935  0.1639 -1.0389 -0.3906
   62SAPC  C211 4909   0.374   2.591   8.938 -0.2345 -0.3042  0.8140
   62SAPC  H11R 4910   0.289   2.618   9.003  0.1299 -0.4604  1.3685
   62SAPC  C212 4911   0.365   2.620   8.806 -0.3285 -0.4995 -0.0582
   62SAPC  H12R 4912   0.274   2.673   8.776  0.2003  0.7008  0.4157
   62SAPC  C213 4913   0.477   2.586   8.698  0.2177  0.0133  0.2293
   62SAPC  H13R 4914   0.456   2.514   8.616  3.3010 -2.0212  1.0575
   62SAPC  H13S 4915   0.557   2.527   8.747 -0.1611 -0.9602 -0.2964
   62SAPC  C214 4916   0.537   2.715   8.648  0.4324  0.3500  0.4993
   62SAPC  H14R 4917   0.590   2.765   8.731 -1.4180 -0.2998  2.1560
   62SAPC  C215 4918   0.552   2.752   8.523  0.5580 -0.2988  0.1771
   62SAPC  H15R 4919   0.578   2.859   8.513  2.6851 -0.8995 -1.4889
   62SAPC  C216 4920   0.501   2.694   8.389  0.1414  0.5200  0.1830
   62SAPC  H16R 4921   0.446   2.770   8.330 -0.2878 -1.4174 -2.0745
   62SAPC  H16S 4922   0.429   2.613   8.414 -0.7858  0.9989 -0.8365
   62SAPC  C217 4923   0.613   2.626   8.313  0.0395  0.3701 -0.0137
   62SAPC  H17R 4924   0.648   2.546   8.381 -0.2185 -0.0733 -0.3949
   62SAPC  H17S 4925   0.697   2.694   8.289  0.6427 -0.5506 -0.5981
   62SAPC  C218 4926   0.564   2.553   8.190  0.0590 -0.0515  1.1010
   62SAPC  H18R 4927   0.537   2.628   8.113 -0.1768 -2.1748 -0.9901
   62SAPC  H18S 4928   0.485   2.477   8.208  0.2337 -0.9475 -1.5593
   62SAPC  C219 4929   0.673   2.473   8.112 -0.2052 -0.5611 -0.2302
   62SAPC  H19R 4930   0.723   2.397   8.176 -0.6877 -0.9388 -0.2987
   62SAPC  H19S 4931   0.752   2.549   8.089 -0.2022 -0.2615  0.7101
   62SAPC  C220 4932   0.634   2.404   7.978 -0.0589 -0.2636  0.4052
   62SAPC  H20R 4933   0.595   2.486   7.914 -1.4237 -0.6017  0.7581
   62SAPC  H20S 4934   0.568   2.320   8.009  0.1963 -0.9276 -0.8073
   62SAPC  H20T 4935   0.716   2.350   7.927 -1.3405 -0.2054 -1.8761
   62SAPC   C33 4936   0.745   1.912   9.811 -0.1510  0.1178 -0.1210
   62SAPC   H3X 4937   0.790   1.841   9.883 -1.3140 -1.3713 -0.8219
   62SAPC   H3Y 4938   0.793   2.012   9.801 -0.6132  0.3357 -0.1526
   62SAPC   C34 4939   0.744   1.840   9.678  0.2668 -0.4634  0.1770
   62SAPC   H4X 4940   0.672   1.756   9.673  0.7376 -0.8192 -2.2844
   62SAPC   H4Y 4941   0.850   1.819   9.651  0.0715 -0.3649 -0.6960
   62SAPC   C35 4942   0.698   1.935   9.560  0.8836  0.0452  0.6267
   62SAPC   H5X 4943   0.745   2.035   9.549  0.3047  0.1359 -1.4803
   62SAPC   H5Y 4944   0.588   1.950   9.565  0.4348 -1.6417 -2.0609
   62SAPC   C36 4945   0.724   1.862   9.422  0.0701 -0.3517 -0.0158
   62SAPC   H6X 4946   0.676   1.762   9.434  2.6481 -1.5393  1.3078
   62SAPC   H6Y 4947   0.833   1.842   9.417  0.1403 -0.4055  1.2652
   62SAPC   C37 4948   0.660   1.948   9.307 -0.0318 -0.3460  0.1704
   62SAPC   H7X 4949   0.705   2.049   9.295  1.0290 -0.8346 -0.1614
   62SAPC   H7Y 4950   0.554   1.955   9.338 -0.0322  1.9985 -0.2268
   62SAPC   C38 4951   0.668   1.880   9.169  0.4785  0.0120  0.8583
   62SAPC   H8X 4952   0.622   1.779   9.176 -0.0909  0.2212  0.2785
   62SAPC   H8Y 4953   0.770   1.865   9.129 -0.2661  0.5646 -1.4130
   62SAPC   C39 4954   0.589   1.939   9.052  0.1846 -0.2927  0.5961
   62SAPC   H9X 4955   0.634   2.036   9.020 -2.0976  0.2824 -1.2203
   62SAPC   H9Y 4956   0.485   1.963   9.083 -0.2883 -0.0639 -1.0299
   62SAPC  C310 4957   0.571   1.839   8.941 -0.1290  0.1380 -0.3085
   62SAPC  H10X 4958   0.520   1.751   8.985 -0.1616  0.7311  0.9036
   62SAPC  H10Y 4959   0.669   1.817   8.893  0.3363 -1.2003  1.1500
   62SAPC  C311 4960   0.473   1.899   8.838 -0.3648 -0.5037 -0.2703
   62SAPC  H11X 4961   0.369   1.905   8.877  0.1458  1.3444  0.9408
   62SAPC  H11Y 4962   0.493   1.827   8.756  1.3623 -1.4598  0.9456
   62SAPC  C312 4963   0.511   2.039   8.782  0.1189 -0.2574  0.8631
   62SAPC  H12X 4964   0.617   2.024   8.752  0.6345 -1.0002  2.9020
   62SAPC  H12Y 4965   0.510   2.122   8.855  0.1202  0.6499 -0.1378
   62SAPC  C313 4966   0.423   2.075   8.657 -0.4266  0.1665 -0.7051
   62SAPC  H13X 4967   0.320   2.065   8.695  0.0847 -1.7940  0.2993
   62SAPC  H13Y 4968   0.447   2.000   8.578 -1.0239 -1.9777  1.0432
   62SAPC  C314 4969   0.437   2.219   8.605 -0.0052  0.2135  0.1121
   62SAPC  H14X 4970   0.431   2.290   8.690  0.0663 -1.1603  1.3012
   62SAPC  H14Y 4971   0.351   2.234   8.535  0.2929  2.9628  0.2244
   62SAPC  C315 4972   0.568   2.231   8.524  0.8099 -0.1419  0.2998
   62SAPC  H15X 4973   0.646   2.175   8.579  0.9091  0.4717  0.7783
   62SAPC  H15Y 4974   0.613   2.331   8.506  0.4294  0.3510  1.9334
   62SAPC  C316 4975   0.552   2.166   8.388 -0.1389  0.2599  0.2503
   62SAPC  H16X 4976   0.484   2.233   8.331  0.0305  0.7150  0.5692
   62SAPC  H16Y 4977   0.502   2.068   8.400 -0.9733  0.5128 -0.9930
   62SAPC  C317 4978   0.684   2.148   8.313 -0.2221 -0.5185 -0.2118
   62SAPC  H17X 4979   0.744   2.241   8.327 -0.7292 -0.5219  2.5116
   62SAPC  H17Y 4980   0.666   2.135   8.205  1.2754  0.5987 -0.6311
   62SAPC  C318 4981   0.769   2.025   8.356  0.2314  0.0560 -0.2022
   62SAPC  H18X 4982   0.802   2.034   8.462  1.8846  1.0486 -0.7602
   62SAPC  H18Y 4983   0.862   2.018   8.296  0.3324  1.4502 -0.2455
   62SAPC  H18Z 4984   0.705   1.936   8.339  1.4949 -0.4332 -3.0288
   63SAPC     N 4985   5.990   5.081   6.427  0.4949  0.2887 -0.2942
   63SAPC   C12 4986   6.017   5.058   6.573  0.7384  0.2483  0.3879
   63SAPC  H12A 4987   5.983   4.960   6.602  1.3844  0.6123  2.5525
   63SAPC  H12B 4988   5.977   5.142   6.628  1.3813  0.6653  0.2377
   63SAPC   C13 4989   6.032   4.961   6.349 -0.3799  0.3297  0.7404
   63SAPC  H13A 4990   6.016   4.960   6.243 -2.6822 -1.5461  1.0154
   63SAPC  H13B 4991   6.139   4.964   6.354 -0.2886  3.3501 -1.0331
   63SAPC  H13C 4992   5.985   4.872   6.391  0.2670 -0.2088  0.3377
   63SAPC   C14 4993   5.853   5.114   6.398 -0.0335  0.7827  0.2871
   63SAPC  H14A 4994   5.839   5.164   6.303 -1.4268  2.3997  1.2735
   63SAPC  H14B 4995   5.777   5.038   6.411 -0.6167  0.7473 -2.7161
   63SAPC  H14C 4996   5.824   5.191   6.468 -0.3357  0.7100  0.2457
   63SAPC   C15 4997   6.080   5.195   6.382  0.0199  0.3123 -1.2352
   63SAPC  H15A 4998   6.052   5.222   6.282  0.0722 -0.3467 -1.4308
   63SAPC  H15B 4999   6.078   5.270   6.460  3.5354 -1.9200  1.3289
   63SAPC  H15C 5000   6.179   5.151   6.385  0.0209  0.2310  2.6492
   63SAPC   C11 5001   6.173   5.052   6.607  0.0497  0.5245 -0.2113
   63SAPC  H11A 5002   6.179   5.029   6.715 -4.4721 -0.2409  0.0396
   63SAPC  H11B 5003   6.225   5.150   6.592 -0.5401  0.7591 -0.7802
   63SAPC     P 5004   6.391   4.937   6.521 -0.1002  0.0713 -0.2782
   63SAPC   O13 5005   6.436   4.794   6.529  0.1751 -0.5030  0.0526
   63SAPC   O14 5006   6.423   5.020   6.405 -0.2050  0.1967 -0.1413
   63SAPC   O12 5007   6.238   4.942   6.540  0.2272  0.0363  0.0431
   63SAPC   O11 5008   6.457   5.014   6.645  0.6481 -0.0104 -0.5519
   63SAPC    C1 5009   6.523   4.953   6.757  0.1804 -0.3157 -0.2466
   63SAPC    HA 5010   6.443   4.920   6.827  0.7049 -1.8343 -0.3086
   63SAPC    HB 5011   6.587   4.867   6.726  1.0803  0.2665 -0.0433
   63SAPC    C2 5012   6.622   5.052   6.829  0.1990 -0.3398  0.3683
   63SAPC    HS 5013   6.555   5.127   6.877  1.6263  0.9970  0.3503
   63SAPC   O21 5014   6.709   5.108   6.729  0.3550 -0.5642 -1.0441
   63SAPC   C21 5015   6.761   5.225   6.775 -0.3781 -0.0889 -0.5492
   63SAPC   O22 5016   6.715   5.290   6.872 -0.5043 -0.1250  0.8779
   63SAPC   C22 5017   6.873   5.259   6.683  0.1422 -0.6538 -0.3042
   63SAPC   H2R 5018   6.862   5.199   6.590  1.3243  0.5141 -1.2328
   63SAPC   H2S 5019   6.854   5.366   6.661 -2.0907 -0.7855  0.7186
   63SAPC    C3 5020   6.699   4.972   6.932 -0.2326  0.0528 -0.7750
   63SAPC    HX 5021   6.762   4.910   6.865 -1.9845 -0.6745 -1.8276
   63SAPC    HY 5022   6.634   4.901   6.987  0.4650 -1.1365 -1.4397
   63SAPC   O31 5023   6.774   5.047   7.027 -0.4243  0.6486  0.3075
   63SAPC   C31 5024   6.699   5.104   7.122  0.7163  0.7084  0.2504
   63SAPC   O32 5025   6.581   5.075   7.146  0.2237 -0.0370  0.8268
   63SAPC   C32 5026   6.784   5.193   7.207  0.2162 -0.4072 -0.4922
   63SAPC   H2X 5027   6.771   5.298   7.174 -0.9367  0.2543  1.8785
   63SAPC   H2Y 5028   6.888   5.167   7.178 -0.1069 -2.4897  0.0280
   63SAPC   C23 5029   7.012   5.230   6.752  0.3696 -0.5627  0.4615
   63SAPC   H3R 5030   7.100   5.251   6.688 -0.1499  3.4346  0.8236
   63SAPC   H3S 5031   7.019   5.121   6.774 -2.2331 -1.2235 -1.4948
   63SAPC   C24 5032   7.037   5.313   6.880  0.0070  0.3673  0.1490
   63SAPC   H4R 5033   7.139   5.284   6.913 -1.5059 -2.3989  2.9348
   63SAPC   H4S 5034   6.961   5.280   6.955 -0.6135  0.9647 -0.2000
   63SAPC   C25 5035   7.041   5.464   6.861  0.1454  0.0909 -0.5001
   63SAPC   H5R 5036   7.021   5.483   6.755 -0.9733  0.6744 -0.1980
   63SAPC   C26 5037   7.038   5.560   6.951 -0.3270  0.3841 -0.2869
   63SAPC   H6R 5038   7.057   5.664   6.920  0.5463  0.1924 -0.4295
   63SAPC   C27 5039   7.036   5.533   7.098 -0.3642  0.3749 -0.2191
   63SAPC   H7R 5040   7.131   5.572   7.142  0.4144  0.5083 -1.9165
   63SAPC   H7S 5041   7.038   5.423   7.109  1.4313  0.2227 -1.6289
   63SAPC   C28 5042   6.917   5.594   7.165 -0.7905  0.7265  0.1220
   63SAPC   H8R 5043   6.826   5.602   7.104  0.3289  0.7501 -1.6233
   63SAPC   C29 5044   6.890   5.632   7.291  0.5583  0.2259 -1.0190
   63SAPC   H9R 5045   6.786   5.660   7.312  0.1793 -0.2728 -2.1521
   63SAPC  C210 5046   6.990   5.623   7.405 -0.1947  0.4044  0.4300
   63SAPC  H10R 5047   7.092   5.593   7.371 -1.5962 -1.0561 -2.8060
   63SAPC  H10S 5048   6.957   5.549   7.481 -0.7006 -0.1195 -0.2875
   63SAPC  C211 5049   6.987   5.752   7.476  0.7298  0.4810 -0.3588
   63SAPC  H11R 5050   6.958   5.836   7.411 -0.2517 -1.4187 -2.5166
   63SAPC  C212 5051   7.015   5.777   7.603  0.5165  0.8642 -0.5884
   63SAPC  H12R 5052   6.986   5.877   7.639 -2.3525  0.2665 -0.9893
   63SAPC  C213 5053   7.062   5.676   7.712  0.8014 -0.3652  0.1994
   63SAPC  H13R 5054   7.158   5.717   7.750  0.3121  2.8616 -1.7070
   63SAPC  H13S 5055   7.083   5.572   7.679 -2.3116 -1.7027  2.0232
   63SAPC  C214 5056   6.966   5.674   7.828 -0.1095  0.0327  0.1611
   63SAPC  H14R 5057   6.864   5.642   7.802  0.0387 -1.8164  1.7096
   63SAPC  C215 5058   6.988   5.722   7.954 -0.6642 -0.1571 -0.0643
   63SAPC  H15R 5059   6.900   5.735   8.018 -1.6881 -1.4454 -1.1459
   63SAPC  C216 5060   7.122   5.771   8.010  0.0322  0.3883  0.4724
   63SAPC  H16R 5061   7.137   5.880   7.996  2.1601 -0.0852 -1.6507
   63SAPC  H16S 5062   7.203   5.721   7.953 -1.5316 -1.2168 -0.4568
   63SAPC  C217 5063   7.129   5.739   8.166  0.7645 -0.3824  0.3629
   63SAPC  H17R 5064   7.100   5.632   8.178 -0.4744  0.1596  2.7403
   63SAPC  H17S 5065   7.048   5.798   8.214 -0.4843 -0.4507 -1.5458
   63SAPC  C218 5066   7.264   5.756   8.232 -0.6322 -0.6584  0.1108
   63SAPC  H18R 5067   7.251   5.787   8.338  0.1327  1.4523 -0.3743
   63SAPC  H18S 5068   7.328   5.833   8.183  3.0202 -3.5541 -0.1458
   63SAPC  C219 5069   7.346   5.626   8.238 -1.0321 -0.8150 -0.3558
   63SAPC  H19R 5070   7.353   5.587   8.135 -0.2319  1.1942 -1.1245
   63SAPC  H19S 5071   7.302   5.548   8.304 -1.1354 -0.8833 -0.5055
   63SAPC  C220 5072   7.498   5.659   8.277  0.2884 -0.4714 -0.1201
   63SAPC  H20R 5073   7.538   5.732   8.204  0.4435  1.9647  2.2780
   63SAPC  H20S 5074   7.549   5.561   8.267 -1.5269 -1.7307  1.9456
   63SAPC  H20T 5075   7.517   5.695   8.380  2.7473  1.1920 -1.0789
   63SAPC   C33 5076   6.756   5.188   7.360  0.2317 -0.5054  0.2258
   63SAPC   H3X 5077   6.770   5.085   7.399 -1.3533  0.2692  3.1025
   63SAPC   H3Y 5078   6.651   5.225   7.366 -0.6363 -2.8239  0.5213
   63SAPC   C34 5079   6.841   5.276   7.442 -0.2274 -1.0309  0.1064
   63SAPC   H4X 5080   6.837   5.372   7.387  1.9209  0.0401  1.6567
   63SAPC   H4Y 5081   6.947   5.245   7.445 -0.1376 -0.9108 -1.3510
   63SAPC   C35 5082   6.786   5.304   7.589  0.7645 -0.8650  0.2269
   63SAPC   H5X 5083   6.703   5.231   7.589  0.2061 -0.2535 -0.6785
   63SAPC   H5Y 5084   6.722   5.395   7.590  0.0358 -1.3703  1.5619
   63SAPC   C36 5085   6.888   5.290   7.701  0.3311  0.4272  0.2648
   63SAPC   H6X 5086   6.974   5.354   7.672 -1.6753  2.7391 -0.9518
   63SAPC   H6Y 5087   6.926   5.186   7.711 -1.0003 -0.1589 -0.5633
   63SAPC   C37 5088   6.832   5.341   7.834 -0.2324 -0.2403 -0.5963
   63SAPC   H7X 5089   6.734   5.290   7.831 -0.0638 -0.5830 -3.7081
   63SAPC   H7Y 5090   6.821   5.452   7.831 -1.3622 -0.3018  0.5774
   63SAPC   C38 5091   6.919   5.308   7.950  0.0826  0.6859  0.0598
   63SAPC   H8X 5092   7.020   5.344   7.921 -0.0316  1.3660  0.4851
   63SAPC   H8Y 5093   6.925   5.197   7.954  2.0436  0.6924 -1.2452
   63SAPC   C39 5094   6.872   5.383   8.074 -0.0909 -0.7515  0.1715
   63SAPC   H9X 5095   6.762   5.366   8.081 -0.1966  0.0196  0.5393
   63SAPC   H9Y 5096   6.905   5.489   8.069 -0.5452 -0.6601 -1.1548
   63SAPC  C310 5097   6.938   5.334   8.206  0.6215  0.8152 -0.3834
   63SAPC  H10X 5098   7.049   5.340   8.209  0.7794  0.6413 -3.2339
   63SAPC  H10Y 5099   6.931   5.224   8.204  2.3001  0.6923 -2.7081
   63SAPC  C311 5100   6.868   5.392   8.333 -1.0634 -0.2500  0.6145
   63SAPC  H11X 5101   6.762   5.364   8.349 -1.1972  0.1023  0.3435
   63SAPC  H11Y 5102   6.859   5.502   8.315 -0.1363  0.0006  1.5236
   63SAPC  C312 5103   6.949   5.358   8.462 -0.5368 -0.8308 -0.4324
   63SAPC  H12X 5104   6.992   5.256   8.456  0.5135 -0.4036 -0.5055
   63SAPC  H12Y 5105   6.886   5.376   8.552  2.1092  2.4161  0.9923
   63SAPC  C313 5106   7.066   5.453   8.481  0.5141 -0.2279 -0.7117
   63SAPC  H13X 5107   7.022   5.555   8.485 -0.5335 -0.7085  2.5683
   63SAPC  H13Y 5108   7.136   5.440   8.395 -0.9161  1.0630 -2.1283
   63SAPC  C314 5109   7.135   5.428   8.612  0.2630 -0.3901  0.1134
   63SAPC  H14X 5110   7.164   5.321   8.622  2.2805  0.1817  0.8361
   63SAPC  H14Y 5111   7.058   5.459   8.687 -1.7170  1.0720 -2.3789
   63SAPC  C315 5112   7.243   5.530   8.638  0.3170 -0.0379 -0.5140
   63SAPC  H15X 5113   7.205   5.635   8.632  0.9674  0.2816  0.7364
   63SAPC  H15Y 5114   7.310   5.524   8.550  0.5131  0.1096 -0.3763
   63SAPC  C316 5115   7.316   5.506   8.767  0.5575 -0.1463 -0.1752
   63SAPC  H16X 5116   7.387   5.420   8.767  0.4167 -0.2739  0.8170
   63SAPC  H16Y 5117   7.240   5.484   8.845  0.8121 -0.6727 -0.0695
   63SAPC  C317 5118   7.389   5.633   8.809 -0.3872 -0.1528  0.3366
   63SAPC  H17X 5119   7.456   5.667   8.727 -0.6778 -1.4827 -0.4756
   63SAPC  H17Y 5120   7.459   5.605   8.891  0.4334  0.3731 -0.1723
   63SAPC  C318 5121   7.294   5.746   8.859 -0.4504 -0.3925 -0.2974
   63SAPC  H18X 5122   7.350   5.826   8.912  1.2736 -0.7366 -1.4878
   63SAPC  H18Y 5123   7.220   5.709   8.932  1.1037 -4.3555 -0.4907
   63SAPC  H18Z 5124   7.249   5.798   8.772 -0.1112  0.1412 -0.1633
   64SAPC     N 5125   1.492   5.331   5.995  0.7560 -0.4016  0.0858
   64SAPC   C12 5126   1.533   5.413   6.117 -0.4660 -0.1845 -0.1609
   64SAPC  H12A 5127   1.444   5.449   6.167  0.3823 -1.4541  2.4749
   64SAPC  H12B 5128   1.597   5.496   6.093  0.8852 -1.2871 -0.4963
   64SAPC   C13 5129   1.458   5.189   6.045  0.1524 -0.4905 -0.4233
   64SAPC  H13A 5130   1.546   5.147   6.091 -1.6689 -1.8935  1.9736
   64SAPC  H13B 5131   1.373   5.195   6.110 -0.2879 -0.6014 -0.9780
   64SAPC  H13C 5132   1.430   5.122   5.964 -1.5436 -0.2571 -0.0614
   64SAPC   C14 5133   1.378   5.384   5.922 -0.6030 -0.1819  0.4671
   64SAPC  H14A 5134   1.282   5.374   5.972 -0.3430 -1.7456  0.7226
   64SAPC  H14B 5135   1.401   5.488   5.908  0.5077 -0.2503  1.5846
   64SAPC  H14C 5136   1.364   5.326   5.832  3.3062 -0.2688 -0.2572
   64SAPC   C15 5137   1.607   5.317   5.903 -0.4110 -0.2379  0.8854
   64SAPC  H15A 5138   1.706   5.296   5.941  1.0461  0.7050 -2.0825
   64SAPC  H15B 5139   1.589   5.238   5.831  1.3950 -0.6841  0.8833
   64SAPC  H15C 5140   1.609   5.410   5.847  0.0733 -1.8854 -2.0228
   64SAPC   C11 5141   1.598   5.339   6.236  0.3425 -0.4793 -0.4649
   64SAPC  H11A 5142   1.515   5.292   6.293  2.7392 -2.6807  1.4149
   64SAPC  H11B 5143   1.638   5.422   6.297 -0.4598 -2.5310  3.1091
   64SAPC     P 5144   1.850   5.278   6.173  0.0882  0.0570 -0.1714
   64SAPC   O13 5145   1.933   5.160   6.158 -0.6066 -0.4310  1.0712
   64SAPC   O14 5146   1.878   5.399   6.087  0.1606 -0.4843 -0.1158
   64SAPC   O12 5147   1.693   5.242   6.186 -0.1532 -0.1223  0.0670
   64SAPC   O11 5148   1.877   5.322   6.327  0.8683  0.6094  0.3383
   64SAPC    C1 5149   1.887   5.218   6.430 -0.5350 -0.1269  0.7728
   64SAPC    HA 5150   1.914   5.122   6.382 -0.6737 -0.2969  1.0340
   64SAPC    HB 5151   1.971   5.240   6.499 -2.3165  1.1736  2.6518
   64SAPC    C2 5152   1.765   5.213   6.514  0.5971 -0.9009 -0.7372
   64SAPC    HS 5153   1.673   5.201   6.453  0.3149  0.6064 -0.6399
   64SAPC   O21 5154   1.759   5.334   6.589 -0.4170  0.2700 -0.2442
   64SAPC   C21 5155   1.642   5.390   6.628 -0.2343  0.3403 -0.1632
   64SAPC   O22 5156   1.530   5.342   6.607 -0.5016  0.5335 -0.0205
   64SAPC   C22 5157   1.670   5.521   6.705  0.3722  0.2470  0.1496
   64SAPC   H2R 5158   1.739   5.586   6.647  0.6729 -1.3106 -1.3044
   64SAPC   H2S 5159   1.568   5.562   6.722  0.6138  1.2472 -0.6929
   64SAPC    C3 5160   1.776   5.093   6.616  0.3619  0.4380 -0.0736
   64SAPC    HX 5161   1.764   5.004   6.551  1.5051 -0.0150  0.3108
   64SAPC    HY 5162   1.690   5.107   6.685 -0.3462 -0.3671 -0.7703
   64SAPC   O31 5163   1.895   5.084   6.689 -0.0459 -0.3897  0.0305
   64SAPC   C31 5164   1.890   5.057   6.819  0.4612  1.0859  0.4405
   64SAPC   O32 5165   1.792   5.041   6.888 -0.0017  0.1576  0.6676
   64SAPC   C32 5166   2.034   5.041   6.874  0.1113 -0.4676 -0.0403
   64SAPC   H2X 5167   2.105   5.101   6.813 -1.0899  1.7109  0.6041
   64SAPC   H2Y 5168   2.059   4.933   6.871  2.5975  0.0359 -0.1937
   64SAPC   C23 5169   1.748   5.486   6.830 -0.1758 -0.1862 -0.3069
   64SAPC   H3R 5170   1.857   5.479   6.812 -0.0937 -1.4339  0.5442
   64SAPC   H3S 5171   1.713   5.386   6.866 -0.8047 -0.1976 -0.9201
   64SAPC   C24 5172   1.714   5.583   6.943 -0.4982 -0.0470 -0.2719
   64SAPC   H4R 5173   1.605   5.606   6.938 -0.6133 -0.8236 -2.9028
   64SAPC   H4S 5174   1.773   5.675   6.927 -0.1912  0.5150  3.2926
   64SAPC   C25 5175   1.758   5.552   7.087 -0.2037  0.6508  0.2935
   64SAPC   H5R 5176   1.770   5.444   7.104 -0.0611  0.7810  1.0686
   64SAPC   C26 5177   1.807   5.629   7.185 -0.0330  0.1120 -0.2285
   64SAPC   H6R 5178   1.837   5.583   7.280  1.1433 -0.2692 -0.7731
   64SAPC   C27 5179   1.812   5.780   7.177  0.0175 -0.2749  0.1190
   64SAPC   H7R 5180   1.749   5.813   7.262 -1.2297  1.2147 -1.3270
   64SAPC   H7S 5181   1.771   5.824   7.084 -0.0557 -0.2869  0.1457
   64SAPC   C28 5182   1.948   5.842   7.195 -0.0433 -0.4981 -0.0843
   64SAPC   H8R 5183   1.997   5.867   7.100 -1.2515  0.6527 -0.4379
   64SAPC   C29 5184   2.014   5.868   7.306  0.0333 -0.6849  0.1658
   64SAPC   H9R 5185   2.118   5.904   7.304  0.0603 -0.4822 -4.1547
   64SAPC  C210 5186   1.962   5.849   7.447  0.0803 -0.2631 -1.0080
   64SAPC  H10R 5187   2.050   5.836   7.513  0.6846  0.7632 -1.5897
   64SAPC  H10S 5188   1.900   5.757   7.455 -1.0708  0.4690 -1.2484
   64SAPC  C211 5189   1.878   5.959   7.510 -0.7525  0.1653 -0.4755
   64SAPC  H11R 5190   1.840   6.031   7.436 -0.2671 -0.0195 -0.9084
   64SAPC  C212 5191   1.846   5.984   7.640  0.9937  0.5118  0.1325
   64SAPC  H12R 5192   1.778   6.068   7.661 -0.1284 -0.2761 -0.2470
   64SAPC  C213 5193   1.884   5.908   7.763 -0.9486  0.4605  0.0253
   64SAPC  H13R 5194   1.952   5.966   7.828  0.4309 -0.4123 -0.5896
   64SAPC  H13S 5195   1.954   5.825   7.738 -1.3323  0.0337  0.3498
   64SAPC  C214 5196   1.768   5.855   7.838 -0.1577  0.4395  0.4451
   64SAPC  H14R 5197   1.698   5.790   7.782  0.1459  1.7023 -1.5093
   64SAPC  C215 5198   1.744   5.869   7.970 -0.0024 -0.7750 -0.7835
   64SAPC  H15R 5199   1.658   5.817   8.014  0.6597 -0.7391  0.6093
   64SAPC  C216 5200   1.827   5.934   8.074  0.3392  0.3508 -0.2114
   64SAPC  H16R 5201   1.758   6.012   8.114  0.3662 -0.1752  0.9259
   64SAPC  H16S 5202   1.912   5.987   8.027  1.2955 -0.5724  0.4219
   64SAPC  C217 5203   1.883   5.834   8.174 -0.0611  0.4202 -0.1761
   64SAPC  H17R 5204   1.922   5.745   8.120 -3.0631 -0.6586 -0.7278
   64SAPC  H17S 5205   1.795   5.792   8.227 -0.2321 -1.3810 -1.7727
   64SAPC  C218 5206   1.984   5.879   8.283 -0.6195 -0.0587  0.6133
   64SAPC  H18R 5207   2.080   5.909   8.235 -0.3584 -0.3117  0.9687
   64SAPC  H18S 5208   2.018   5.786   8.333  0.1110  0.0813  0.3955
   64SAPC  C219 5209   1.955   5.989   8.382  0.3964 -0.7296  0.1902
   64SAPC  H19R 5210   1.952   6.083   8.323  1.8845 -1.5381 -1.2790
   64SAPC  H19S 5211   2.042   6.001   8.451  1.1687  1.3068 -1.0123
   64SAPC  C220 5212   1.829   5.966   8.464  0.1346 -0.2148  0.6439
   64SAPC  H20R 5213   1.836   5.885   8.540  3.0189 -0.4896  0.1999
   64SAPC  H20S 5214   1.750   5.947   8.389 -0.2759  0.4758  0.8886
   64SAPC  H20T 5215   1.800   6.061   8.514  1.4100  1.5911 -1.8269
   64SAPC   C33 5216   2.041   5.102   7.018 -0.3139  0.2287  0.2792
   64SAPC   H3X 5217   2.137   5.073   7.066 -1.0974 -0.4176  1.5030
   64SAPC   H3Y 5218   1.957   5.049   7.069 -0.7447 -0.3004 -0.9283
   64SAPC   C34 5219   2.022   5.253   7.044 -0.0783  0.3442  0.6174
   64SAPC   H4X 5220   2.007   5.264   7.154 -1.9935 -2.6608  0.7954
   64SAPC   H4Y 5221   1.935   5.279   6.980 -0.3495 -2.3468 -0.2582
   64SAPC   C35 5222   2.141   5.341   6.998  0.5133 -0.1238  0.2074
   64SAPC   H5X 5223   2.126   5.349   6.888  1.6830 -0.1769  0.0395
   64SAPC   H5Y 5224   2.234   5.282   7.010  0.6033  0.3306  2.1749
   64SAPC   C36 5225   2.152   5.481   7.050 -0.0367  0.3937 -0.5153
   64SAPC   H6X 5226   2.053   5.527   7.072 -0.5550 -0.9389  0.0363
   64SAPC   H6Y 5227   2.196   5.552   6.976  3.3723 -1.0228 -0.0172
   64SAPC   C37 5228   2.248   5.488   7.166 -0.0240  0.2551  0.6069
   64SAPC   H7X 5229   2.345   5.451   7.127 -0.3076  1.4653 -1.3587
   64SAPC   H7Y 5230   2.204   5.422   7.245 -2.0947  0.1878 -0.5286
   64SAPC   C38 5231   2.269   5.625   7.227  0.0237  0.3882 -0.0170
   64SAPC   H8X 5232   2.188   5.631   7.303  0.9984 -1.7144  1.2883
   64SAPC   H8Y 5233   2.284   5.702   7.148  2.5891  1.0335  1.0264
   64SAPC   C39 5234   2.391   5.632   7.317  0.2305  0.5567 -0.7232
   64SAPC   H9X 5235   2.472   5.600   7.247 -1.2601 -2.5678 -1.2038
   64SAPC   H9Y 5236   2.389   5.557   7.399  0.2849  0.5311 -0.7447
   64SAPC  C310 5237   2.439   5.765   7.362 -0.3515  1.0924 -0.1633
   64SAPC  H10X 5238   2.420   5.847   7.289  0.6442  0.9136 -0.6353
   64SAPC  H10Y 5239   2.547   5.748   7.377 -0.2901 -3.1758 -3.6220
   64SAPC  C311 5240   2.377   5.819   7.496  0.3483 -0.0946 -0.1160
   64SAPC  H11X 5241   2.267   5.823   7.480  0.1960 -3.3585 -0.5431
   64SAPC  H11Y 5242   2.417   5.922   7.508 -0.9693  0.1581  3.1178
   64SAPC  C312 5243   2.405   5.742   7.629 -0.3263  0.6458  0.0476
   64SAPC  H12X 5244   2.515   5.724   7.631  0.3456  3.6720 -2.0033
   64SAPC  H12Y 5245   2.342   5.651   7.623 -1.7794  1.6368 -0.3751
   64SAPC  C313 5246   2.362   5.823   7.756  0.0279  0.5654  0.2813
   64SAPC  H13X 5247   2.253   5.843   7.748 -1.1524 -3.2393  3.5368
   64SAPC  H13Y 5248   2.416   5.920   7.745 -0.3586  0.8338  0.7378
   64SAPC  C314 5249   2.415   5.749   7.883 -0.6956 -0.2299  0.4004
   64SAPC  H14X 5250   2.421   5.828   7.961 -2.1736 -1.2070  1.5941
   64SAPC  H14Y 5251   2.514   5.702   7.869  0.9301  3.1137 -0.1140
   64SAPC  C315 5252   2.310   5.651   7.931  0.9326  0.1237 -0.7854
   64SAPC  H15X 5253   2.304   5.569   7.857  0.9245 -0.2828 -0.3425
   64SAPC  H15Y 5254   2.209   5.697   7.933  0.8128 -0.1154  1.4472
   64SAPC  C316 5255   2.355   5.611   8.077  0.5086  0.0180 -0.7314
   64SAPC  H16X 5256   2.466   5.608   8.080  0.5953  1.4338 -1.5186
   64SAPC  H16Y 5257   2.313   5.512   8.107 -1.7807  0.9266 -0.7857
   64SAPC  C317 5258   2.302   5.717   8.177 -0.0290  0.1749  0.6126
   64SAPC  H17X 5259   2.195   5.727   8.150  0.5155  0.1415 -1.7935
   64SAPC  H17Y 5260   2.346   5.816   8.150 -0.5415  0.2359 -0.0344
   64SAPC  C318 5261   2.332   5.692   8.327 -0.6800  0.0822 -0.3254
   64SAPC  H18X 5262   2.438   5.703   8.357 -1.5507  1.3095  2.7246
   64SAPC  H18Y 5263   2.302   5.586   8.342 -2.2671  0.6128  0.4525
   64SAPC  H18Z 5264   2.267   5.760   8.387  0.2472  0.5927  0.1150
   65SAPC     N 5265   0.243   0.863   5.837 -0.2261  0.2362  0.2247
   65SAPC   C12 5266   0.285   1.012   5.842  0.1659 -0.4758 -0.4256
   65SAPC  H12A 5267   0.254   1.066   5.754 -0.0622  2.9717  1.5689
   65SAPC  H12B 5268   0.390   1.016   5.866  0.2482 -2.8861 -0.1586
   65SAPC   C13 5269   0.322   0.782   5.738 -0.1324 -0.8630 -0.0809
   65SAPC  H13A 5270   0.327   0.823   5.639 -1.4274 -1.8234 -0.5697
   65SAPC  H13B 5271   0.423   0.785   5.777 -0.6446  1.6074  1.2978
   65SAPC  H13C 5272   0.286   0.680   5.735 -2.2938 -0.2355  1.5000
   65SAPC   C14 5273   0.253   0.811   5.978 -0.0517 -0.0304 -0.6888
   65SAPC  H14A 5274   0.206   0.877   6.049  3.3019  0.1695  1.6002
   65SAPC  H14B 5275   0.212   0.712   5.989 -1.6259  0.7507  1.0135
   65SAPC  H14C 5276   0.356   0.812   6.011 -0.6155  1.2550  1.2122
   65SAPC   C15 5277   0.098   0.851   5.793 -0.0197  0.1240 -0.8009
   65SAPC  H15A 5278   0.055   0.752   5.800 -1.2151  0.6517 -0.4184
   65SAPC  H15B 5279   0.042   0.928   5.843  0.7627 -0.4586  1.0761
   65SAPC  H15C 5280   0.099   0.886   5.691  1.8593  1.5243 -0.3679
   65SAPC   C11 5281   0.220   1.092   5.958 -0.2577 -1.0014 -0.1129
   65SAPC  H11A 5282   0.115   1.063   5.976 -0.1196 -0.8546  0.9731
   65SAPC  H11B 5283   0.216   1.198   5.925  2.0953 -0.7818  0.1653
   65SAPC     P 5284   0.234   1.139   6.222 -0.3080  0.3360 -0.1288
   65SAPC   O13 5285   0.241   1.286   6.221 -0.4538  0.4651  0.1680
   65SAPC   O14 5286   0.102   1.077   6.246 -0.2211 -0.2040  0.0686
   65SAPC   O12 5287   0.284   1.073   6.085  0.0598  0.3977  0.3309
   65SAPC   O11 5288   0.346   1.088   6.317 -0.3049  0.4591 -0.5030
   65SAPC    C1 5289   0.435   0.975   6.299  0.2824  0.2052  0.0510
   65SAPC    HA 5290   0.443   0.949   6.192 -0.5029 -3.7422  0.8084
   65SAPC    HB 5291   0.536   0.997   6.340  0.2307 -0.9005  0.8149
   65SAPC    C2 5292   0.360   0.854   6.361  0.2206 -0.9652 -0.2640
   65SAPC    HS 5293   0.257   0.854   6.319  0.4621 -0.3677 -0.8777
   65SAPC   O21 5294   0.369   0.873   6.501  0.5983 -0.4200 -0.5398
   65SAPC   C21 5295   0.262   0.845   6.576  0.5599  0.7497 -0.7197
   65SAPC   O22 5296   0.162   0.783   6.538 -0.6674 -0.5685 -0.1085
   65SAPC   C22 5297   0.271   0.901   6.709 -0.9349 -0.8083  0.1749
   65SAPC   H2R 5298   0.349   0.851   6.770 -1.2912 -0.5156  0.8797
   65SAPC   H2S 5299   0.279   1.012   6.702 -1.2552 -0.7546  0.5870
   65SAPC    C3 5300   0.427   0.720   6.329  0.1106 -1.4176  0.4029
   65SAPC    HX 5301   0.536   0.737   6.319 -0.4474  1.5718 -2.1822
   65SAPC    HY 5302   0.405   0.698   6.222  1.5061 -0.0782 -0.1960
   65SAPC   O31 5303   0.402   0.615   6.420  0.0408 -0.0839 -0.5778
   65SAPC   C31 5304   0.379   0.499   6.367 -0.9692  1.0275  0.0898
   65SAPC   O32 5305   0.341   0.474   6.254 -0.5041  0.0708 -0.9302
   65SAPC   C32 5306   0.371   0.399   6.484  0.2080  0.9114  0.1211
   65SAPC   H2X 5307   0.470   0.351   6.499 -0.3020 -0.9775 -1.9392
   65SAPC   H2Y 5308   0.300   0.322   6.445  1.3598 -0.9489  1.5116
   65SAPC   C23 5309   0.137   0.883   6.781  0.3340 -0.1520  0.3460
   65SAPC   H3R 5310   0.099   0.779   6.776 -1.1683  0.3855  0.0620
   65SAPC   H3S 5311   0.063   0.947   6.728 -0.6153 -1.0160  0.6021
   65SAPC   C24 5312   0.137   0.925   6.927 -0.5446  0.3490  0.1521
   65SAPC   H4R 5313   0.185   1.025   6.940  0.4982 -0.3508  2.1777
   65SAPC   H4S 5314   0.212   0.856   6.972  0.1439  0.6380 -0.5233
   65SAPC   C25 5315   0.005   0.912   6.998  0.0334  0.1977 -0.0044
   65SAPC   H5R 5316  -0.083   0.881   6.940  0.5280 -0.4665 -0.4138
   65SAPC   C26 5317  -0.013   0.951   7.127 -0.3913 -0.1472  0.2530
   65SAPC   H6R 5318  -0.111   0.941   7.176 -0.8836  0.3223 -0.6129
   65SAPC   C27 5319   0.095   0.997   7.216  0.2510  0.4280 -0.8656
   65SAPC   H7R 5320   0.082   1.105   7.240  2.9989  0.2393  2.1746
   65SAPC   H7S 5321   0.197   0.990   7.172  0.3796 -2.5322 -0.2653
   65SAPC   C28 5322   0.109   0.910   7.340  0.8873 -0.2345  0.0945
   65SAPC   H8R 5323   0.205   0.856   7.346  0.8002 -0.3408  0.5828
   65SAPC   C29 5324   0.015   0.883   7.437 -0.7848 -0.3910  0.0157
   65SAPC   H9R 5325   0.048   0.821   7.522  1.7556 -0.9243 -1.2691
   65SAPC  C210 5326  -0.127   0.933   7.446  0.1341 -0.1503 -0.2201
   65SAPC  H10R 5327  -0.153   1.000   7.361  0.6376  0.1496 -0.1470
   65SAPC  H10S 5328  -0.151   0.996   7.535 -2.0616  2.2142 -2.3394
   65SAPC  C211 5329  -0.225   0.826   7.438 -0.0348  0.0314  0.2398
   65SAPC  H11R 5330  -0.217   0.771   7.343 -2.1243 -0.5813  0.3796
   65SAPC  C212 5331  -0.300   0.784   7.540  0.4505 -0.1109 -0.1965
   65SAPC  H12R 5332  -0.359   0.693   7.519  0.3710  0.3234 -1.9821
   65SAPC  C213 5333  -0.304   0.833   7.683 -0.0625 -0.3773 -1.3802
   65SAPC  H13R 5334  -0.281   0.942   7.684 -1.0166 -0.1618  0.2028
   65SAPC  H13S 5335  -0.212   0.788   7.726 -1.1806  1.0317  3.0489
   65SAPC  C214 5336  -0.431   0.791   7.762 -0.1927 -0.0212 -0.7496
   65SAPC  H14R 5337  -0.475   0.696   7.728  1.4179 -0.3698 -2.0047
   65SAPC  C215 5338  -0.495   0.869   7.858 -0.7471  0.7413  0.5599
   65SAPC  H15R 5339  -0.579   0.837   7.922  0.5637  1.6004  2.8270
   65SAPC  C216 5340  -0.445   0.996   7.915 -0.4038  0.0874 -0.0055
   65SAPC  H16R 5341  -0.507   1.085   7.894  0.5397  1.6752  3.2160
   65SAPC  H16S 5342  -0.341   1.016   7.883 -0.8555  2.1639 -0.2925
   65SAPC  C217 5343  -0.446   0.999   8.073 -0.4453 -0.1716 -0.1785
   65SAPC  H17R 5344  -0.371   0.927   8.111  0.8827  1.2162 -0.0495
   65SAPC  H17S 5345  -0.542   0.963   8.113 -0.4144 -2.3632 -1.8688
   65SAPC  C218 5346  -0.408   1.136   8.131 -0.4613 -0.5400 -0.2023
   65SAPC  H18R 5347  -0.469   1.218   8.088 -0.0630 -1.1055 -1.9005
   65SAPC  H18S 5348  -0.298   1.144   8.115 -0.3307 -1.2678  0.2631
   65SAPC  C219 5349  -0.413   1.157   8.281  0.7815 -0.1904 -0.9597
   65SAPC  H19R 5350  -0.518   1.167   8.315  1.6373 -0.7055  2.1138
   65SAPC  H19S 5351  -0.359   1.251   8.303  1.2416 -0.8489  0.8998
   65SAPC  C220 5352  -0.340   1.048   8.357 -0.4145 -0.4187  0.2965
   65SAPC  H20R 5353  -0.338   1.065   8.467 -0.6559  0.0710  0.2267
   65SAPC  H20S 5354  -0.234   1.058   8.325 -1.1364  0.3436 -2.0784
   65SAPC  H20T 5355  -0.368   0.944   8.333 -0.5552 -0.3511  0.1677
   65SAPC   C33 5356   0.307   0.451   6.616  0.1159 -0.6624 -0.5531
   65SAPC   H3X 5357   0.217   0.509   6.586 -0.1290  0.9930  2.9154
   65SAPC   H3Y 5358   0.372   0.531   6.657 -3.3604  1.5353  1.1719
   65SAPC   C34 5359   0.275   0.342   6.718 -0.4300 -0.4865 -0.0733
   65SAPC   H4X 5360   0.205   0.261   6.687 -0.5293 -1.1685  1.8043
   65SAPC   H4Y 5361   0.222   0.382   6.807  1.5645 -0.3470  1.1012
   65SAPC   C35 5362   0.405   0.292   6.787 -0.0455 -0.0743  0.5937
   65SAPC   H5X 5363   0.463   0.386   6.802  1.5008 -1.1783  1.9517
   65SAPC   H5Y 5364   0.449   0.227   6.707 -0.6550  0.7059 -0.3946
   65SAPC   C36 5365   0.387   0.213   6.916 -0.5290  0.0697  0.6580
   65SAPC   H6X 5366   0.484   0.166   6.943  0.8310  2.0989 -0.4664
   65SAPC   H6Y 5367   0.327   0.121   6.897  1.4780 -1.1634 -0.0963
   65SAPC   C37 5368   0.331   0.288   7.037 -0.7385 -0.1966 -0.1640
   65SAPC   H7X 5369   0.220   0.284   7.040 -0.7100 -0.6430  1.6296
   65SAPC   H7Y 5370   0.351   0.397   7.027 -1.2118  0.1715  2.2567
   65SAPC   C38 5371   0.386   0.236   7.165  0.1511 -1.6803  0.7993
   65SAPC   H8X 5372   0.364   0.314   7.242  0.1876  0.3518 -1.1283
   65SAPC   H8Y 5373   0.497   0.227   7.168  0.4791  0.9231 -0.1627
   65SAPC   C39 5374   0.317   0.102   7.216 -0.2248 -0.8198  0.1395
   65SAPC   H9X 5375   0.350   0.026   7.142  1.2435 -0.1327  0.0517
   65SAPC   H9Y 5376   0.207   0.099   7.228 -0.0373 -0.3078  2.4917
   65SAPC  C310 5377   0.365   0.053   7.355 -0.9791 -0.0647  0.2996
   65SAPC  H10X 5378   0.475   0.068   7.346 -1.1191 -0.3657 -4.2236
   65SAPC  H10Y 5379   0.337  -0.054   7.370 -0.8820 -0.0552  0.5409
   65SAPC  C311 5380   0.317   0.147   7.470  0.6029 -0.7289  0.6684
   65SAPC  H11X 5381   0.206   0.141   7.471  0.5237  0.1909 -0.3584
   65SAPC  H11Y 5382   0.346   0.250   7.440  0.8337 -1.3661 -1.4524
   65SAPC  C312 5383   0.357   0.114   7.614  0.2609  0.2664  0.3035
   65SAPC  H12X 5384   0.468   0.119   7.613  0.3907 -1.8029  0.3489
   65SAPC  H12Y 5385   0.349   0.004   7.625  2.4567 -0.1081 -1.1797
   65SAPC  C313 5386   0.285   0.205   7.706 -0.1883 -0.0718 -0.0253
   65SAPC  H13X 5387   0.175   0.211   7.694 -0.6377  0.8380  3.5610
   65SAPC  H13Y 5388   0.318   0.308   7.681  0.1708  0.0121  0.7798
   65SAPC  C314 5389   0.322   0.193   7.853 -0.3157  0.3349 -0.7612
   65SAPC  H14X 5390   0.431   0.214   7.865  0.3125 -2.7598 -0.2842
   65SAPC  H14Y 5391   0.299   0.094   7.898 -1.6381  1.6049  1.5496
   65SAPC  C315 5392   0.231   0.285   7.936  0.4460  0.4557 -0.6899
   65SAPC  H15X 5393   0.126   0.251   7.926  0.3039  0.2690  1.1123
   65SAPC  H15Y 5394   0.239   0.389   7.898  1.5448  0.1078 -1.4731
   65SAPC  C316 5395   0.263   0.296   8.084  0.5397 -0.3519 -0.3306
   65SAPC  H16X 5396   0.368   0.332   8.091 -0.3248  2.2162  0.5616
   65SAPC  H16Y 5397   0.251   0.195   8.128 -0.4359 -0.0330  0.1706
   65SAPC  C317 5398   0.183   0.397   8.169  0.7357 -0.5703 -0.2474
   65SAPC  H17X 5399   0.076   0.382   8.148  0.6831 -1.6913  0.6830
   65SAPC  H17Y 5400   0.199   0.500   8.131  1.9098 -0.7473 -0.2785
   65SAPC  C318 5401   0.206   0.377   8.318  0.0411  0.3555 -0.0222
   65SAPC  H18X 5402   0.310   0.396   8.351 -0.3248  0.9831  0.8144
   65SAPC  H18Y 5403   0.171   0.274   8.337 -0.6062  0.2533 -1.5676
   65SAPC  H18Z 5404   0.137   0.449   8.369 -0.6073  0.2622 -0.7448
   66SAPC     N 5405   4.495   0.828   6.236 -0.5358  0.2125  0.6849
   66SAPC   C12 5406   4.518   0.686   6.282 -0.3663 -1.0304  0.6451
   66SAPC  H12A 5407   4.426   0.665   6.335 -0.3854  2.1672  2.1195
   66SAPC  H12B 5408   4.601   0.683   6.350  1.8375  0.8267 -1.7541
   66SAPC   C13 5409   4.513   0.912   6.357 -0.5104 -0.0667 -1.0812
   66SAPC  H13A 5410   4.449   0.877   6.437 -0.9547  0.3164 -1.2683
   66SAPC  H13B 5411   4.614   0.901   6.394 -0.9976 -0.1499  0.2859
   66SAPC  H13C 5412   4.506   1.018   6.338 -1.3182 -0.1452 -1.2600
   66SAPC   C14 5413   4.603   0.873   6.138 -0.0387 -0.2344 -0.1405
   66SAPC  H14A 5414   4.700   0.871   6.186  0.8851 -2.8982 -1.8776
   66SAPC  H14B 5415   4.608   0.800   6.059 -2.4725 -2.0111  1.2198
   66SAPC  H14C 5416   4.590   0.973   6.097 -0.6590  0.6641  2.1255
   66SAPC   C15 5417   4.361   0.835   6.174 -0.4865 -0.3784  0.9647
   66SAPC  H15A 5418   4.320   0.935   6.184 -2.8878 -1.3916  2.2148
   66SAPC  H15B 5419   4.370   0.805   6.071  1.4272  0.6368  0.8019
   66SAPC  H15C 5420   4.287   0.767   6.213 -2.6482  0.3353 -1.5455
   66SAPC   C11 5421   4.552   0.576   6.175 -0.4443  0.2479  0.5859
   66SAPC  H11A 5422   4.469   0.581   6.102  0.4355  1.2268 -0.3890
   66SAPC  H11B 5423   4.543   0.474   6.219  2.6093 -1.4625 -2.2423
   66SAPC     P 5424   4.803   0.534   6.168 -0.1605 -0.2306 -0.0686
   66SAPC   O13 5425   4.796   0.389   6.185  0.3047  0.5677  0.4950
   66SAPC   O14 5426   4.919   0.585   6.089 -0.0512  0.2947  0.1399
   66SAPC   O12 5427   4.670   0.581   6.107 -0.4120 -0.1302  0.0564
   66SAPC   O11 5428   4.810   0.601   6.309  0.2907 -0.1128  0.1475
   66SAPC    C1 5429   4.922   0.684   6.356  0.0717  0.7590  0.8794
   66SAPC    HA 5430   4.942   0.752   6.270 -1.3305 -0.7309 -0.6894
   66SAPC    HB 5431   4.884   0.738   6.446  0.7620  0.2363  1.4900
   66SAPC    C2 5432   5.047   0.598   6.389  0.7981  0.3715  0.8532
   66SAPC    HS 5433   5.065   0.530   6.303 -0.5541  1.1120 -0.0502
   66SAPC   O21 5434   5.028   0.539   6.516  0.1699 -0.8520  0.0908
   66SAPC   C21 5435   5.092   0.435   6.541 -0.6758 -0.1887  0.3305
   66SAPC   O22 5436   5.187   0.382   6.481 -0.3827 -0.4113  0.5560
   66SAPC   C22 5437   5.030   0.381   6.668 -0.0020  0.4149  0.0659
   66SAPC   H2R 5438   4.921   0.377   6.647  0.1041 -0.3630 -0.3713
   66SAPC   H2S 5439   5.070   0.277   6.671 -3.4390 -1.0044  0.8702
   66SAPC    C3 5440   5.177   0.691   6.396 -0.0984  0.2579  0.1252
   66SAPC    HX 5441   5.192   0.743   6.299 -0.4808  0.6242  0.2560
   66SAPC    HY 5442   5.265   0.625   6.411 -0.7353 -0.8549 -0.7620
   66SAPC   O31 5443   5.178   0.775   6.510 -0.1589 -0.1380 -0.4667
   66SAPC   C31 5444   5.141   0.903   6.510  0.2050 -0.0470 -0.8312
   66SAPC   O32 5445   5.094   0.963   6.412 -0.2328  0.6874  0.8238
   66SAPC   C32 5446   5.153   0.969   6.650  0.2712  0.4155 -0.4860
   66SAPC   H2X 5447   5.062   1.029   6.672 -0.7068 -1.5205  1.1308
   66SAPC   H2Y 5448   5.250   1.022   6.647 -0.3480  1.9462  2.4707
   66SAPC   C23 5449   5.057   0.465   6.790 -0.6990  0.0800 -0.3003
   66SAPC   H3R 5450   4.985   0.425   6.865  0.2738  0.4840  0.8851
   66SAPC   H3S 5451   5.030   0.573   6.779  0.4602  0.4298  0.1612
   66SAPC   C24 5452   5.196   0.454   6.855  0.1437 -0.1374 -0.1826
   66SAPC   H4R 5453   5.208   0.528   6.937  1.2224 -0.4892 -0.0025
   66SAPC   H4S 5454   5.278   0.478   6.784  1.7952 -0.9696  1.3505
   66SAPC   C25 5455   5.212   0.311   6.903 -0.1796  0.8344  0.1819
   66SAPC   H5R 5456   5.203   0.234   6.825 -1.6683 -0.1602  1.2930
   66SAPC   C26 5457   5.251   0.269   7.023 -0.0728 -0.5596 -0.2042
   66SAPC   H6R 5458   5.247   0.161   7.042 -1.0902 -0.3596  0.7957
   66SAPC   C27 5459   5.277   0.350   7.145 -0.2922  0.1291  0.0532
   66SAPC   H7R 5460   5.340   0.437   7.118  2.0967 -1.3878  0.3954
   66SAPC   H7S 5461   5.338   0.295   7.220 -2.2629 -1.8945  0.2821
   66SAPC   C28 5462   5.161   0.405   7.215  0.0508 -0.5402  0.0728
   66SAPC   H8R 5463   5.081   0.440   7.147  0.5760  2.5145  0.8647
   66SAPC   C29 5464   5.151   0.444   7.342 -0.1824  1.2528  0.1015
   66SAPC   H9R 5465   5.057   0.488   7.380  0.0678  0.9677  1.0645
   66SAPC  C210 5466   5.259   0.423   7.451 -0.1314 -0.2779 -0.4182
   66SAPC  H10R 5467   5.282   0.520   7.500  0.6703 -0.9911  0.6863
   66SAPC  H10S 5468   5.360   0.386   7.423  1.5957  2.4936  1.6299
   66SAPC  C211 5469   5.208   0.306   7.532 -0.1772 -0.7146  0.4032
   66SAPC  H11R 5470   5.218   0.206   7.488 -0.1305 -0.4636 -0.1668
   66SAPC  C212 5471   5.142   0.314   7.650  0.5454  0.4583  0.2253
   66SAPC  H12R 5472   5.114   0.218   7.696 -1.2226  0.8641  0.0582
   66SAPC  C213 5473   5.106   0.431   7.732 -0.3496 -0.3187 -0.1541
   66SAPC  H13R 5474   5.103   0.533   7.689  0.4296  0.0738  0.6884
   66SAPC  H13S 5475   5.185   0.448   7.808 -0.4720 -0.5868  0.0340
   66SAPC  C214 5476   4.970   0.416   7.800  0.2902  0.3161  0.7343
   66SAPC  H14R 5477   4.889   0.403   7.727  0.2729 -2.0467  1.1135
   66SAPC  C215 5478   4.951   0.400   7.935 -0.4682 -0.5086 -0.3678
   66SAPC  H15R 5479   4.854   0.384   7.983  0.3251 -3.9287  0.3830
   66SAPC  C216 5480   5.063   0.403   8.042 -0.4524 -0.1323 -0.3063
   66SAPC  H16R 5481   5.029   0.468   8.125  0.2735 -0.2528  0.0950
   66SAPC  H16S 5482   5.154   0.453   8.003 -0.4700 -0.9154 -1.4372
   66SAPC  C217 5483   5.085   0.264   8.097 -0.4143  0.0837  0.4131
   66SAPC  H17R 5484   5.119   0.205   8.009  1.3837  2.4785 -0.5977
   66SAPC  H17S 5485   4.998   0.220   8.151  0.4466 -0.7801  1.1235
   66SAPC  C218 5486   5.209   0.261   8.184  0.1364  0.6959  0.4290
   66SAPC  H18R 5487   5.188   0.346   8.253 -3.2219  3.1669 -3.1492
   66SAPC  H18S 5488   5.306   0.286   8.136  0.2596 -0.9073 -0.2152
   66SAPC  C219 5489   5.238   0.126   8.255 -0.1772 -0.1330  0.0611
   66SAPC  H19R 5490   5.236   0.040   8.185  0.3187  0.9517 -1.3401
   66SAPC  H19S 5491   5.156   0.104   8.326  1.4605 -0.0501  2.0789
   66SAPC  C220 5492   5.377   0.119   8.324  0.5776 -0.1561 -0.3708
   66SAPC  H20R 5493   5.381   0.027   8.386 -1.4324  1.2219  2.0300
   66SAPC  H20S 5494   5.401   0.208   8.386  0.4304  0.1038 -0.6857
   66SAPC  H20T 5495   5.451   0.101   8.244  1.1066  2.6895 -0.6463
   66SAPC   C33 5496   5.150   0.869   6.765 -0.3584  0.4878 -0.3684
   66SAPC   H3X 5497   5.232   0.795   6.758 -2.0765 -1.3670 -2.1923
   66SAPC   H3Y 5498   5.052   0.817   6.764 -0.8708  1.4360 -1.6039
   66SAPC   C34 5499   5.155   0.930   6.903  0.9567 -0.9303 -0.1181
   66SAPC   H4X 5500   5.067   0.998   6.907 -0.1423 -1.6954 -4.9132
   66SAPC   H4Y 5501   5.243   0.996   6.916 -0.5641  1.0841  0.5507
   66SAPC   C35 5502   5.175   0.828   7.018 -0.7931 -0.0273 -0.6805
   66SAPC   H5X 5503   5.261   0.761   6.999  0.5964  0.3533  3.3087
   66SAPC   H5Y 5504   5.087   0.761   7.024 -0.2488 -0.8010 -1.1838
   66SAPC   C36 5505   5.209   0.906   7.151  0.2996  0.1287 -0.0205
   66SAPC   H6X 5506   5.122   0.973   7.170 -0.7841 -1.1200 -0.4372
   66SAPC   H6Y 5507   5.298   0.970   7.133  0.1520  1.0405  2.1421
   66SAPC   C37 5508   5.213   0.816   7.271 -0.7160  0.8931  0.1499
   66SAPC   H7X 5509   5.299   0.747   7.258 -2.1543 -0.8040 -0.8832
   66SAPC   H7Y 5510   5.124   0.754   7.246  0.6994 -1.3061  0.2599
   66SAPC   C38 5511   5.209   0.901   7.395 -0.0957  0.5056  0.0915
   66SAPC   H8X 5512   5.132   0.980   7.397 -0.3243  0.3063 -0.5941
   66SAPC   H8Y 5513   5.310   0.947   7.381  0.7271 -1.2437 -0.0495
   66SAPC   C39 5514   5.206   0.829   7.535  0.0960 -0.2522  0.4856
   66SAPC   H9X 5515   5.304   0.784   7.561  0.3317  0.1804  0.3556
   66SAPC   H9Y 5516   5.123   0.756   7.534 -1.9886  1.9685 -1.1903
   66SAPC  C310 5517   5.181   0.918   7.660 -0.3273  1.0031  0.5862
   66SAPC  H10X 5518   5.088   0.976   7.645 -0.1397  0.5243 -3.7056
   66SAPC  H10Y 5519   5.268   0.986   7.672  0.3734  0.0993  0.7814
   66SAPC  C311 5520   5.170   0.834   7.789  0.0648 -0.7195 -0.5141
   66SAPC  H11X 5521   5.261   0.770   7.792  0.5702 -0.0823 -1.7826
   66SAPC  H11Y 5522   5.079   0.770   7.792 -1.3533  1.1962  2.4393
   66SAPC  C312 5523   5.144   0.929   7.904 -0.0018  0.1353 -0.4256
   66SAPC  H12X 5524   5.045   0.971   7.876  0.4476  2.2023  0.8314
   66SAPC  H12Y 5525   5.222   1.009   7.911 -0.6012  0.7374 -0.5489
   66SAPC  C313 5526   5.123   0.855   8.034  0.5149  0.1728 -0.0237
   66SAPC  H13X 5527   5.044   0.776   8.030 -1.1402  1.6702  1.4275
   66SAPC  H13Y 5528   5.076   0.929   8.102 -1.1982  1.5527 -2.5840
   66SAPC  C314 5529   5.251   0.808   8.100 -0.4153  0.2197 -0.1749
   66SAPC  H14X 5530   5.313   0.895   8.127  0.2831 -0.7013  1.3193
   66SAPC  H14Y 5531   5.318   0.763   8.024 -0.7713  0.2150 -0.4916
   66SAPC  C315 5532   5.241   0.721   8.222  0.3307 -0.0837  0.2312
   66SAPC  H15X 5533   5.339   0.721   8.274 -0.5762  0.8060  2.0337
   66SAPC  H15Y 5534   5.211   0.617   8.195  2.6728 -1.0495  1.0445
   66SAPC  C316 5535   5.133   0.779   8.320  0.1018  0.6441  0.1819
   66SAPC  H16X 5536   5.129   0.716   8.412  0.2402  1.3170  0.6656
   66SAPC  H16Y 5537   5.037   0.795   8.267 -1.2364  3.7011  3.1359
   66SAPC  C317 5538   5.168   0.917   8.379  0.2047  0.2280 -0.2549
   66SAPC  H17X 5539   5.072   0.952   8.424  0.0642 -0.3305 -0.1157
   66SAPC  H17Y 5540   5.194   0.984   8.294  1.0179  0.0621 -0.1450
   66SAPC  C318 5541   5.266   0.904   8.498 -0.2299 -0.3497  0.4488
   66SAPC  H18X 5542   5.245   0.827   8.575 -2.6339  0.1556  0.3752
   66SAPC  H18Y 5543   5.286   1.003   8.544  1.2567 -0.1936 -0.4504
   66SAPC  H18Z 5544   5.364   0.886   8.449  0.1208  0.1764  0.9444
   67SAPC     N 5545   1.837   4.209   6.553 -0.3858 -0.0472 -0.9891
   67SAPC   C12 5546   1.753   4.088   6.584 -0.1337  0.6896 -0.3421
   67SAPC  H12A 5547   1.669   4.103   6.517 -0.1613 -0.8333 -0.6980
   67SAPC  H12B 5548   1.715   4.096   6.684  1.9642  0.1483  0.5572
   67SAPC   C13 5549   1.756   4.330   6.572 -0.0409  0.6160  0.3407
   67SAPC  H13A 5550   1.809   4.423   6.557 -0.9309  1.4134  1.8651
   67SAPC  H13B 5551   1.670   4.326   6.507  0.0645 -1.4741  0.2915
   67SAPC  H13C 5552   1.705   4.344   6.666 -0.8675 -0.6756  0.1012
   67SAPC   C14 5553   1.949   4.217   6.642 -0.0220  0.2584 -0.1181
   67SAPC  H14A 5554   2.000   4.311   6.626 -0.5158  0.4744 -0.4537
   67SAPC  H14B 5555   1.916   4.225   6.744  0.9340  0.3877  0.1889
   67SAPC  H14C 5556   2.018   4.134   6.641 -0.3896 -0.1175  2.0202
   67SAPC   C15 5557   1.878   4.200   6.410 -0.3203  0.4436 -0.2454
   67SAPC  H15A 5558   1.794   4.202   6.343 -0.2825 -1.1710 -0.3711
   67SAPC  H15B 5559   1.942   4.281   6.377 -1.0208  1.6880  1.3135
   67SAPC  H15C 5560   1.931   4.108   6.388 -0.3885  0.7788 -1.9550
   67SAPC   C11 5561   1.813   3.946   6.568  0.1971  0.2153 -0.4542
   67SAPC  H11A 5562   1.829   3.936   6.458  0.5871  1.4045 -0.5238
   67SAPC  H11B 5563   1.732   3.878   6.603  0.5886  0.2947  0.6554
   67SAPC     P 5564   2.077   3.883   6.601 -0.5671 -0.1951  0.0705
   67SAPC   O13 5565   2.074   3.737   6.583  0.2365 -0.3609  0.4777
   67SAPC   O14 5566   2.121   3.969   6.489  0.3223  0.1087 -0.0260
   67SAPC   O12 5567   1.933   3.927   6.648  0.1960 -0.2819 -0.1979
   67SAPC   O11 5568   2.162   3.917   6.735  0.5643  0.2057  0.0543
   67SAPC    C1 5569   2.123   3.858   6.858 -0.1722  0.3920 -0.4486
   67SAPC    HA 5570   2.037   3.789   6.843  1.3431 -1.1274 -2.7171
   67SAPC    HB 5571   2.203   3.801   6.910 -0.6230 -0.1707 -0.3612
   67SAPC    C2 5572   2.058   3.959   6.956  0.6873  0.0973 -0.1706
   67SAPC    HS 5573   1.995   4.037   6.908  1.8676  1.6766  0.7445
   67SAPC   O21 5574   2.156   4.023   7.043 -0.1014 -0.0579  0.1749
   67SAPC   C21 5575   2.203   4.138   6.986 -0.2966  0.0073  0.7317
   67SAPC   O22 5576   2.168   4.192   6.887  0.0797  0.1799  0.3896
   67SAPC   C22 5577   2.325   4.192   7.059 -0.3328 -0.1083 -0.2332
   67SAPC   H2R 5578   2.411   4.122   7.073  0.7158  1.1442 -0.2730
   67SAPC   H2S 5579   2.368   4.277   7.002  3.7226 -0.7521  1.5195
   67SAPC    C3 5580   1.972   3.887   7.057  1.0412 -0.5507 -0.6881
   67SAPC    HX 5581   1.932   3.950   7.139  1.3317  0.1306 -1.0645
   67SAPC    HY 5582   2.035   3.821   7.120  3.1446 -0.1745 -2.2887
   67SAPC   O31 5583   1.868   3.813   6.999 -0.0482  1.0113 -0.0358
   67SAPC   C31 5584   1.765   3.885   6.946 -0.4579 -0.0285 -0.0387
   67SAPC   O32 5585   1.754   4.006   6.955 -0.0134 -0.0945  0.7571
   67SAPC   C32 5586   1.665   3.785   6.886 -0.0535  0.4657 -0.2983
   67SAPC   H2X 5587   1.707   3.750   6.789  1.2719  1.1917 -0.0106
   67SAPC   H2Y 5588   1.568   3.838   6.875 -1.0762 -1.2139  0.3559
   67SAPC   C23 5589   2.293   4.242   7.204 -0.5551  0.2722  0.0842
   67SAPC   H3R 5590   2.226   4.331   7.197  0.0009  0.8814  1.8595
   67SAPC   H3S 5591   2.385   4.292   7.242 -0.1489  0.5592 -1.2174
   67SAPC   C24 5592   2.240   4.143   7.308 -0.1466  0.0887  0.1067
   67SAPC   H4R 5593   2.143   4.103   7.273 -1.3182  3.2162 -0.5692
   67SAPC   H4S 5594   2.220   4.193   7.405 -0.0876 -2.3615  1.4668
   67SAPC   C25 5595   2.338   4.022   7.317  0.8276  0.0311 -0.3863
   67SAPC   H5R 5596   2.330   3.957   7.228 -1.8467 -0.3289  0.0568
   67SAPC   C26 5597   2.419   3.991   7.423 -0.0136  0.2087  0.2927
   67SAPC   H6R 5598   2.480   3.900   7.425 -1.6130 -0.8805  1.5265
   67SAPC   C27 5599   2.438   4.069   7.551  0.3844  0.1119 -0.2801
   67SAPC   H7R 5600   2.395   4.171   7.543 -2.0226 -0.7950  0.2214
   67SAPC   H7S 5601   2.545   4.089   7.569  0.3507 -0.1699  0.2651
   67SAPC   C28 5602   2.368   3.987   7.653  0.0845 -0.3432 -0.6052
   67SAPC   H8R 5603   2.268   3.947   7.631  1.0159 -2.9538 -0.3970
   67SAPC   C29 5604   2.422   3.967   7.778  0.7380  0.2177 -0.2122
   67SAPC   H9R 5605   2.353   3.918   7.849  0.2357  0.5386 -0.4753
   67SAPC  C210 5606   2.559   4.015   7.831 -0.7032 -0.4199  0.4374
   67SAPC  H10R 5607   2.617   4.064   7.751  0.2853  1.0232  1.9781
   67SAPC  H10S 5608   2.626   3.930   7.855  1.6410  1.7701  2.2018
   67SAPC  C211 5609   2.538   4.105   7.952  0.6969  0.0113 -0.2897
   67SAPC  H11R 5610   2.474   4.192   7.929 -2.3333 -2.0165 -0.0361
   67SAPC  C212 5611   2.572   4.088   8.081 -0.2597  0.5511 -0.4629
   67SAPC  H12R 5612   2.556   4.174   8.147  0.0562  0.8830 -0.8099
   67SAPC  C213 5613   2.633   3.963   8.141  0.3685  0.2293  1.1125
   67SAPC  H13R 5614   2.743   3.972   8.147  0.5828 -0.2427 -1.1059
   67SAPC  H13S 5615   2.626   3.884   8.063 -2.3089  0.4835  1.0007
   67SAPC  C214 5616   2.582   3.916   8.275  0.2893 -0.1007 -0.1960
   67SAPC  H14R 5617   2.507   3.836   8.280  0.8676 -0.5989  0.9793
   67SAPC  C215 5618   2.639   3.967   8.390 -0.7175  0.2664 -0.7616
   67SAPC  H15R 5619   2.602   3.938   8.490  0.0204  0.1680 -0.5091
   67SAPC  C216 5620   2.746   4.066   8.406 -0.0541  0.3593  0.3891
   67SAPC  H16R 5621   2.738   4.140   8.324 -0.2699  1.2243  1.1770
   67SAPC  H16S 5622   2.839   4.009   8.425 -0.9536 -1.2421  0.1938
   67SAPC  C217 5623   2.725   4.153   8.536  0.4252  1.0052 -0.7152
   67SAPC  H17R 5624   2.632   4.214   8.527 -0.5101 -0.1079  0.8231
   67SAPC  H17S 5625   2.815   4.218   8.538  0.1909  1.3163 -0.0027
   67SAPC  C218 5626   2.719   4.071   8.679 -0.2247 -0.1578 -0.1082
   67SAPC  H18R 5627   2.817   4.020   8.679 -0.6502 -1.2317 -3.3257
   67SAPC  H18S 5628   2.637   3.996   8.684  0.4124 -0.8086  1.0828
   67SAPC  C219 5629   2.706   4.157   8.805 -0.5670 -0.4159  0.0371
   67SAPC  H19R 5630   2.625   4.233   8.797 -0.0244  0.1121 -0.5135
   67SAPC  H19S 5631   2.806   4.201   8.825 -1.0162  0.4380  0.4354
   67SAPC  C220 5632   2.676   4.066   8.929 -0.6863  0.0898 -0.4556
   67SAPC  H20R 5633   2.668   4.127   9.022  2.1274  0.8476 -0.6288
   67SAPC  H20S 5634   2.760   3.994   8.939 -1.6453 -1.0055 -0.1153
   67SAPC  H20T 5635   2.579   4.018   8.905 -0.7919  0.6952 -1.2876
   67SAPC   C33 5636   1.623   3.672   6.978 -0.5528 -0.5799  0.0530
   67SAPC   H3X 5637   1.706   3.600   6.996  0.7010  0.7975  0.0540
   67SAPC   H3Y 5638   1.542   3.612   6.932  1.1865 -0.4905 -3.4314
   67SAPC   C34 5639   1.573   3.723   7.116  0.0765  0.4406  0.3948
   67SAPC   H4X 5640   1.482   3.784   7.094  1.4354  1.7491 -1.9232
   67SAPC   H4Y 5641   1.655   3.781   7.162  0.4269  1.4817 -1.4790
   67SAPC   C35 5642   1.528   3.614   7.215  0.0666  0.5195 -1.1247
   67SAPC   H5X 5643   1.616   3.552   7.245 -0.0827  1.8333  2.5156
   67SAPC   H5Y 5644   1.457   3.545   7.166 -0.2944 -0.3939  0.6215
   67SAPC   C36 5645   1.474   3.673   7.343  0.1877 -0.5898 -0.7469
   67SAPC   H6X 5646   1.364   3.682   7.329  0.5233  1.9725 -2.4225
   67SAPC   H6Y 5647   1.530   3.761   7.381  0.4459 -0.9056 -0.4010
   67SAPC   C37 5648   1.478   3.560   7.452 -0.3668  0.7908 -0.3237
   67SAPC   H7X 5649   1.587   3.547   7.464 -0.2613  1.2881 -0.7287
   67SAPC   H7Y 5650   1.431   3.475   7.397 -0.8649  1.1013 -0.3847
   67SAPC   C38 5651   1.409   3.583   7.585  0.9865  0.0610 -0.1981
   67SAPC   H8X 5652   1.404   3.484   7.634 -1.1285 -0.3558 -1.1753
   67SAPC   H8Y 5653   1.300   3.601   7.580  0.9270 -0.3886 -0.6724
   67SAPC   C39 5654   1.474   3.699   7.673 -0.5428  0.0295 -0.2294
   67SAPC   H9X 5655   1.454   3.800   7.632  1.3837  1.1252  1.3564
   67SAPC   H9Y 5656   1.585   3.693   7.668 -0.6522 -3.4276 -1.2275
   67SAPC  C310 5657   1.422   3.704   7.816  0.1188  0.1486  0.3146
   67SAPC  H10X 5658   1.449   3.605   7.859 -0.6736 -0.5045 -0.6505
   67SAPC  H10Y 5659   1.311   3.709   7.817 -0.0156 -1.6329 -0.6592
   67SAPC  C311 5660   1.462   3.822   7.909 -0.1517  0.2645 -0.2055
   67SAPC  H11X 5661   1.396   3.912   7.904 -0.2396  0.2188  0.0939
   67SAPC  H11Y 5662   1.562   3.860   7.881  0.5436 -1.7722 -0.6382
   67SAPC  C312 5663   1.474   3.777   8.057  0.3785 -0.6201  0.6367
   67SAPC  H12X 5664   1.526   3.680   8.068 -0.8135 -1.4140 -0.4692
   67SAPC  H12Y 5665   1.369   3.760   8.089 -0.7461  0.6920 -2.0038
   67SAPC  C313 5666   1.541   3.886   8.145  0.4543  0.0127 -0.3673
   67SAPC  H13X 5667   1.481   3.978   8.135  0.3375  0.0495  0.6184
   67SAPC  H13Y 5668   1.648   3.910   8.126  0.1938  1.8084  0.3059
   67SAPC  C314 5669   1.544   3.830   8.285  0.2807  0.3735 -0.4646
   67SAPC  H14X 5670   1.585   3.728   8.301  1.0197  1.0429  2.5679
   67SAPC  H14Y 5671   1.441   3.803   8.316  0.9054  0.7714  2.2768
   67SAPC  C315 5672   1.603   3.921   8.394  0.0046  0.1346  0.3853
   67SAPC  H15X 5673   1.585   4.029   8.376 -2.3935 -0.7595 -3.8384
   67SAPC  H15Y 5674   1.712   3.911   8.412  0.1210 -0.4707 -0.5772
   67SAPC  C316 5675   1.533   3.888   8.526  0.8080  0.0277  0.1463
   67SAPC  H16X 5676   1.492   3.785   8.531  0.7051  0.1194  1.7788
   67SAPC  H16Y 5677   1.450   3.961   8.532  1.3499  0.5735  1.1971
   67SAPC  C317 5678   1.629   3.895   8.648 -0.3985  0.5502  0.0356
   67SAPC  H17X 5679   1.702   3.815   8.624 -1.1561 -0.3693  0.7233
   67SAPC  H17Y 5680   1.568   3.871   8.737 -1.5378  2.1673 -0.2512
   67SAPC  C318 5681   1.710   4.019   8.673  0.1094 -0.4009  0.4086
   67SAPC  H18X 5682   1.784   4.029   8.591  0.4756 -4.0652  0.1316
   67SAPC  H18Y 5683   1.762   4.009   8.771 -0.4038  1.9449  1.0011
   67SAPC  H18Z 5684   1.649   4.111   8.689  0.0088  0.0499 -2.1369
   68SAPC     N 5685   5.169   1.598   5.815 -0.0032  0.6040 -0.6035
   68SAPC   C12 5686   5.166   1.614   5.963  0.1410  1.1798  0.2793
   68SAPC  H12A 5687   5.231   1.696   5.991  0.1108  1.2656  0.0936
   68SAPC  H12B 5688   5.213   1.531   6.015  0.3471  0.2448 -1.3525
   68SAPC   C13 5689   5.308   1.576   5.764 -0.3499  1.1714 -1.0065
   68SAPC  H13A 5690   5.342   1.481   5.803  0.0602  2.0257  0.8316
   68SAPC  H13B 5691   5.305   1.568   5.656 -0.1145  0.5460 -0.9751
   68SAPC  H13C 5692   5.369   1.657   5.801 -1.9489  1.6887  0.5874
   68SAPC   C14 5693   5.084   1.479   5.773 -0.6121  0.4242  0.1203
   68SAPC  H14A 5694   5.069   1.476   5.666 -1.3861  2.9883  0.0908
   68SAPC  H14B 5695   5.131   1.389   5.809  0.5300  0.7415 -0.4845
   68SAPC  H14C 5696   4.986   1.494   5.815 -0.2485  1.3223  0.6829
   68SAPC   C15 5697   5.115   1.719   5.743 -0.1916  0.3440 -0.8531
   68SAPC  H15A 5698   5.179   1.802   5.770 -1.0553  0.8238 -0.2151
   68SAPC  H15B 5699   5.110   1.695   5.638 -1.5447 -2.0846 -0.3130
   68SAPC  H15C 5700   5.014   1.750   5.768  0.2068  1.4293 -0.5285
   68SAPC   C11 5701   5.034   1.632   6.028  0.2924  0.4916 -0.5919
   68SAPC  H11A 5702   4.989   1.727   5.991  0.9120  1.1195  0.2412
   68SAPC  H11B 5703   5.042   1.656   6.136  0.8453  0.0039 -0.5182
   68SAPC     P 5704   4.960   1.399   6.090  0.2681  0.2386 -0.1028
   68SAPC   O13 5705   4.841   1.313   6.064  0.4335  0.1799 -0.6367
   68SAPC   O14 5706   5.096   1.345   6.053  0.4410  0.5091 -0.0840
   68SAPC   O12 5707   4.937   1.526   6.005 -0.0783  0.2438  0.1749
   68SAPC   O11 5708   4.967   1.437   6.244 -0.0556 -0.4749 -0.1123
   68SAPC    C1 5709   4.891   1.538   6.308  0.3564 -1.0025 -0.1269
   68SAPC    HA 5710   4.943   1.635   6.306  0.4386 -1.0223  0.5967
   68SAPC    HB 5711   4.786   1.554   6.275 -0.6205 -0.3078  3.0031
   68SAPC    C2 5712   4.882   1.491   6.468 -0.2487 -0.0982 -0.1875
   68SAPC    HS 5713   4.988   1.477   6.500 -0.6373 -3.1610  0.0779
   68SAPC   O21 5714   4.804   1.370   6.472 -0.5312  0.2277 -0.4039
   68SAPC   C21 5715   4.844   1.277   6.565 -0.7576 -0.1843 -0.0551
   68SAPC   O22 5716   4.939   1.287   6.634  0.1329  0.1682 -0.7421
   68SAPC   C22 5717   4.749   1.164   6.579 -0.7537  0.2399 -0.1448
   68SAPC   H2R 5718   4.644   1.199   6.573 -1.7130 -2.5907 -2.3810
   68SAPC   H2S 5719   4.772   1.099   6.491  1.2791 -1.4661  1.5272
   68SAPC    C3 5720   4.828   1.602   6.561 -0.5984  0.0767  0.3984
   68SAPC    HX 5721   4.749   1.664   6.513  0.2390  0.6132 -0.3054
   68SAPC    HY 5722   4.914   1.672   6.568 -0.5433 -0.0523  1.1540
   68SAPC   O31 5723   4.801   1.554   6.692  0.3239  0.4740 -0.0143
   68SAPC   C31 5724   4.691   1.607   6.745 -0.3101 -0.3627 -0.1570
   68SAPC   O32 5725   4.626   1.705   6.709  0.5332  1.1395  0.5966
   68SAPC   C32 5726   4.662   1.517   6.866  0.0958 -0.2977  0.4772
   68SAPC   H2X 5727   4.752   1.472   6.911 -0.3884 -3.9158 -1.7445
   68SAPC   H2Y 5728   4.603   1.433   6.822  1.0157 -0.1090 -1.2138
   68SAPC   C23 5729   4.755   1.090   6.715  0.1754  0.3546  0.5916
   68SAPC   H3R 5730   4.862   1.072   6.737  0.8432  2.3556 -0.7582
   68SAPC   H3S 5731   4.710   0.988   6.706 -0.2252  0.6314 -0.9166
   68SAPC   C24 5732   4.692   1.177   6.825 -0.0813  0.5985 -0.2140
   68SAPC   H4R 5733   4.593   1.208   6.786  0.8798  2.1895 -1.4955
   68SAPC   H4S 5734   4.765   1.260   6.839  1.4600 -0.9844  1.7487
   68SAPC   C25 5735   4.659   1.097   6.950 -0.1598 -0.0405 -0.1267
   68SAPC   H5R 5736   4.619   0.998   6.925  0.4644 -0.9107  2.0162
   68SAPC   C26 5737   4.691   1.121   7.081  0.1754 -0.3151  0.2084
   68SAPC   H6R 5738   4.651   1.050   7.154 -1.2805 -0.0168 -0.2786
   68SAPC   C27 5739   4.762   1.236   7.149 -1.2035 -0.3235  0.2214
   68SAPC   H7R 5740   4.795   1.314   7.077  1.3425  1.0245  2.6560
   68SAPC   H7S 5741   4.850   1.189   7.197 -1.6493 -1.2508  0.1390
   68SAPC   C28 5742   4.674   1.304   7.256 -0.3763  0.0528  0.5904
   68SAPC   H8R 5743   4.583   1.353   7.217 -0.2611 -0.3703 -0.2467
   68SAPC   C29 5744   4.703   1.312   7.388 -0.7064  0.1075  0.5924
   68SAPC   H9R 5745   4.633   1.369   7.452 -1.8481  0.6509 -1.0864
   68SAPC  C210 5746   4.820   1.257   7.461  0.0796  0.1940 -0.9158
   68SAPC  H10R 5747   4.840   1.340   7.533 -0.7871  0.4534 -0.9689
   68SAPC  H10S 5748   4.903   1.248   7.388  0.3065  2.1218 -0.9527
   68SAPC  C211 5749   4.777   1.126   7.532 -0.1191  0.1809 -0.0102
   68SAPC  H11R 5750   4.753   1.048   7.459  0.1734 -0.5725  0.6850
   68SAPC  C212 5751   4.767   1.097   7.666 -0.0148 -0.5973  0.1222
   68SAPC  H12R 5752   4.743   0.995   7.699 -0.6141 -0.1981  0.9713
   68SAPC  C213 5753   4.817   1.191   7.775  0.2578 -0.2124  0.3170
   68SAPC  H13R 5754   4.820   1.296   7.738  1.8546 -0.5976 -0.7262
   68SAPC  H13S 5755   4.920   1.170   7.810 -0.2553 -0.8357  1.5247
   68SAPC  C214 5756   4.725   1.170   7.899 -0.4325 -1.1226  0.1995
   68SAPC  H14R 5757   4.618   1.149   7.888 -0.7295  0.3099  0.1582
   68SAPC  C215 5758   4.764   1.179   8.028  0.3925 -0.1893 -0.4262
   68SAPC  H15R 5759   4.692   1.148   8.105 -0.2303  0.2505 -0.8183
   68SAPC  C216 5760   4.899   1.216   8.081 -0.1514 -0.3718  0.4251
   68SAPC  H16R 5761   4.915   1.325   8.062  0.2261 -0.6451 -0.9132
   68SAPC  H16S 5762   4.984   1.163   8.034 -0.5752  0.7550 -1.7210
   68SAPC  C217 5763   4.923   1.192   8.234 -0.2792  0.4655 -0.7212
   68SAPC  H17R 5764   5.032   1.206   8.248  0.0038 -1.7743 -0.2694
   68SAPC  H17S 5765   4.887   1.090   8.262 -0.9832  0.5377 -1.3290
   68SAPC  C218 5766   4.836   1.282   8.322  0.1469  0.2137  0.4782
   68SAPC  H18R 5767   4.855   1.255   8.428  0.7106  0.1710  0.3689
   68SAPC  H18S 5768   4.729   1.252   8.313 -0.0960  0.9647  0.8049
   68SAPC  C219 5769   4.856   1.431   8.302 -0.5726 -0.7892 -0.2164
   68SAPC  H19R 5770   4.843   1.458   8.195 -3.1743 -0.4555  0.1178
   68SAPC  H19S 5771   4.954   1.456   8.350  0.2721 -4.0194  0.0032
   68SAPC  C220 5772   4.757   1.519   8.392  0.3990 -0.0154  0.0330
   68SAPC  H20R 5773   4.652   1.507   8.358 -0.0985 -2.3227  2.0682
   68SAPC  H20S 5774   4.788   1.626   8.397  0.5388 -0.0966  1.1036
   68SAPC  H20T 5775   4.761   1.473   8.493 -0.1841 -0.1055  0.0190
   68SAPC   C33 5776   4.567   1.574   6.969  0.2834  0.2616  0.8939
   68SAPC   H3X 5777   4.544   1.501   7.050  1.3946  0.3036  1.2579
   68SAPC   H3Y 5778   4.472   1.605   6.919  0.6385 -0.8450 -0.5152
   68SAPC   C34 5779   4.620   1.684   7.059  0.0740  0.5546  0.4316
   68SAPC   H4X 5780   4.667   1.770   7.007 -1.9453  0.9359 -0.8991
   68SAPC   H4Y 5781   4.708   1.646   7.116 -0.4457 -1.3958  0.0095
   68SAPC   C35 5782   4.529   1.733   7.164  0.5498 -0.5846 -0.6697
   68SAPC   H5X 5783   4.453   1.657   7.192  0.0546  0.1809  0.1083
   68SAPC   H5Y 5784   4.475   1.818   7.117  2.0908 -0.6608 -2.7329
   68SAPC   C36 5785   4.589   1.793   7.303 -1.0014  0.0598  0.3150
   68SAPC   H6X 5786   4.497   1.836   7.346 -0.4100 -0.9867  2.8038
   68SAPC   H6Y 5787   4.645   1.888   7.289 -1.6332  0.5748  1.2280
   68SAPC   C37 5788   4.666   1.697   7.405  0.1841  0.6994 -0.7155
   68SAPC   H7X 5789   4.755   1.665   7.348  0.3289 -1.7972  0.7833
   68SAPC   H7Y 5790   4.606   1.607   7.433 -0.6821  1.0002 -1.5404
   68SAPC   C38 5791   4.707   1.762   7.535 -0.3475  0.3327 -0.6911
   68SAPC   H8X 5792   4.618   1.794   7.594 -1.3550 -1.8106 -0.9463
   68SAPC   H8Y 5793   4.777   1.848   7.526 -0.5843  0.9899  2.6304
   68SAPC   C39 5794   4.781   1.656   7.629 -0.0086 -0.4309  0.4692
   68SAPC   H9X 5795   4.878   1.644   7.576 -0.2013 -0.3208  0.0901
   68SAPC   H9Y 5796   4.716   1.566   7.629  0.9902 -1.2456 -1.8500
   68SAPC  C310 5797   4.819   1.687   7.776  0.0735  0.2193 -0.4972
   68SAPC  H10X 5798   4.735   1.652   7.840  1.6024  0.6255  1.8314
   68SAPC  H10Y 5799   4.822   1.797   7.790 -0.7167  0.5797 -2.7000
   68SAPC  C311 5800   4.948   1.630   7.827 -0.0440  0.2604 -0.1182
   68SAPC  H11X 5801   5.041   1.683   7.797 -1.2707  3.3222  1.1443
   68SAPC  H11Y 5802   4.941   1.521   7.803  1.7759  0.5838 -2.4392
   68SAPC  C312 5803   4.954   1.637   7.983 -0.0435  0.2473 -0.1173
   68SAPC  H12X 5804   5.023   1.567   8.034  0.5899  0.2207 -0.9815
   68SAPC  H12Y 5805   4.853   1.595   8.003  0.5217 -1.0850  0.0671
   68SAPC  C313 5806   4.973   1.773   8.040 -0.4670 -0.8788  0.0794
   68SAPC  H13X 5807   4.922   1.856   7.985 -0.3338 -2.0114 -1.8704
   68SAPC  H13Y 5808   5.080   1.799   8.032 -0.2948 -1.8374 -0.9578
   68SAPC  C314 5809   4.912   1.783   8.179  0.0672  0.5028  0.0883
   68SAPC  H14X 5810   4.936   1.689   8.233  0.4513 -0.2676 -1.3649
   68SAPC  H14Y 5811   4.802   1.773   8.163  0.4115 -0.7459 -1.7334
   68SAPC  C315 5812   4.947   1.919   8.249  0.1166 -0.5652  0.2570
   68SAPC  H15X 5813   4.906   2.009   8.198 -0.3917 -0.1710  1.3252
   68SAPC  H15Y 5814   5.057   1.928   8.258  0.3384  0.3547 -2.5800
   68SAPC  C316 5815   4.895   1.919   8.400 -0.1406  0.0726  0.1438
   68SAPC  H16X 5816   4.932   1.832   8.457 -3.2829 -0.6201  1.3135
   68SAPC  H16Y 5817   4.787   1.900   8.381  0.2850 -0.1120 -2.5214
   68SAPC  C317 5818   4.916   2.052   8.466  0.2815  0.2472  0.0273
   68SAPC  H17X 5819   4.851   2.136   8.434 -0.6690 -0.0440  1.1215
   68SAPC  H17Y 5820   5.015   2.087   8.431  0.9554 -2.2369 -0.7520
   68SAPC  C318 5821   4.910   2.036   8.620  0.2331 -0.6203 -0.0512
   68SAPC  H18X 5822   4.906   2.127   8.683 -0.3569 -0.3517 -0.4685
   68SAPC  H18Y 5823   5.002   1.980   8.647 -0.0878 -0.6521  1.0085
   68SAPC  H18Z 5824   4.830   1.965   8.650  1.6820 -2.9277 -1.3111
   69SLPC     N 5825   1.844   1.343  11.016 -0.6733 -0.5096  0.3017
   69SLPC   C13 5826   1.950   1.250  11.051 -1.0285  0.8220 -0.5691
   69SLPC  H13A 5827   2.048   1.297  11.051  0.1495 -1.3569 -3.4816
   69SLPC  H13B 5828   1.938   1.203  11.148  1.2880  2.7076  0.7365
   69SLPC  H13C 5829   1.961   1.180  10.970  1.3944  0.2337  0.1673
   69SLPC   C14 5830   1.823   1.447  11.122 -0.1454  0.1913  0.0011
   69SLPC  H14A 5831   1.801   1.402  11.217  1.6696 -0.9725 -0.0826
   69SLPC  H14B 5832   1.913   1.502  11.142 -1.3595  1.5360  2.0443
   69SLPC  H14C 5833   1.740   1.513  11.103  0.0678  0.4229 -0.1388
   69SLPC   C15 5834   1.712   1.269  11.006 -0.5897  0.1864  0.9643
   69SLPC  H15A 5835   1.670   1.254  11.104 -0.8035  1.2694  1.0566
   69SLPC  H15B 5836   1.633   1.328  10.963 -0.5893  1.1274  2.1898
   69SLPC  H15C 5837   1.728   1.179  10.950 -2.2131  0.7485 -0.4962
   69SLPC   C12 5838   1.875   1.407  10.883  0.2131  1.3196 -0.1589
   69SLPC  H12A 5839   1.790   1.467  10.853 -0.6971  1.1030  1.8024
   69SLPC  H12B 5840   1.877   1.324  10.814 -2.2346  1.7814 -0.8770
   69SLPC   C11 5841   1.995   1.494  10.872  0.6434  0.4008  0.4093
   69SLPC  H11A 5842   1.994   1.571  10.952 -0.8001  1.2665 -0.4200
   69SLPC  H11B 5843   1.979   1.547  10.776  0.2663  0.8714  0.7298
   69SLPC     P 5844   2.187   1.348  10.769 -0.5920  0.5024 -0.1894
   69SLPC   O13 5845   2.282   1.437  10.703 -0.3010  0.6057 -0.3111
   69SLPC   O14 5846   2.252   1.229  10.821 -0.2752 -0.1080  0.3995
   69SLPC   O12 5847   2.123   1.426  10.890 -0.0021  0.3744  0.0221
   69SLPC   O11 5848   2.065   1.310  10.685  0.5351 -0.1206  0.7431
   69SLPC    C1 5849   2.059   1.335  10.545 -0.2822 -0.1740 -0.2997
   69SLPC    HA 5850   1.956   1.315  10.511 -0.0319 -2.3007  0.0567
   69SLPC    HB 5851   2.090   1.439  10.523  0.7405 -0.6136 -1.0058
   69SLPC    C2 5852   2.150   1.244  10.457 -0.8315  0.1118  0.3756
   69SLPC    HS 5853   2.252   1.231  10.499 -1.6712 -2.1128  1.9324
   69SLPC   O21 5854   2.147   1.299  10.324 -0.1715 -0.2119 -0.5710
   69SLPC   C21 5855   2.271   1.322  10.270  0.0068  0.8483  0.0369
   69SLPC   O22 5856   2.380   1.313  10.321  0.0893 -0.2650 -0.0963
   69SLPC   C22 5857   2.262   1.372  10.124  0.0346 -0.0130 -0.4774
   69SLPC   H2R 5858   2.157   1.375  10.088  0.2673 -0.7814 -1.2341
   69SLPC   H2S 5859   2.306   1.474  10.123 -0.2966  0.1292 -1.1164
   69SLPC    C3 5860   2.099   1.100  10.448  0.2295  0.0016 -0.0234
   69SLPC    HX 5861   1.988   1.106  10.443  0.3174  3.9423 -0.4126
   69SLPC    HY 5862   2.111   1.053  10.548  2.1255 -2.0235 -1.1056
   69SLPC   O31 5863   2.147   1.013  10.332  0.0577 -0.4262 -0.5865
   69SLPC   C31 5864   2.073   0.892  10.328 -0.0420 -0.3377 -0.1943
   69SLPC   O32 5865   1.991   0.870  10.414 -0.3187  0.3657  0.1436
   69SLPC   C32 5866   2.112   0.815  10.208 -0.7390  0.2594  0.1304
   69SLPC   H2X 5867   2.047   0.726  10.202 -0.4667  0.1550 -1.5577
   69SLPC   H2Y 5868   2.216   0.777  10.218 -0.7681 -0.3246 -1.5403
   69SLPC   C23 5869   2.335   1.283  10.019 -0.4360  0.1080 -0.3309
   69SLPC   H3R 5870   2.282   1.185  10.018 -0.1351 -0.0556 -0.2996
   69SLPC   H3S 5871   2.441   1.264  10.048 -0.1291  0.8978 -0.8854
   69SLPC   C24 5872   2.349   1.357   9.884  0.3679 -0.4290 -0.1593
   69SLPC   H4R 5873   2.421   1.441   9.896 -0.2710  0.2303 -0.8891
   69SLPC   H4S 5874   2.254   1.396   9.844  0.0820 -1.2784 -0.3333
   69SLPC   C25 5875   2.408   1.270   9.766 -0.1929  0.1021 -0.3613
   69SLPC   H5R 5876   2.354   1.173   9.759  1.9447 -1.2731  1.0950
   69SLPC   H5S 5877   2.513   1.241   9.784 -0.4199 -0.4790  0.0871
   69SLPC   C26 5878   2.391   1.345   9.629 -0.2850  0.3624 -0.3749
   69SLPC   H6R 5879   2.442   1.444   9.628 -1.9875  1.2889  0.7402
   69SLPC   H6S 5880   2.282   1.367   9.625 -0.1440  1.3917  0.7881
   69SLPC   C27 5881   2.439   1.258   9.510 -0.9021 -0.1393  0.2190
   69SLPC   H7R 5882   2.377   1.167   9.494 -0.6296 -0.4312  0.7861
   69SLPC   H7S 5883   2.537   1.215   9.540 -0.5858  0.5941  0.2528
   69SLPC   C28 5884   2.453   1.339   9.381 -0.9385  0.8604  0.8765
   69SLPC   H8R 5885   2.511   1.277   9.309 -0.2429  2.1328  0.2986
   69SLPC   H8S 5886   2.511   1.433   9.394 -0.6198  0.7966  0.0002
   69SLPC   C29 5887   2.315   1.371   9.327  0.6579  0.5401 -1.0155
   69SLPC   H9R 5888   2.238   1.380   9.405  3.0812  2.6563  1.3081
   69SLPC  C210 5889   2.284   1.396   9.197 -0.1787  0.6448 -0.1561
   69SLPC  H10R 5890   2.184   1.430   9.167 -0.5582  0.4364  0.8190
   69SLPC  C211 5891   2.384   1.389   9.079  0.7795 -0.2120 -0.5613
   69SLPC  H11R 5892   2.481   1.441   9.090  0.4788  0.9912 -2.9278
   69SLPC  H11S 5893   2.356   1.454   8.993  1.2279  1.5137  0.5588
   69SLPC  C212 5894   2.419   1.247   9.043 -0.0755  0.3767  0.1176
   69SLPC  H12R 5895   2.441   1.180   9.127 -1.0688  1.0524  0.9479
   69SLPC  C213 5896   2.401   1.191   8.918 -0.0662 -0.4078 -0.2981
   69SLPC  H13R 5897   2.441   1.093   8.889  0.0986 -0.2127 -0.7419
   69SLPC  C214 5898   2.358   1.275   8.801  0.2566 -0.2119  0.1509
   69SLPC  H14R 5899   2.408   1.230   8.712 -0.8743 -0.5666 -0.3296
   69SLPC  H14S 5900   2.379   1.384   8.810 -2.8642  0.6887 -1.7300
   69SLPC  C215 5901   2.206   1.255   8.787 -0.2126  0.8516 -0.3853
   69SLPC  H15R 5902   2.154   1.276   8.883  0.5566  3.0466 -0.3781
   69SLPC  H15S 5903   2.184   1.148   8.768  1.3108  0.4799 -0.2253
   69SLPC  C216 5904   2.139   1.340   8.682 -0.1490  0.5393  0.0756
   69SLPC  H16R 5905   2.213   1.399   8.624 -1.6540  2.6481  0.1828
   69SLPC  H16S 5906   2.080   1.419   8.733 -1.1830 -1.2339  1.7873
   69SLPC  C217 5907   2.035   1.252   8.605 -0.0915  1.0903  0.6821
   69SLPC  H17R 5908   2.074   1.151   8.582  0.4454  1.3435  0.4450
   69SLPC  H17S 5909   2.022   1.311   8.512 -2.4264 -0.1536  0.1565
   69SLPC  C218 5910   1.911   1.248   8.684 -0.0759  0.3162  0.3238
   69SLPC  H18R 5911   1.935   1.189   8.775 -1.5117  2.0861  1.9302
   69SLPC  H18S 5912   1.826   1.195   8.635  0.3418  0.3811 -0.4869
   69SLPC  H18T 5913   1.862   1.337   8.728  0.1527  0.3284  0.5538
   69SLPC   C33 5914   2.092   0.900  10.077  0.4226  0.8285 -0.0112
   69SLPC   H3X 5915   2.185   0.960  10.066  2.8231 -2.5708  0.2747
   69SLPC   H3Y 5916   2.001   0.964  10.068  0.0540  0.2862 -0.1907
   69SLPC   C34 5917   2.089   0.808   9.951  0.1831  0.1138  0.3968
   69SLPC   H4X 5918   2.078   0.856   9.852  0.5248 -0.8539 -0.1231
   69SLPC   H4Y 5919   2.000   0.741   9.951 -0.4764  0.8821 -2.0500
   69SLPC   C35 5920   2.211   0.709   9.936  0.2075  0.1978 -0.7355
   69SLPC   H5X 5921   2.199   0.654   9.840 -1.2165 -1.3063  0.2625
   69SLPC   H5Y 5922   2.189   0.623  10.002  0.3476 -0.1653 -1.1579
   69SLPC   C36 5923   2.350   0.778   9.935  0.3947 -0.0267  0.3631
   69SLPC   H6X 5924   2.436   0.709   9.952 -0.0232 -0.2087  1.9149
   69SLPC   H6Y 5925   2.356   0.854  10.016  0.3826  0.7733 -0.3773
   69SLPC   C37 5926   2.382   0.848   9.805 -0.4063 -0.5408 -0.2694
   69SLPC   H7X 5927   2.491   0.863   9.795 -0.4552  1.3009  1.2811
   69SLPC   H7Y 5928   2.327   0.944   9.798 -1.9905 -1.5096 -1.9101
   69SLPC   C38 5929   2.354   0.772   9.676  0.0903 -0.2682  0.2256
   69SLPC   H8X 5930   2.246   0.747   9.665  0.7765 -3.1900 -0.7303
   69SLPC   H8Y 5931   2.415   0.680   9.679  1.4355  0.4507 -2.2756
   69SLPC   C39 5932   2.397   0.852   9.552 -0.3544  0.1901  1.2020
   69SLPC   H9X 5933   2.508   0.854   9.558 -0.4146  0.7410  2.5214
   69SLPC   H9Y 5934   2.354   0.955   9.546 -1.4306 -0.1141  2.8926
   69SLPC  C310 5935   2.356   0.784   9.416  0.3567 -0.6160 -0.2443
   69SLPC  H10X 5936   2.247   0.763   9.424  0.3341 -0.4070  0.0327
   69SLPC  H10Y 5937   2.410   0.688   9.403  0.1582 -0.8195  0.3933
   69SLPC  C311 5938   2.400   0.871   9.303  0.3141  0.0754  0.6689
   69SLPC  H11X 5939   2.486   0.936   9.329 -0.4174  0.3109  2.7202
   69SLPC  H11Y 5940   2.312   0.938   9.288  0.0842 -0.0378  1.4873
   69SLPC  C312 5941   2.439   0.782   9.180  0.5155  0.6565 -0.9272
   69SLPC  H12X 5942   2.357   0.708   9.169  0.3246  0.8979 -1.1510
   69SLPC  H12Y 5943   2.530   0.729   9.213 -1.3286 -0.8248  2.2525
   69SLPC  C313 5944   2.451   0.855   9.049  0.8351 -0.1634  0.0141
   69SLPC  H13X 5945   2.538   0.923   9.048  0.0769  0.8368  0.5911
   69SLPC  H13Y 5946   2.360   0.917   9.038 -0.7160 -2.4037 -0.6509
   69SLPC  C314 5947   2.452   0.762   8.930 -0.1931  0.1791  0.0485
   69SLPC  H14X 5948   2.361   0.698   8.926  0.6990 -1.1095 -0.4101
   69SLPC  H14Y 5949   2.542   0.697   8.936 -0.1265 -0.0642 -2.4569
   69SLPC  C315 5950   2.466   0.837   8.798 -0.5907 -0.5592 -0.4757
   69SLPC  H15X 5951   2.573   0.866   8.792 -1.0759  1.0968 -2.8285
   69SLPC  H15Y 5952   2.398   0.925   8.790  1.3008  1.0375  0.4651
   69SLPC  C316 5953   2.441   0.756   8.665  0.5419 -0.5046 -0.6855
   69SLPC  H16X 5954   2.504   0.666   8.654  2.9990  0.9913  0.2583
   69SLPC  H16Y 5955   2.461   0.830   8.585  1.0579 -0.9261 -0.9495
   69SLPC  C317 5956   2.294   0.729   8.653  0.2439  0.5710 -0.0865
   69SLPC  H17X 5957   2.232   0.820   8.669 -0.1320  0.2179  0.4801
   69SLPC  H17Y 5958   2.267   0.654   8.730 -0.4953  0.4413 -0.4598
   69SLPC  C318 5959   2.269   0.662   8.521  0.0258  0.2198  0.3603
   69SLPC  H18X 5960   2.214   0.731   8.453  0.2798 -0.6397 -0.7468
   69SLPC  H18Y 5961   2.213   0.566   8.521 -1.4910  1.0665  0.4359
   69SLPC  H18Z 5962   2.361   0.639   8.464  1.0476 -0.7557  2.3126
   70SLPC     N 5963   2.850   6.403  10.856 -0.1289  0.7280  0.2703
   70SLPC   C13 5964   2.894   6.375  10.999 -0.0677  0.2688 -0.4594
   70SLPC  H13A 5965   2.818   6.308  11.036  0.2738 -0.0486 -0.3288
   70SLPC  H13B 5966   2.993   6.333  11.001 -1.3477 -3.0022  2.0242
   70SLPC  H13C 5967   2.891   6.457  11.070  0.2782 -0.6429  0.6328
   70SLPC   C14 5968   2.948   6.509  10.803 -0.2809 -0.5564  0.7243
   70SLPC  H14A 5969   2.957   6.591  10.873  0.5365 -0.3235  0.3604
   70SLPC  H14B 5970   3.038   6.450  10.799 -0.0365 -0.1454  0.0163
   70SLPC  H14C 5971   2.918   6.542  10.704  1.5245 -3.0708 -0.7916
   70SLPC   C15 5972   2.715   6.459  10.856 -0.4202  0.8643 -0.1509
   70SLPC  H15A 5973   2.700   6.517  10.946  0.6387  1.7875 -0.5478
   70SLPC  H15B 5974   2.706   6.522  10.769  1.1048 -1.3665 -2.0272
   70SLPC  H15C 5975   2.635   6.386  10.856  0.1714  0.1609 -2.0056
   70SLPC   C12 5976   2.858   6.283  10.769 -0.0693  0.5647  0.5518
   70SLPC  H12A 5977   2.959   6.262  10.738 -1.3844 -3.0773 -2.0365
   70SLPC  H12B 5978   2.799   6.314  10.684 -0.1348  1.6500  0.9748
   70SLPC   C11 5979   2.792   6.148  10.821  0.0713  0.3796 -0.4348
   70SLPC  H11A 5980   2.866   6.119  10.899  2.7096  1.6774 -2.2891
   70SLPC  H11B 5981   2.794   6.083  10.732  1.0888  0.6647 -0.6359
   70SLPC     P 5982   2.533   6.154  10.794 -0.1462 -0.1252 -0.4292
   70SLPC   O13 5983   2.466   6.035  10.830  0.2697  0.2762 -0.4109
   70SLPC   O14 5984   2.454   6.279  10.802  0.4894 -0.2025 -0.3926
   70SLPC   O12 5985   2.661   6.170  10.884 -0.1622  0.4340 -0.2761
   70SLPC   O11 5986   2.597   6.145  10.648  0.0053  0.3792 -0.1932
   70SLPC    C1 5987   2.509   6.187  10.543  0.0572 -0.3697 -1.2078
   70SLPC    HA 5988   2.496   6.105  10.469 -0.5434 -0.2234 -1.2697
   70SLPC    HB 5989   2.403   6.212  10.565  0.6834  0.8839  0.5692
   70SLPC    C2 5990   2.574   6.314  10.476 -0.4332  0.5072 -0.2833
   70SLPC    HS 5991   2.620   6.374  10.557 -0.4536 -0.5873  0.5625
   70SLPC   O21 5992   2.472   6.372  10.396  0.3454 -0.2189  0.1021
   70SLPC   C21 5993   2.448   6.501  10.396  0.1327 -0.2466 -0.9587
   70SLPC   O22 5994   2.516   6.588  10.446 -0.7200 -0.8579 -1.2683
   70SLPC   C22 5995   2.321   6.534  10.321 -0.3040 -0.0628  0.4880
   70SLPC   H2R 5996   2.269   6.437  10.307 -0.8341 -0.1565  2.7519
   70SLPC   H2S 5997   2.262   6.604  10.383  0.8067  0.9341  0.4562
   70SLPC    C3 5998   2.693   6.284  10.376 -0.6981 -0.8776  0.6749
   70SLPC    HX 5999   2.651   6.217  10.298 -0.8091 -0.4338  0.3530
   70SLPC    HY 6000   2.766   6.227  10.437 -0.1296 -2.0765 -1.0444
   70SLPC   O31 6001   2.747   6.401  10.318  0.3967  0.3008 -0.6693
   70SLPC   C31 6002   2.808   6.491  10.403  0.6168 -0.0354 -0.3198
   70SLPC   O32 6003   2.829   6.476  10.524  0.0021  0.4915  0.3955
   70SLPC   C32 6004   2.825   6.622  10.316 -0.4378 -0.0419 -0.1277
   70SLPC   H2X 6005   2.920   6.667  10.353 -2.1684  2.8775  1.2279
   70SLPC   H2Y 6006   2.741   6.692  10.341  0.2877  0.2287  1.7265
   70SLPC   C23 6007   2.373   6.622  10.201  0.2700 -0.1018 -0.3269
   70SLPC   H3R 6008   2.436   6.704  10.243 -0.9982 -0.0314  1.5330
   70SLPC   H3S 6009   2.281   6.668  10.160  0.7016  0.2126 -0.9657
   70SLPC   C24 6010   2.438   6.550  10.077  0.2333 -0.1576 -0.3283
   70SLPC   H4R 6011   2.383   6.456  10.056  1.4369 -1.3206  1.4198
   70SLPC   H4S 6012   2.534   6.504  10.107  0.1566 -0.2982 -0.2955
   70SLPC   C25 6013   2.454   6.630   9.945 -0.2496  0.0981  0.1898
   70SLPC   H5R 6014   2.530   6.708   9.966 -0.3177  0.3603 -0.5213
   70SLPC   H5S 6015   2.370   6.677   9.890  0.8756  0.0977 -1.6238
   70SLPC   C26 6016   2.516   6.545   9.832  0.0929  0.3971  0.2712
   70SLPC   H6R 6017   2.449   6.461   9.805  0.8357 -0.6908  1.6177
   70SLPC   H6S 6018   2.611   6.513   9.881  0.0438  0.0433  0.1379
   70SLPC   C27 6019   2.566   6.619   9.703 -0.5673 -0.4316  0.6607
   70SLPC   H7R 6020   2.659   6.577   9.660  0.8213  0.6109  2.4714
   70SLPC   H7S 6021   2.587   6.724   9.734 -1.6366 -0.1413  0.4241
   70SLPC   C28 6022   2.467   6.633   9.583 -1.0257  0.2327  0.0811
   70SLPC   H8R 6023   2.380   6.684   9.630 -1.5868 -0.5461 -0.0899
   70SLPC   H8S 6024   2.428   6.530   9.574 -1.6289  0.3326  1.3351
   70SLPC   C29 6025   2.520   6.701   9.460 -0.4383  0.2795  0.3777
   70SLPC   H9R 6026   2.494   6.807   9.453 -1.1138  0.0782 -0.3679
   70SLPC  C210 6027   2.591   6.642   9.360 -0.5219 -0.0436 -0.1581
   70SLPC  H10R 6028   2.616   6.707   9.275  0.9847  3.3216  2.5592
   70SLPC  C211 6029   2.642   6.501   9.346  0.0307  0.0780 -0.1642
   70SLPC  H11R 6030   2.667   6.458   9.445  0.0482 -1.6075 -0.8816
   70SLPC  H11S 6031   2.738   6.495   9.292 -0.0238  1.7975 -0.5199
   70SLPC  C212 6032   2.535   6.413   9.295  0.1626  0.4470  0.7214
   70SLPC  H12R 6033   2.457   6.397   9.371  1.4052  0.4711  2.0535
   70SLPC  C213 6034   2.534   6.336   9.178 -0.3410 -0.9811  0.6435
   70SLPC  H13R 6035   2.444   6.276   9.159 -0.6504  0.4454 -3.4251
   70SLPC  C214 6036   2.644   6.326   9.076 -0.2629  0.0277  0.7260
   70SLPC  H14R 6037   2.699   6.231   9.092 -2.2047 -1.1327  0.8522
   70SLPC  H14S 6038   2.720   6.405   9.093 -0.3391 -0.1108  1.8157
   70SLPC  C215 6039   2.610   6.328   8.934  0.9361 -0.4012  0.3808
   70SLPC  H15R 6040   2.607   6.438   8.919  1.8049 -0.4686 -0.3250
   70SLPC  H15S 6041   2.514   6.281   8.902  1.0919  0.4838 -1.4955
   70SLPC  C216 6042   2.725   6.279   8.850  0.1292  0.0775 -0.6946
   70SLPC  H16R 6043   2.737   6.169   8.862  1.9906  0.2541 -0.5515
   70SLPC  H16S 6044   2.822   6.321   8.884  0.2168  0.6419 -1.5998
   70SLPC  C217 6045   2.705   6.311   8.700 -0.1343  0.5152  0.1327
   70SLPC  H17R 6046   2.797   6.270   8.654 -2.5525 -3.5724 -1.5366
   70SLPC  H17S 6047   2.688   6.421   8.692 -0.1451  0.5437  0.5033
   70SLPC  C218 6048   2.586   6.235   8.632  0.3449 -0.1351  0.0392
   70SLPC  H18R 6049   2.590   6.129   8.666 -1.6002 -0.2227  0.0799
   70SLPC  H18S 6050   2.600   6.241   8.522 -3.5876  2.0658 -0.5276
   70SLPC  H18T 6051   2.490   6.276   8.669 -0.3992 -3.2586  1.9419
   70SLPC   C33 6052   2.846   6.600  10.166  0.1328 -0.3070  0.5512
   70SLPC   H3X 6053   2.760   6.536  10.136 -0.4523  0.0000  1.4991
   70SLPC   H3Y 6054   2.938   6.542  10.147  0.9219  1.1419 -0.2067
   70SLPC   C34 6055   2.858   6.732  10.097  0.6115 -0.5721  0.6395
   70SLPC   H4X 6056   2.938   6.794  10.143 -0.2014  0.0382  1.2588
   70SLPC   H4Y 6057   2.764   6.785  10.125  1.6620  1.7721 -0.0015
   70SLPC   C35 6058   2.866   6.725   9.950 -0.3324  0.0862  0.9802
   70SLPC   H5X 6059   2.789   6.656   9.910 -0.4016  0.4684  0.4382
   70SLPC   H5Y 6060   2.969   6.690   9.929  0.0393  1.8539 -0.4208
   70SLPC   C36 6061   2.858   6.862   9.881  0.1271 -1.0352 -0.4519
   70SLPC   H6X 6062   2.936   6.927   9.927 -0.4748 -1.1624  0.7838
   70SLPC   H6Y 6063   2.759   6.911   9.887  0.7132  0.5192 -2.3318
   70SLPC   C37 6064   2.887   6.849   9.724  0.2092  0.3887 -0.6469
   70SLPC   H7X 6065   2.811   6.783   9.677  1.6972 -2.9196  1.2909
   70SLPC   H7Y 6066   2.985   6.805   9.699 -0.1512  0.2025 -1.7994
   70SLPC   C38 6067   2.889   6.985   9.653 -0.2443 -0.4787 -0.4498
   70SLPC   H8X 6068   2.994   7.021   9.656 -0.5717  0.4932 -0.4244
   70SLPC   H8Y 6069   2.823   7.053   9.711 -0.0726  0.4642 -1.3285
   70SLPC   C39 6070   2.838   6.987   9.505  0.1260 -0.3787  0.1951
   70SLPC   H9X 6071   2.854   7.093   9.477  0.2797 -0.7250 -1.1279
   70SLPC   H9Y 6072   2.729   6.967   9.507 -0.2022  1.2719  0.2865
   70SLPC  C310 6073   2.903   6.891   9.413 -0.5071 -0.7336  0.1518
   70SLPC  H10X 6074   2.867   6.788   9.437  0.3041 -0.8725  0.8445
   70SLPC  H10Y 6075   3.014   6.883   9.419 -0.1522  0.0273 -3.1529
   70SLPC  C311 6076   2.877   6.928   9.262 -0.6449 -0.2311 -0.1138
   70SLPC  H11X 6077   2.901   7.036   9.251  0.4780 -0.2365  1.7748
   70SLPC  H11Y 6078   2.771   6.919   9.232 -0.9894  1.5702  0.4742
   70SLPC  C312 6079   2.968   6.840   9.173 -0.2401 -0.0551  0.6582
   70SLPC  H12X 6080   2.938   6.735   9.194 -1.4034 -0.4475 -2.5472
   70SLPC  H12Y 6081   3.074   6.851   9.205  0.5502 -3.2947 -0.4908
   70SLPC  C313 6082   2.951   6.872   9.024 -0.3795  0.4900  0.8094
   70SLPC  H13X 6083   3.001   6.970   9.007  0.8008 -0.0573  0.9931
   70SLPC  H13Y 6084   2.850   6.898   8.987 -0.1272  0.2791 -0.0524
   70SLPC  C314 6085   2.997   6.761   8.934 -0.0059  0.8211 -0.0666
   70SLPC  H14X 6086   2.935   6.671   8.953 -0.6829  1.6752  2.0262
   70SLPC  H14Y 6087   3.103   6.735   8.954  0.2705  1.9121 -0.0433
   70SLPC  C315 6088   2.983   6.799   8.781 -0.4667  0.1762  0.2400
   70SLPC  H15X 6089   2.888   6.755   8.745  0.0205 -1.9805  1.4776
   70SLPC  H15Y 6090   3.070   6.749   8.732  0.1755 -1.0520  2.4854
   70SLPC  C316 6091   2.997   6.942   8.744  0.3915 -0.3199 -0.4783
   70SLPC  H16X 6092   3.067   6.992   8.814 -0.9581 -0.8550  1.3441
   70SLPC  H16Y 6093   2.905   7.002   8.765  1.2639  0.5367  1.0134
   70SLPC  C317 6094   3.042   6.960   8.598 -0.6736 -0.2073  0.0673
   70SLPC  H17X 6095   3.148   6.935   8.580 -0.5544 -0.3111  0.8637
   70SLPC  H17Y 6096   3.035   7.068   8.572 -0.0620 -0.6855 -2.2584
   70SLPC  C318 6097   2.950   6.890   8.500 -1.0511  0.9967 -0.2027
   70SLPC  H18X 6098   2.953   6.780   8.511 -0.5877  1.1851  1.9305
   70SLPC  H18Y 6099   2.985   6.910   8.396  1.2138 -2.9420 -0.4051
   70SLPC  H18Z 6100   2.843   6.915   8.516 -0.4320  2.6182  1.7867
   71SLPC     N 6101   2.334   5.432  10.761  0.0292  0.0553 -0.0552
   71SLPC   C13 6102   2.323   5.561  10.844 -0.0346 -0.3278  0.0563
   71SLPC  H13A 6103   2.426   5.592  10.848  0.2486 -1.2259  0.0432
   71SLPC  H13B 6104   2.258   5.636  10.802  0.8672 -1.5128 -3.8531
   71SLPC  H13C 6105   2.279   5.539  10.940 -1.9894  1.4897 -0.3417
   71SLPC   C14 6106   2.204   5.359  10.767  0.6681  0.0900  0.5961
   71SLPC  H14A 6107   2.180   5.339  10.870 -2.5281 -0.7610 -0.2000
   71SLPC  H14B 6108   2.128   5.418  10.718  1.4529  1.8626  1.3989
   71SLPC  H14C 6109   2.209   5.269  10.708 -0.4033  0.5823 -0.2877
   71SLPC   C15 6110   2.442   5.341  10.805  0.3282  0.1043 -0.1826
   71SLPC  H15A 6111   2.442   5.312  10.909  0.6101 -0.1495 -0.2532
   71SLPC  H15B 6112   2.440   5.250  10.748  2.9414 -0.2758  0.2018
   71SLPC  H15C 6113   2.539   5.385  10.790 -0.6043  1.4708 -2.9646
   71SLPC   C12 6114   2.369   5.479  10.621 -0.5977  0.3813  0.5981
   71SLPC  H12A 6115   2.466   5.526  10.608 -0.4363  0.2317  1.1978
   71SLPC  H12B 6116   2.298   5.553  10.588 -1.2351 -0.8485 -0.8812
   71SLPC   C11 6117   2.380   5.363  10.508 -0.2749 -0.1580 -0.2435
   71SLPC  H11A 6118   2.387   5.415  10.410  0.9208  0.7774  0.3050
   71SLPC  H11B 6119   2.284   5.308  10.509  0.1733 -0.9661 -0.7946
   71SLPC     P 6120   2.506   5.142  10.451 -0.2705  0.0810 -0.5601
   71SLPC   O13 6121   2.634   5.090  10.497 -1.6221 -0.3447 -0.4630
   71SLPC   O14 6122   2.388   5.058  10.474  0.3850  0.3733  0.0751
   71SLPC   O12 6123   2.490   5.279  10.530 -0.7601  0.2041 -0.3719
   71SLPC   O11 6124   2.512   5.202  10.301  0.5074 -0.4132  0.1727
   71SLPC    C1 6125   2.588   5.132  10.204 -0.0771  0.2918 -0.2780
   71SLPC    HA 6126   2.598   5.024  10.226 -0.5011  0.7548  2.4752
   71SLPC    HB 6127   2.537   5.123  10.105  2.1263 -0.0539 -1.4429
   71SLPC    C2 6128   2.719   5.201  10.184 -0.5019  0.5872 -0.1625
   71SLPC    HS 6129   2.772   5.175  10.278  1.4351 -0.3009 -1.4168
   71SLPC   O21 6130   2.712   5.343  10.155 -0.0174 -0.1873  0.6610
   71SLPC   C21 6131   2.782   5.416  10.236 -0.3216 -0.3006 -0.0702
   71SLPC   O22 6132   2.848   5.381  10.333  0.2393 -0.1937  0.4942
   71SLPC   C22 6133   2.762   5.560  10.182 -0.6712 -0.4569 -0.2065
   71SLPC   H2R 6134   2.849   5.627  10.201 -0.7694  0.8368 -3.6219
   71SLPC   H2S 6135   2.768   5.541  10.073 -2.8368 -0.5173 -0.3423
   71SLPC    C3 6136   2.796   5.125  10.066 -0.4203 -0.2153 -0.5782
   71SLPC    HX 6137   2.797   5.014  10.074 -0.7468 -0.3378 -1.9683
   71SLPC    HY 6138   2.903   5.156  10.075 -0.9145  0.8048  3.8352
   71SLPC   O31 6139   2.737   5.146   9.937 -0.2280 -0.0869 -0.4261
   71SLPC   C31 6140   2.764   5.250   9.863  0.6524  1.1652 -0.3327
   71SLPC   O32 6141   2.854   5.331   9.878  0.1335  0.3531 -0.2570
   71SLPC   C32 6142   2.665   5.248   9.742 -0.2344 -0.2782 -0.3823
   71SLPC   H2X 6143   2.569   5.205   9.778 -0.0345 -0.3613  0.0596
   71SLPC   H2Y 6144   2.705   5.191   9.655 -0.9013  2.0786 -2.3303
   71SLPC   C23 6145   2.632   5.631  10.218  0.6967 -0.4465 -0.6868
   71SLPC   H3R 6146   2.630   5.657  10.326  1.3852  0.0656 -0.7904
   71SLPC   H3S 6147   2.539   5.577  10.191 -1.4262  2.1141  0.9594
   71SLPC   C24 6148   2.621   5.759  10.140  0.4456  0.1827 -0.4664
   71SLPC   H4R 6149   2.641   5.767  10.031 -0.9858  3.1356 -0.5993
   71SLPC   H4S 6150   2.702   5.826  10.175  0.4571  0.2354 -0.5906
   71SLPC   C25 6151   2.486   5.823  10.163 -0.0085  1.0188  0.3489
   71SLPC   H5R 6152   2.464   5.819  10.272 -0.8722  0.3451  0.1574
   71SLPC   H5S 6153   2.394   5.784  10.115  0.3372 -0.2302  0.6697
   71SLPC   C26 6154   2.471   5.970  10.129  0.3955 -0.2116  0.2136
   71SLPC   H6R 6155   2.498   5.988  10.022  4.0883  1.2103  1.2280
   71SLPC   H6S 6156   2.534   6.040  10.187  1.1285  1.4810 -2.4330
   71SLPC   C27 6157   2.322   6.017  10.155 -0.9407 -0.3916 -0.6286
   71SLPC   H7R 6158   2.301   6.026  10.264 -0.3735  1.0460 -0.6086
   71SLPC   H7S 6159   2.248   5.957  10.098  0.2708 -0.3633 -2.3031
   71SLPC   C28 6160   2.303   6.159  10.103  0.2293  0.6166 -0.0118
   71SLPC   H8R 6161   2.330   6.161   9.995 -0.4483 -0.3746 -0.2105
   71SLPC   H8S 6162   2.373   6.233  10.147 -0.6570  1.0023  0.8069
   71SLPC   C29 6163   2.161   6.207  10.123 -0.3796 -0.3225 -0.1810
   71SLPC   H9R 6164   2.133   6.212  10.229 -0.9181  0.1909 -0.3425
   71SLPC  C210 6165   2.069   6.236  10.025  0.2074 -1.0164 -1.0940
   71SLPC  H10R 6166   1.970   6.270  10.057 -0.0797 -3.1212  0.4161
   71SLPC  C211 6167   2.087   6.231   9.879 -0.0469 -0.9709  0.2206
   71SLPC  H11R 6168   1.985   6.224   9.837 -0.6834  0.2403  1.4668
   71SLPC  H11S 6169   2.135   6.135   9.852  0.8803 -1.2556  2.5846
   71SLPC  C212 6170   2.154   6.358   9.824  0.8251  0.6548  0.2945
   71SLPC  H12R 6171   2.202   6.428   9.894  1.1513 -0.1406  0.8839
   71SLPC  C213 6172   2.149   6.386   9.692  0.1940  0.1786 -0.9036
   71SLPC  H13R 6173   2.190   6.485   9.666  0.1116  0.9206  1.4990
   71SLPC  C214 6174   2.095   6.304   9.584  0.0257 -0.0953  0.3688
   71SLPC  H14R 6175   1.994   6.344   9.563  0.7709  1.3484 -0.5507
   71SLPC  H14S 6176   2.100   6.195   9.608  0.8903 -0.1604 -0.0909
   71SLPC  C215 6177   2.169   6.336   9.453  0.1825 -0.1827  0.0995
   71SLPC  H15R 6178   2.278   6.315   9.463  0.6361  1.4437 -0.9113
   71SLPC  H15S 6179   2.161   6.443   9.424 -0.5720 -0.5996 -1.3634
   71SLPC  C216 6180   2.124   6.248   9.324  0.2084  0.1974 -0.3939
   71SLPC  H16R 6181   2.021   6.207   9.321  0.8255 -1.9324  2.6152
   71SLPC  H16S 6182   2.182   6.155   9.337 -0.1922  0.1826  1.6292
   71SLPC  C217 6183   2.151   6.325   9.200  0.2335 -0.6509  0.4793
   71SLPC  H17R 6184   2.247   6.380   9.216  0.4160 -1.4039  2.1345
   71SLPC  H17S 6185   2.064   6.392   9.187  1.5873  1.5990  2.1805
   71SLPC  C218 6186   2.172   6.231   9.082  0.2774 -0.1473 -0.4930
   71SLPC  H18R 6187   2.071   6.189   9.058 -0.3055  1.2213 -0.5095
   71SLPC  H18S 6188   2.239   6.145   9.103  0.9286  0.1142 -1.4299
   71SLPC  H18T 6189   2.223   6.278   8.996  2.3206  0.9952  1.2706
   71SLPC   C33 6190   2.639   5.393   9.692 -0.3829 -0.0126  0.3133
   71SLPC   H3X 6191   2.739   5.434   9.664 -0.9012  0.7275 -0.4835
   71SLPC   H3Y 6192   2.594   5.465   9.764  0.2726  1.4880 -0.7256
   71SLPC   C34 6193   2.535   5.409   9.572 -0.2653  0.2612 -0.6079
   71SLPC   H4X 6194   2.575   5.360   9.481 -1.3006 -0.8290 -0.5026
   71SLPC   H4Y 6195   2.528   5.518   9.549  0.2884  0.2203 -0.9731
   71SLPC   C35 6196   2.397   5.342   9.604 -0.3960 -0.1904  0.2887
   71SLPC   H5X 6197   2.348   5.398   9.686 -1.3447  1.0743 -1.0884
   71SLPC   H5Y 6198   2.402   5.235   9.634  0.9087  0.0009  0.7966
   71SLPC   C36 6199   2.308   5.345   9.482  1.0394  0.3818  0.5927
   71SLPC   H6X 6200   2.284   5.240   9.453  1.2259  0.8575 -1.4286
   71SLPC   H6Y 6201   2.368   5.390   9.400  0.7209  0.6773  0.5189
   71SLPC   C37 6202   2.173   5.416   9.498 -0.8053 -0.5242 -0.5701
   71SLPC   H7X 6203   2.187   5.511   9.554  1.3816 -1.4460  0.5596
   71SLPC   H7Y 6204   2.114   5.350   9.564 -0.7235 -1.0913 -1.0492
   71SLPC   C38 6205   2.095   5.458   9.369 -0.1698 -0.3316 -0.3742
   71SLPC   H8X 6206   2.000   5.499   9.410  0.7168  1.5203 -0.0609
   71SLPC   H8Y 6207   2.084   5.369   9.304  0.1178 -0.3576 -0.3882
   71SLPC   C39 6208   2.156   5.567   9.281 -0.2223  0.1736  0.3191
   71SLPC   H9X 6209   2.085   5.565   9.196  0.0695  0.5025  0.0655
   71SLPC   H9Y 6210   2.257   5.535   9.250 -0.9905 -1.2621 -0.8101
   71SLPC  C310 6211   2.179   5.703   9.347  0.0780 -0.3889 -0.3454
   71SLPC  H10X 6212   2.229   5.681   9.444 -2.6435  1.0301  1.5217
   71SLPC  H10Y 6213   2.087   5.758   9.375  0.8846  0.5473  0.5874
   71SLPC  C311 6214   2.242   5.809   9.252 -0.2847 -0.1170 -0.6798
   71SLPC  H11X 6215   2.264   5.900   9.311 -0.3661 -0.4290 -0.1670
   71SLPC  H11Y 6216   2.166   5.824   9.172 -0.4924 -0.9973 -0.6570
   71SLPC  C312 6217   2.384   5.771   9.198  0.7470 -0.2800 -0.0904
   71SLPC  H12X 6218   2.419   5.667   9.218 -0.7258 -0.4542  1.8582
   71SLPC  H12Y 6219   2.452   5.841   9.252  1.1524 -0.1970 -0.6973
   71SLPC  C313 6220   2.385   5.789   9.045 -0.8407 -0.2489 -0.3049
   71SLPC  H13X 6221   2.327   5.881   9.022 -1.2973  0.1338  2.0905
   71SLPC  H13Y 6222   2.342   5.701   8.993  0.5893  0.6190 -3.1870
   71SLPC  C314 6223   2.531   5.816   8.992  0.2850  0.4042  0.7891
   71SLPC  H14X 6224   2.587   5.737   9.047 -0.6794 -2.1484 -1.6695
   71SLPC  H14Y 6225   2.566   5.918   9.020  0.6064 -0.0683  2.1787
   71SLPC  C315 6226   2.533   5.796   8.836 -0.7856  0.0899  0.5990
   71SLPC  H15X 6227   2.465   5.867   8.785 -1.2452  0.8214  2.1514
   71SLPC  H15Y 6228   2.496   5.693   8.818 -1.8014  0.6222 -0.4531
   71SLPC  C316 6229   2.669   5.816   8.774 -0.8648  0.3049  0.3224
   71SLPC  H16X 6230   2.741   5.755   8.832 -0.6029 -0.0852 -0.3998
   71SLPC  H16Y 6231   2.687   5.926   8.782  2.4320  0.1053 -2.2835
   71SLPC  C317 6232   2.681   5.756   8.635  0.4076  0.4701 -0.6295
   71SLPC  H17X 6233   2.580   5.766   8.590  0.2310  0.1295 -0.3084
   71SLPC  H17Y 6234   2.704   5.648   8.645 -0.8212 -0.0715 -3.0354
   71SLPC  C318 6235   2.769   5.823   8.535  0.1205 -0.5211  0.6341
   71SLPC  H18X 6236   2.871   5.847   8.574 -0.5991 -0.6227  2.6686
   71SLPC  H18Y 6237   2.729   5.924   8.510 -1.6193 -1.1857  0.5993
   71SLPC  H18Z 6238   2.777   5.771   8.437 -3.0112 -2.4074  1.2505
   72SLPC     N 6239   3.110   2.363  11.111 -0.3841 -1.1577  0.1850
   72SLPC   C13 6240   2.978   2.437  11.118 -0.9875 -0.1033  0.3688
   72SLPC  H13A 6241   2.966   2.510  11.198  1.7199 -0.3351  1.0965
   72SLPC  H13B 6242   2.968   2.493  11.026 -0.4810  0.2099  0.4945
   72SLPC  H13C 6243   2.905   2.360  11.136  0.1589 -1.2136  0.3661
   72SLPC   C14 6244   3.144   2.299  11.241 -0.0156  0.0535  0.2299
   72SLPC  H14A 6245   3.241   2.253  11.248  0.5083  1.1987  0.7344
   72SLPC  H14B 6246   3.135   2.369  11.323 -0.6375 -2.0808  2.0976
   72SLPC  H14C 6247   3.076   2.217  11.261 -1.9818  1.8690  1.4961
   72SLPC   C15 6248   3.226   2.453  11.083 -0.7765 -0.1053  0.3633
   72SLPC  H15A 6249   3.245   2.512  11.172 -0.5992  0.5974 -0.1251
   72SLPC  H15B 6250   3.302   2.382  11.054 -1.6040 -0.9187  0.1312
   72SLPC  H15C 6251   3.217   2.516  10.995  1.5385 -0.2014 -0.0210
   72SLPC   C12 6252   3.104   2.259  11.001  0.3833 -0.8527 -0.3613
   72SLPC  H12A 6253   3.202   2.215  10.990  0.4860 -0.4515 -1.1307
   72SLPC  H12B 6254   3.090   2.315  10.909 -1.5375 -1.2921 -0.3755
   72SLPC   C11 6255   2.997   2.144  11.012 -1.6094  0.1813 -0.4754
   72SLPC  H11A 6256   3.004   2.103  11.115  0.6129  0.1230 -0.5902
   72SLPC  H11B 6257   3.025   2.063  10.941  0.6291 -0.3170  0.8762
   72SLPC     P 6258   2.812   2.208  10.839 -0.4786  0.1525  0.1346
   72SLPC   O13 6259   2.782   2.070  10.799 -0.5635 -0.3176 -0.1764
   72SLPC   O14 6260   2.702   2.304  10.835 -0.1260 -0.5075 -0.2043
   72SLPC   O12 6261   2.870   2.192  10.986  0.4022 -0.3886 -0.3988
   72SLPC   O11 6262   2.934   2.270  10.758  0.1793  0.2452 -0.0498
   72SLPC    C1 6263   2.940   2.413  10.742 -0.0455 -0.0417 -0.2934
   72SLPC    HA 6264   2.902   2.470  10.829 -2.1835  2.4338 -2.6832
   72SLPC    HB 6265   3.043   2.451  10.722  0.1156 -1.0312 -1.4687
   72SLPC    C2 6266   2.862   2.458  10.615 -0.2547  0.1518 -0.3746
   72SLPC    HS 6267   2.758   2.419  10.621 -0.1214 -0.2756 -0.8077
   72SLPC   O21 6268   2.938   2.426  10.496 -0.0269  0.3260 -0.2312
   72SLPC   C21 6269   2.885   2.323  10.421 -0.8878  0.4432 -0.0994
   72SLPC   O22 6270   2.776   2.275  10.431 -0.8758 -0.5149  0.1425
   72SLPC   C22 6271   2.989   2.293  10.313 -0.3352  0.5354 -0.1904
   72SLPC   H2R 6272   3.086   2.304  10.366  0.6533 -0.4487 -1.7040
   72SLPC   H2S 6273   2.968   2.187  10.287  0.9629 -0.3042  1.8990
   72SLPC    C3 6274   2.843   2.617  10.616 -0.2182  0.2054 -0.1822
   72SLPC    HX 6275   2.945   2.654  10.640 -0.6183 -0.0485  2.1381
   72SLPC    HY 6276   2.772   2.649  10.694  2.2251  3.1710  0.9955
   72SLPC   O31 6277   2.805   2.668  10.493  0.1799  0.4413  0.1762
   72SLPC   C31 6278   2.893   2.701  10.414 -0.5429  0.1167  0.2359
   72SLPC   O32 6279   3.014   2.702  10.435  0.0465 -0.2622 -0.2525
   72SLPC   C32 6280   2.832   2.742  10.277  0.6830 -0.7616 -0.7766
   72SLPC   H2X 6281   2.738   2.798  10.297  1.7516  0.8175  0.0691
   72SLPC   H2Y 6282   2.801   2.654  10.218 -0.2663 -1.0260  0.0954
   72SLPC   C23 6283   2.987   2.380  10.187  0.3032 -0.6537  0.3711
   72SLPC   H3R 6284   3.072   2.349  10.122  0.3063  2.3635 -1.2480
   72SLPC   H3S 6285   3.009   2.488  10.200  0.5122 -0.8111  1.3675
   72SLPC   C24 6286   2.855   2.366  10.111  0.3107 -0.1979  0.2124
   72SLPC   H4R 6287   2.776   2.414  10.174  1.1800  1.6757 -0.0434
   72SLPC   H4S 6288   2.832   2.261  10.085 -2.1916  0.1494  0.7142
   72SLPC   C25 6289   2.851   2.447   9.976 -0.0911  0.1931  0.1129
   72SLPC   H5R 6290   2.940   2.408   9.922  0.5344  1.4511  0.1950
   72SLPC   H5S 6291   2.858   2.556   9.993  0.9462  0.1352  0.0928
   72SLPC   C26 6292   2.727   2.420   9.896 -0.0424  0.3044 -0.3743
   72SLPC   H6R 6293   2.629   2.457   9.932  0.3063  2.7217 -1.7202
   72SLPC   H6S 6294   2.723   2.313   9.865 -0.5455  0.4174 -0.7071
   72SLPC   C27 6295   2.750   2.506   9.764  0.4231 -0.2729 -0.1209
   72SLPC   H7R 6296   2.849   2.489   9.717  1.3826 -0.6153  1.9077
   72SLPC   H7S 6297   2.755   2.614   9.791 -0.8887 -0.6952  2.0999
   72SLPC   C28 6298   2.647   2.484   9.660  0.0030  0.1110  0.1858
   72SLPC   H8R 6299   2.656   2.552   9.572  0.0785  0.3504  0.3799
   72SLPC   H8S 6300   2.552   2.513   9.709  0.7172  0.4798  1.3957
   72SLPC   C29 6301   2.637   2.344   9.613 -0.1867 -0.4384  0.0983
   72SLPC   H9R 6302   2.583   2.270   9.674  1.7756 -1.6030  0.5201
   72SLPC  C210 6303   2.689   2.307   9.497 -1.0517 -0.5573  0.0747
   72SLPC  H10R 6304   2.687   2.201   9.469  1.4495 -0.4332 -0.8247
   72SLPC  C211 6305   2.759   2.386   9.390 -0.3701 -0.0878 -0.2294
   72SLPC  H11R 6306   2.866   2.357   9.392 -0.6487 -1.1882 -0.3980
   72SLPC  H11S 6307   2.759   2.496   9.403  1.4792 -0.2428  1.5643
   72SLPC  C212 6308   2.710   2.357   9.250  0.1017 -0.0279 -0.2566
   72SLPC  H12R 6309   2.761   2.266   9.214 -1.1083 -0.3734 -1.1356
   72SLPC  C213 6310   2.614   2.413   9.173 -0.8313  0.4550 -0.2254
   72SLPC  H13R 6311   2.588   2.370   9.075 -0.1963  1.0897 -0.6860
   72SLPC  C214 6312   2.531   2.525   9.223 -0.0653  0.1337 -0.1368
   72SLPC  H14R 6313   2.547   2.550   9.330  1.4585  0.4065 -0.4199
   72SLPC  H14S 6314   2.424   2.495   9.210 -0.7331  2.2018  0.2873
   72SLPC  C215 6315   2.565   2.643   9.133  0.1696  0.2561 -0.2988
   72SLPC  H15R 6316   2.488   2.723   9.140  0.2280  0.3608 -0.7674
   72SLPC  H15S 6317   2.570   2.617   9.025 -2.0773  0.1238 -0.4139
   72SLPC  C216 6318   2.699   2.715   9.165  0.1649 -0.0020 -0.0697
   72SLPC  H16R 6319   2.753   2.747   9.074  0.3711  0.8936  0.3583
   72SLPC  H16S 6320   2.771   2.653   9.222 -1.0880 -0.0669  1.5166
   72SLPC  C217 6321   2.671   2.840   9.252 -0.6552  1.6256  0.2934
   72SLPC  H17R 6322   2.606   2.809   9.337 -0.2711  0.1101  0.0787
   72SLPC  H17S 6323   2.610   2.909   9.191 -0.2824  0.1614 -1.8511
   72SLPC  C218 6324   2.802   2.910   9.301  0.7274 -0.1103 -0.7743
   72SLPC  H18R 6325   2.786   3.000   9.365  2.1190 -0.6919  0.4617
   72SLPC  H18S 6326   2.849   2.943   9.206 -0.1863  1.2345 -0.7907
   72SLPC  H18T 6327   2.875   2.844   9.352  2.7170  1.1649 -1.8185
   72SLPC   C33 6328   2.941   2.832  10.205 -0.6864 -0.1614 -0.3433
   72SLPC   H3X 6329   3.019   2.762  10.168 -0.8590 -1.5360  1.6951
   72SLPC   H3Y 6330   2.983   2.907  10.275 -1.0114  2.5775 -2.9281
   72SLPC   C34 6331   2.874   2.899  10.091 -0.3390  0.0079  0.2647
   72SLPC   H4X 6332   2.928   2.995  10.072 -1.1125  1.3204  3.9548
   72SLPC   H4Y 6333   2.769   2.928  10.114 -0.7992 -0.0990 -1.5201
   72SLPC   C35 6334   2.860   2.816   9.965 -0.5959 -0.4656 -0.3920
   72SLPC   H5X 6335   2.784   2.738   9.985 -0.9474  0.5413  2.7034
   72SLPC   H5Y 6336   2.952   2.755   9.948 -0.5935 -0.5482 -0.0895
   72SLPC   C36 6337   2.855   2.900   9.835  0.8220 -0.0173  0.7571
   72SLPC   H6X 6338   2.790   2.988   9.849  1.1106  0.7576 -2.1779
   72SLPC   H6Y 6339   2.804   2.846   9.753  0.0978  0.6932  0.7342
   72SLPC   C37 6340   2.990   2.948   9.778 -0.2207 -0.1847  0.2738
   72SLPC   H7X 6341   3.049   2.859   9.746 -1.5159 -0.0935 -2.7307
   72SLPC   H7Y 6342   3.042   3.011   9.853  0.2451  0.1926 -0.3574
   72SLPC   C38 6343   2.961   3.041   9.656 -0.1582 -0.0975  0.0511
   72SLPC   H8X 6344   2.909   3.129   9.700  1.9196  0.1017  2.3195
   72SLPC   H8Y 6345   2.893   2.995   9.581 -0.1864  0.6090 -0.3644
   72SLPC   C39 6346   3.086   3.087   9.576  0.2319  0.7412 -0.0315
   72SLPC   H9X 6347   3.121   2.996   9.524  0.8446  1.6983 -1.3424
   72SLPC   H9Y 6348   3.174   3.120   9.636  2.0641 -0.9358 -1.6712
   72SLPC  C310 6349   3.045   3.187   9.467  0.3883 -0.6607  0.2050
   72SLPC  H10X 6350   2.999   3.272   9.522  1.6273 -1.0604  1.9410
   72SLPC  H10Y 6351   2.967   3.136   9.407 -0.7914  1.0066  0.2582
   72SLPC  C311 6352   3.169   3.243   9.389  0.2095  0.8761  0.5793
   72SLPC  H11X 6353   3.259   3.259   9.452  0.4257  1.2354  0.1845
   72SLPC  H11Y 6354   3.140   3.341   9.346  0.6699  0.2819 -1.1931
   72SLPC  C312 6355   3.194   3.148   9.282 -0.4407 -0.5420  0.3852
   72SLPC  H12X 6356   3.105   3.120   9.221 -0.9165  0.4406  0.6009
   72SLPC  H12Y 6357   3.246   3.058   9.321  0.8499 -0.1552 -0.3760
   72SLPC  C313 6358   3.290   3.206   9.174  0.3960 -0.4988  0.2392
   72SLPC  H13X 6359   3.385   3.232   9.225  0.2622 -1.8503  1.2239
   72SLPC  H13Y 6360   3.254   3.305   9.137  2.4897  0.3210  0.2530
   72SLPC  C314 6361   3.300   3.107   9.058  0.2043 -0.2808 -0.0570
   72SLPC  H14X 6362   3.202   3.080   9.013  1.0238 -2.6578 -0.5407
   72SLPC  H14Y 6363   3.344   3.009   9.085 -0.5701 -1.0345 -1.4616
   72SLPC  C315 6364   3.378   3.174   8.946  0.0576  0.2630 -1.0317
   72SLPC  H15X 6365   3.474   3.119   8.939 -0.2715 -0.5211  0.2594
   72SLPC  H15Y 6366   3.423   3.269   8.983 -0.3129  0.2806 -0.6078
   72SLPC  C316 6367   3.308   3.193   8.814 -0.4284 -0.5427 -0.1301
   72SLPC  H16X 6368   3.265   3.293   8.834  2.1545  0.3597  1.3860
   72SLPC  H16Y 6369   3.231   3.116   8.793  0.9440 -2.5408  1.6905
   72SLPC  C317 6370   3.407   3.213   8.698 -0.5871 -0.2601  0.6379
   72SLPC  H17X 6371   3.348   3.260   8.617 -0.5794 -1.7753 -0.2819
   72SLPC  H17Y 6372   3.427   3.113   8.655  0.9218  0.1394  0.3795
   72SLPC  C318 6373   3.521   3.312   8.729 -0.9633  0.1089 -0.1430
   72SLPC  H18X 6374   3.576   3.330   8.634  1.1886  0.2511  1.0669
   72SLPC  H18Y 6375   3.581   3.261   8.807 -1.3590 -1.0666 -0.5990
   72SLPC  H18Z 6376   3.494   3.415   8.763  1.7285  0.7200  0.3958
   73SLPC     N 6377   5.727   1.241  10.818 -0.3510 -0.0695 -0.1697
   73SLPC   C13 6378   5.760   1.103  10.807  0.9510  0.8476 -0.1763
   73SLPC  H13A 6379   5.733   1.042  10.892 -0.8534  0.4984 -0.9436
   73SLPC  H13B 6380   5.721   1.052  10.720  1.2072  1.0239 -0.3967
   73SLPC  H13C 6381   5.865   1.086  10.790  0.5338 -1.3858 -0.8897
   73SLPC   C14 6382   5.774   1.313  10.689 -0.1226 -0.3204  0.2139
   73SLPC  H14A 6383   5.722   1.280  10.600  0.6135 -0.4561 -0.1712
   73SLPC  H14B 6384   5.769   1.419  10.709  1.4146 -0.6104  2.6191
   73SLPC  H14C 6385   5.874   1.283  10.661 -0.5986 -0.9445 -0.9038
   73SLPC   C15 6386   5.804   1.297  10.934  0.6643 -0.2724 -0.2278
   73SLPC  H15A 6387   5.820   1.402  10.916 -2.2465  0.2679 -0.1378
   73SLPC  H15B 6388   5.751   1.284  11.027 -0.5826  0.2574 -0.8457
   73SLPC  H15C 6389   5.894   1.238  10.948  0.5834 -0.0517  1.4084
   73SLPC   C12 6390   5.585   1.282  10.831  0.1925 -0.1945  0.3739
   73SLPC  H12A 6391   5.528   1.230  10.907  0.4104  2.0484  2.2001
   73SLPC  H12B 6392   5.530   1.267  10.740  0.4618  0.5525  0.0842
   73SLPC   C11 6393   5.566   1.431  10.866 -0.5200 -0.3460  0.4391
   73SLPC  H11A 6394   5.612   1.495  10.787  1.5008 -2.7826 -0.5378
   73SLPC  H11B 6395   5.614   1.464  10.961 -0.6469  0.2564  0.2988
   73SLPC     P 6396   5.347   1.512  10.753 -0.3512 -0.1905 -0.5193
   73SLPC   O13 6397   5.208   1.472  10.761  0.5865 -0.3532 -0.1026
   73SLPC   O14 6398   5.368   1.662  10.749  0.2321 -0.4734  0.2552
   73SLPC   O12 6399   5.426   1.444  10.873 -0.7348 -0.5375  0.1691
   73SLPC   O11 6400   5.410   1.457  10.626 -0.2220  0.3734  0.1249
   73SLPC    C1 6401   5.502   1.538  10.547 -0.7876  0.2693 -0.0405
   73SLPC    HA 6402   5.558   1.613  10.606 -0.1258 -0.8264  0.7720
   73SLPC    HB 6403   5.589   1.484  10.504 -0.5055  0.3726  0.3921
   73SLPC    C2 6404   5.424   1.603  10.427  0.0521  0.2176 -0.1139
   73SLPC    HS 6405   5.334   1.648  10.472  1.2165  1.9159  0.6306
   73SLPC   O21 6406   5.379   1.495  10.337 -0.1712  0.0753 -0.1645
   73SLPC   C21 6407   5.252   1.486  10.308  0.5564 -0.0796 -0.2699
   73SLPC   O22 6408   5.166   1.560  10.342  0.1497 -0.0228  0.1679
   73SLPC   C22 6409   5.228   1.365  10.212 -0.5560 -0.5342 -0.5152
   73SLPC   H2R 6410   5.316   1.296  10.207  2.0635  2.4281  1.2208
   73SLPC   H2S 6411   5.135   1.315  10.247  0.3706 -0.2882  2.5929
   73SLPC    C3 6412   5.511   1.712  10.368  0.4519 -0.0010  0.0555
   73SLPC    HX 6413   5.595   1.664  10.314  0.6688 -1.6403  1.7351
   73SLPC    HY 6414   5.553   1.780  10.446  2.0191 -1.9842  1.0542
   73SLPC   O31 6415   5.434   1.784  10.271  0.6098 -0.1204 -0.2609
   73SLPC   C31 6416   5.375   1.898  10.311 -0.4538  0.2317  0.5323
   73SLPC   O32 6417   5.380   1.953  10.422  0.0185  0.6496  0.3980
   73SLPC   C32 6418   5.287   1.940  10.194  0.3967 -0.2170 -0.3540
   73SLPC   H2X 6419   5.211   1.861  10.173 -0.2882  0.3071  0.0932
   73SLPC   H2Y 6420   5.353   1.944  10.105  2.6332 -2.9797  1.0399
   73SLPC   C23 6421   5.217   1.401  10.069  0.5135  1.3367 -0.0996
   73SLPC   H3R 6422   5.306   1.450  10.025 -0.0699  1.4767 -1.1747
   73SLPC   H3S 6423   5.137   1.478  10.064 -2.0293 -0.9627  1.7646
   73SLPC   C24 6424   5.168   1.279   9.989  0.0978 -0.3631  0.2642
   73SLPC   H4R 6425   5.070   1.244  10.027 -0.9034  1.4318 -0.5129
   73SLPC   H4S 6426   5.231   1.188   9.996  0.4649 -0.1768 -0.5007
   73SLPC   C25 6427   5.162   1.310   9.836  0.0572  0.3265 -0.3554
   73SLPC   H5R 6428   5.267   1.336   9.808 -0.1535  0.2228 -1.2637
   73SLPC   H5S 6429   5.097   1.397   9.814 -0.5573  0.2631  1.0879
   73SLPC   C26 6430   5.116   1.191   9.743 -1.3744 -0.2550  0.6168
   73SLPC   H6R 6431   5.010   1.171   9.771 -1.6976 -0.4603 -0.6958
   73SLPC   H6S 6432   5.165   1.091   9.751 -0.2670 -0.1039 -2.8143
   73SLPC   C27 6433   5.110   1.230   9.596 -0.0746  0.2000  0.3561
   73SLPC   H7R 6434   5.214   1.234   9.556 -0.5518 -3.7015 -1.7875
   73SLPC   H7S 6435   5.046   1.320   9.587  0.8935  0.8868  0.1093
   73SLPC   C28 6436   5.037   1.131   9.502  0.1372 -0.6953  0.4912
   73SLPC   H8R 6437   4.994   1.196   9.424  2.6859 -0.5830 -0.9319
   73SLPC   H8S 6438   4.954   1.084   9.559  0.5784 -1.2459  0.6849
   73SLPC   C29 6439   5.134   1.036   9.431  0.1014 -0.8761  0.0394
   73SLPC   H9R 6440   5.172   0.955   9.495  4.5607  0.4513 -0.5458
   73SLPC  C210 6441   5.174   1.042   9.305  0.0340 -0.2694 -0.2300
   73SLPC  H10R 6442   5.253   0.973   9.274  0.3155 -0.7347  1.4195
   73SLPC  C211 6443   5.144   1.141   9.194  0.3238  0.6314 -0.0316
   73SLPC  H11R 6444   5.240   1.171   9.148  1.3444 -0.0643  1.5348
   73SLPC  H11S 6445   5.112   1.242   9.227  3.3265  2.2786 -1.8221
   73SLPC  C212 6446   5.043   1.084   9.099 -0.5028 -0.3078  0.1760
   73SLPC  H12R 6447   4.957   1.034   9.147 -0.1254 -1.7016 -0.5647
   73SLPC  C213 6448   5.067   1.056   8.968 -0.4383  0.0801 -0.9049
   73SLPC  H13R 6449   4.980   1.019   8.912 -1.0993 -1.1751  0.8614
   73SLPC  C214 6450   5.189   1.078   8.890 -0.3897 -1.3356  0.1068
   73SLPC  H14R 6451   5.223   0.987   8.835 -0.0289 -0.7555 -0.6401
   73SLPC  H14S 6452   5.276   1.120   8.946  1.1346 -2.5672 -1.2179
   73SLPC  C215 6453   5.178   1.191   8.780 -0.3152 -1.1077  0.8336
   73SLPC  H15R 6454   5.097   1.166   8.707  1.4510 -0.7184 -1.3898
   73SLPC  H15S 6455   5.272   1.196   8.721 -0.3687  1.7902  0.8573
   73SLPC  C216 6456   5.141   1.334   8.835 -0.0766 -0.1477  0.1798
   73SLPC  H16R 6457   5.208   1.363   8.918 -0.4175  3.9290 -0.7655
   73SLPC  H16S 6458   5.038   1.327   8.877  0.8065  0.2381  2.5369
   73SLPC  C217 6459   5.156   1.443   8.721 -0.3069 -0.9668 -0.4800
   73SLPC  H17R 6460   5.263   1.435   8.691  1.3200  0.0892  4.2459
   73SLPC  H17S 6461   5.152   1.540   8.774  1.6919 -1.6191  0.9602
   73SLPC  C218 6462   5.032   1.431   8.626 -0.5153 -0.2636  0.2124
   73SLPC  H18R 6463   5.039   1.332   8.576  2.9305 -0.2632  0.4459
   73SLPC  H18S 6464   5.026   1.509   8.546 -1.3119  0.2082  0.7151
   73SLPC  H18T 6465   4.941   1.445   8.687 -0.6104  2.0688 -0.3633
   73SLPC   C33 6466   5.229   2.080  10.219 -0.8876 -0.2960 -0.5463
   73SLPC   H3X 6467   5.312   2.153  10.211 -0.8389 -0.1335  1.1168
   73SLPC   H3Y 6468   5.197   2.078  10.325  1.2499 -0.7293  0.1597
   73SLPC   C34 6469   5.113   2.112  10.121 -0.1488 -0.2856  0.5474
   73SLPC   H4X 6470   5.061   2.205  10.152 -0.0064  0.0065 -0.0719
   73SLPC   H4Y 6471   5.035   2.033  10.130 -1.0211  0.7898  3.2503
   73SLPC   C35 6472   5.148   2.123   9.970 -0.2713  0.1289  0.6033
   73SLPC   H5X 6473   5.187   2.022   9.946  0.3913 -0.3299  3.3264
   73SLPC   H5Y 6474   5.234   2.191   9.949 -0.2339  0.1662  0.8835
   73SLPC   C36 6475   5.027   2.166   9.892 -0.6280 -0.5825  0.1367
   73SLPC   H6X 6476   4.980   2.259   9.930  1.0797 -0.4769  2.1112
   73SLPC   H6Y 6477   4.951   2.084   9.898  0.1305 -1.3378 -0.2477
   73SLPC   C37 6478   5.064   2.183   9.744 -0.4797  1.0626 -0.4045
   73SLPC   H7X 6479   5.052   2.079   9.707  2.8195 -0.2152  1.5679
   73SLPC   H7Y 6480   5.168   2.213   9.718  1.4985 -0.7902  4.1657
   73SLPC   C38 6481   4.965   2.275   9.667 -0.3477 -0.7793 -0.4477
   73SLPC   H8X 6482   4.954   2.357   9.741 -1.3137 -2.1957  1.0462
   73SLPC   H8Y 6483   4.871   2.218   9.649 -1.3521  0.5618  0.3587
   73SLPC   C39 6484   5.022   2.318   9.535 -0.2542  0.5390  0.6027
   73SLPC   H9X 6485   5.058   2.221   9.496 -0.7940  1.6314 -3.0290
   73SLPC   H9Y 6486   5.115   2.378   9.542  0.0567 -0.0198  1.4017
   73SLPC  C310 6487   4.936   2.395   9.435  0.8050  0.2903 -0.0558
   73SLPC  H10X 6488   4.897   2.494   9.467  1.9655  1.6130 -2.4826
   73SLPC  H10Y 6489   4.842   2.338   9.416  1.7139 -1.0729 -0.6559
   73SLPC  C311 6490   5.013   2.416   9.305 -0.2534  0.2268  0.8205
   73SLPC  H11X 6491   5.039   2.323   9.251  0.5249  2.7862 -3.7374
   73SLPC  H11Y 6492   5.113   2.464   9.317  0.4730 -1.4368  1.8622
   73SLPC  C312 6493   4.953   2.510   9.203 -0.3220 -0.2065 -0.5499
   73SLPC  H12X 6494   4.940   2.611   9.246 -2.3874 -0.7345  0.1870
   73SLPC  H12Y 6495   4.852   2.477   9.171  0.6280 -1.4295 -2.5172
   73SLPC  C313 6496   5.047   2.525   9.086  0.0978  0.1778 -0.5678
   73SLPC  H13X 6497   5.041   2.428   9.033  0.8587 -0.2784  0.1485
   73SLPC  H13Y 6498   5.154   2.531   9.115  0.0972 -0.9746 -0.2616
   73SLPC  C314 6499   5.011   2.653   9.007  0.5636 -0.1030  0.5965
   73SLPC  H14X 6500   5.026   2.745   9.068 -0.1743 -0.1274  0.8229
   73SLPC  H14Y 6501   4.901   2.653   8.988  0.7388  0.2624 -0.5019
   73SLPC  C315 6502   5.097   2.667   8.877 -0.4403 -0.2164  0.3125
   73SLPC  H15X 6503   5.082   2.576   8.815  0.4571 -0.3286  0.2440
   73SLPC  H15Y 6504   5.204   2.681   8.902 -0.6452 -1.0384  1.7861
   73SLPC  C316 6505   5.071   2.802   8.802  0.7533  0.0888 -0.3626
   73SLPC  H16X 6506   5.113   2.886   8.860 -0.7890  0.1677  0.7040
   73SLPC  H16Y 6507   4.963   2.828   8.794  0.8157  0.1795 -1.0481
   73SLPC  C317 6508   5.138   2.785   8.669 -0.1534  0.1042  0.3270
   73SLPC  H17X 6509   5.094   2.864   8.605  2.9360  2.1310  0.5297
   73SLPC  H17Y 6510   5.098   2.688   8.632  1.3816 -0.6764  0.6564
   73SLPC  C318 6511   5.287   2.780   8.654 -0.2601  0.8048 -0.5296
   73SLPC  H18X 6512   5.324   2.885   8.661 -0.1350  0.6917  0.7253
   73SLPC  H18Y 6513   5.316   2.738   8.555 -1.2855 -1.6711  0.1502
   73SLPC  H18Z 6514   5.341   2.709   8.720  0.7196  0.5163 -1.6110
   74SLPC     N 6515   4.657   3.333  10.760 -0.2923  0.0371  0.1398
   74SLPC   C13 6516   4.805   3.336  10.747 -0.3531  0.1253  0.5352
   74SLPC  H13A 6517   4.846   3.422  10.797 -1.3332  1.4995 -0.9247
   74SLPC  H13B 6518   4.860   3.246  10.773  1.8525  1.5720  1.1148
   74SLPC  H13C 6519   4.836   3.348  10.645  0.3780  1.7763  0.9270
   74SLPC   C14 6520   4.620   3.478  10.747 -0.3658 -0.5970  0.2072
   74SLPC  H14A 6521   4.645   3.519  10.651 -1.9295  1.2422  0.5359
   74SLPC  H14B 6522   4.513   3.485  10.765 -0.0637  1.3404  1.4763
   74SLPC  H14C 6523   4.667   3.552  10.810  0.7819  2.6261 -4.0129
   74SLPC   C15 6524   4.624   3.275  10.892 -0.1451 -0.4387  0.4743
   74SLPC  H15A 6525   4.656   3.172  10.892  0.1876 -0.4294  3.3723
   74SLPC  H15B 6526   4.665   3.340  10.968  0.1260  1.3160 -1.1047
   74SLPC  H15C 6527   4.519   3.290  10.910 -0.2179 -0.3163 -0.0497
   74SLPC   C12 6528   4.591   3.249  10.648  0.0825  0.8165  0.1086
   74SLPC  H12A 6529   4.483   3.247  10.646  0.0913 -0.1693 -0.2729
   74SLPC  H12B 6530   4.603   3.143  10.669 -1.6422  0.5701 -0.0619
   74SLPC   C11 6531   4.639   3.275  10.506  0.2765  0.7901  0.5604
   74SLPC  H11A 6532   4.638   3.381  10.474  1.9267  0.7232  0.1860
   74SLPC  H11B 6533   4.579   3.211  10.438  3.3562 -1.7261 -0.0541
   74SLPC     P 6534   4.825   3.094  10.458 -0.0343  0.1432  0.3979
   74SLPC   O13 6535   4.932   3.073  10.551 -0.0349 -0.0286  0.9223
   74SLPC   O14 6536   4.716   3.001  10.466 -0.3443  0.2792 -0.2392
   74SLPC   O12 6537   4.778   3.242  10.482 -0.2123  0.3233  0.3793
   74SLPC   O11 6538   4.885   3.095  10.310  0.5345  0.0999  0.0356
   74SLPC    C1 6539   4.849   3.202  10.220 -0.6782 -0.1126 -0.2957
   74SLPC    HA 6540   4.740   3.222  10.221 -0.9881 -1.6416  0.0184
   74SLPC    HB 6541   4.896   3.295  10.257 -2.0766  0.3626  0.3195
   74SLPC    C2 6542   4.898   3.161  10.083 -0.5380 -0.3058  0.4029
   74SLPC    HS 6543   4.902   3.253  10.021 -0.5662  0.0313  0.9025
   74SLPC   O21 6544   4.791   3.079  10.027  0.3959  0.1051 -0.0873
   74SLPC   C21 6545   4.685   3.132   9.979 -0.2436  0.6636 -0.3150
   74SLPC   O22 6546   4.649   3.248   9.978  0.3406  0.0382 -0.5901
   74SLPC   C22 6547   4.596   3.017   9.920 -0.2923  0.6219  0.6115
   74SLPC   H2R 6548   4.598   3.040   9.811 -1.1042 -2.0881 -0.0589
   74SLPC   H2S 6549   4.636   2.915   9.938 -0.8941  0.3008  0.1626
   74SLPC    C3 6550   5.037   3.090  10.076  0.5088 -0.7069 -0.3892
   74SLPC    HX 6551   5.039   3.012  10.155  0.3224 -0.1854  0.1372
   74SLPC    HY 6552   5.112   3.169  10.098 -1.1427  0.7757  0.1687
   74SLPC   O31 6553   5.058   3.030   9.943  0.0628  0.3084 -0.4258
   74SLPC   C31 6554   5.078   3.123   9.846 -0.0898 -1.1144 -0.2817
   74SLPC   O32 6555   5.075   3.245   9.861 -0.3736 -0.0616  0.0926
   74SLPC   C32 6556   5.118   3.063   9.711  0.2104 -0.8958  0.3184
   74SLPC   H2X 6557   5.066   2.967   9.689 -2.5119 -0.0287  2.3084
   74SLPC   H2Y 6558   5.226   3.037   9.715  1.4369  3.4116  1.2302
   74SLPC   C23 6559   4.442   3.031   9.959 -0.6043 -0.8907 -0.0279
   74SLPC   H3R 6560   4.401   3.132   9.939  0.5939 -0.5893 -1.1321
   74SLPC   H3S 6561   4.429   3.009  10.067 -0.7917  0.4854  0.2528
   74SLPC   C24 6562   4.347   2.940   9.877 -0.2194 -0.4633 -0.3598
   74SLPC   H4R 6563   4.249   2.975   9.918  1.0898 -0.1213  2.7431
   74SLPC   H4S 6564   4.350   2.836   9.916  0.5389 -1.0074 -1.7963
   74SLPC   C25 6565   4.371   2.965   9.724  0.5185  0.3324  0.2537
   74SLPC   H5R 6566   4.466   2.909   9.708  0.7646  0.7830  0.1380
   74SLPC   H5S 6567   4.394   3.073   9.726 -0.2997  0.5341  3.5163
   74SLPC   C26 6568   4.247   2.941   9.643  0.1695  0.6431  0.2055
   74SLPC   H6R 6569   4.168   3.014   9.667 -2.4892 -2.2342  0.9271
   74SLPC   H6S 6570   4.207   2.841   9.670  1.2096  0.0294 -0.4517
   74SLPC   C27 6571   4.285   2.929   9.491  0.1323 -0.1382  0.5053
   74SLPC   H7R 6572   4.333   2.834   9.459  1.0095  0.7361 -0.8436
   74SLPC   H7S 6573   4.358   3.007   9.462  0.4745 -0.7007 -0.1637
   74SLPC   C28 6574   4.161   2.969   9.402 -0.2697 -0.2150 -0.4439
   74SLPC   H8R 6575   4.127   3.070   9.433  3.4644  0.4632  2.0187
   74SLPC   H8S 6576   4.080   2.894   9.417  0.9227 -1.1451  1.7063
   74SLPC   C29 6577   4.194   2.972   9.257  0.7504 -0.1285 -0.2990
   74SLPC   H9R 6578   4.161   2.886   9.198 -0.0932  1.5165 -2.3410
   74SLPC  C210 6579   4.246   3.069   9.184  0.0235  0.5955  0.2243
   74SLPC  H10R 6580   4.243   3.055   9.075 -1.3303  2.2680  0.0129
   74SLPC  C211 6581   4.282   3.212   9.230 -0.0479  0.5478  0.3889
   74SLPC  H11R 6582   4.350   3.255   9.153 -0.1399 -1.3417 -0.8059
   74SLPC  H11S 6583   4.337   3.217   9.327  1.1008 -0.3657 -0.1949
   74SLPC  C212 6584   4.165   3.310   9.226  0.5797 -0.3288  0.0706
   74SLPC  H12R 6585   4.066   3.283   9.266  0.4957 -0.5711 -0.2941
   74SLPC  C213 6586   4.182   3.440   9.201 -0.1426  0.4343  0.0254
   74SLPC  H13R 6587   4.095   3.507   9.193 -0.3000  0.2989  0.5137
   74SLPC  C214 6588   4.313   3.513   9.169 -0.5712 -0.1342  0.1414
   74SLPC  H14R 6589   4.403   3.448   9.173 -1.3308 -1.1687  1.2660
   74SLPC  H14S 6590   4.343   3.586   9.247 -0.2936 -1.0290  0.8890
   74SLPC  C215 6591   4.310   3.594   9.034 -0.1380  0.2455 -0.2436
   74SLPC  H15R 6592   4.283   3.516   8.960  0.3297 -0.4060  0.2645
   74SLPC  H15S 6593   4.412   3.632   9.015  0.1182 -1.7177 -3.5808
   74SLPC  C216 6594   4.214   3.710   9.024 -0.7624  0.3093 -0.1574
   74SLPC  H16R 6595   4.235   3.787   9.101 -1.2470 -0.6850  1.0043
   74SLPC  H16S 6596   4.115   3.660   9.034  0.2085 -1.9623 -1.1472
   74SLPC  C217 6597   4.215   3.771   8.883  0.1353 -0.2884 -0.1182
   74SLPC  H17R 6598   4.215   3.704   8.794  0.8013  2.1269 -2.0540
   74SLPC  H17S 6599   4.309   3.830   8.877 -1.4065  2.4349  0.6830
   74SLPC  C218 6600   4.102   3.875   8.856  0.4414 -0.2967  0.2089
   74SLPC  H18R 6601   4.092   3.920   8.755 -0.6848 -0.3598  0.2802
   74SLPC  H18S 6602   4.094   3.958   8.929 -0.5797  0.4775 -0.7515
   74SLPC  H18T 6603   4.014   3.809   8.872  0.9544 -0.5112  2.4230
   74SLPC   C33 6604   5.099   3.155   9.592 -0.3102 -0.4057 -0.5294
   74SLPC   H3X 6605   5.134   3.256   9.620  0.5748 -0.5716 -0.9936
   74SLPC   H3Y 6606   4.990   3.152   9.570  0.0486 -1.4172 -2.4923
   74SLPC   C34 6607   5.161   3.099   9.465 -0.1822 -0.3683 -0.9388
   74SLPC   H4X 6608   5.109   3.006   9.433 -0.6432 -0.4263 -0.0744
   74SLPC   H4Y 6609   5.267   3.082   9.493 -1.1917 -2.8319  2.1005
   74SLPC   C35 6610   5.136   3.191   9.351  0.1271 -0.0899 -0.2863
   74SLPC   H5X 6611   5.197   3.282   9.369 -3.2740  1.8483  2.6554
   74SLPC   H5Y 6612   5.030   3.222   9.362 -0.2749 -1.7371  0.9226
   74SLPC   C36 6613   5.155   3.123   9.218 -0.1783  0.0804  0.4536
   74SLPC   H6X 6614   5.087   3.034   9.215  1.8710 -1.5684  0.5349
   74SLPC   H6Y 6615   5.252   3.072   9.202  0.1357  1.5350 -3.2195
   74SLPC   C37 6616   5.135   3.218   9.102 -0.4034  0.1231 -0.7635
   74SLPC   H7X 6617   5.221   3.287   9.115 -0.1233 -0.5567  1.2790
   74SLPC   H7Y 6618   5.035   3.266   9.101  0.1783  1.4000 -1.8749
   74SLPC   C38 6619   5.155   3.143   8.968  0.2455  0.9035 -0.1510
   74SLPC   H8X 6620   5.062   3.094   8.933  0.7777 -0.5934  0.4777
   74SLPC   H8Y 6621   5.239   3.072   8.977 -1.3069 -0.7892  1.9183
   74SLPC   C39 6622   5.192   3.254   8.861 -0.1801  0.3046 -0.2632
   74SLPC   H9X 6623   5.266   3.311   8.921 -0.9858 -1.5775  2.7423
   74SLPC   H9Y 6624   5.101   3.314   8.835  0.0195  0.3745 -0.8165
   74SLPC  C310 6625   5.236   3.189   8.733  0.1901  0.3511 -0.4788
   74SLPC  H10X 6626   5.159   3.121   8.691  1.5915 -1.5907 -0.0126
   74SLPC  H10Y 6627   5.311   3.114   8.764 -0.2822  0.3105  0.6136
   74SLPC  C311 6628   5.291   3.291   8.636  0.7095  0.4299  0.4234
   74SLPC  H11X 6629   5.377   3.345   8.680  1.0980  0.5267 -0.4299
   74SLPC  H11Y 6630   5.216   3.365   8.600  1.7558 -0.0825 -3.2546
   74SLPC  C312 6631   5.340   3.225   8.501  0.0948  0.5267 -0.2678
   74SLPC  H12X 6632   5.247   3.199   8.446 -0.5281 -0.3387  1.1447
   74SLPC  H12Y 6633   5.394   3.133   8.531 -0.1008  0.7477  0.7804
   74SLPC  C313 6634   5.432   3.330   8.423  0.3571  0.1797 -0.1106
   74SLPC  H13X 6635   5.468   3.286   8.327 -1.0456 -0.8804 -0.1723
   74SLPC  H13Y 6636   5.515   3.358   8.492 -1.0534  2.2943  0.8436
   74SLPC  C314 6637   5.347   3.447   8.385  0.4186 -0.0835  0.3804
   74SLPC  H14X 6638   5.320   3.505   8.476 -1.5375  0.1050 -0.2741
   74SLPC  H14Y 6639   5.253   3.404   8.343 -0.5482  1.6897  0.6209
   74SLPC  C315 6640   5.410   3.545   8.284 -0.5836 -0.5663  0.0493
   74SLPC  H15X 6641   5.465   3.481   8.211 -1.0024 -1.4654  0.5062
   74SLPC  H15Y 6642   5.492   3.598   8.337 -0.7012  1.6410 -1.8263
   74SLPC  C316 6643   5.319   3.651   8.220  0.0925  0.3123 -0.0116
   74SLPC  H16X 6644   5.385   3.740   8.210  2.6603 -1.4087  0.6745
   74SLPC  H16Y 6645   5.239   3.659   8.297  0.2692 -3.2219  0.7284
   74SLPC  C317 6646   5.278   3.616   8.078  0.3452  0.8868  0.1140
   74SLPC  H17X 6647   5.205   3.694   8.045 -0.5259 -0.4104 -1.1706
   74SLPC  H17Y 6648   5.215   3.524   8.079  1.8082 -0.1551  2.0566
   74SLPC  C318 6649   5.393   3.601   7.982  0.0133 -0.4225  0.3020
   74SLPC  H18X 6650   5.465   3.685   7.977  1.3873 -1.5452  0.4640
   74SLPC  H18Y 6651   5.358   3.569   7.881  1.7756 -1.6242  0.0173
   74SLPC  H18Z 6652   5.471   3.526   8.011 -1.1341 -1.4791  0.7532
   75SLPC     N 6653   4.782   5.703   6.643  0.4507  0.1544  0.2191
   75SLPC   C13 6654   4.717   5.687   6.510 -0.5163 -0.1025  0.0588
   75SLPC  H13A 6655   4.610   5.676   6.522 -0.5159  0.2826  0.4185
   75SLPC  H13B 6656   4.746   5.764   6.440  2.4244  1.1178  2.4200
   75SLPC  H13C 6657   4.753   5.597   6.462 -0.7432 -2.3088  3.6765
   75SLPC   C14 6658   4.926   5.733   6.622  0.5032  0.1772 -0.9532
   75SLPC  H14A 6659   4.982   5.713   6.712 -1.5526  1.1681  0.6208
   75SLPC  H14B 6660   4.973   5.686   6.537 -0.4855  2.3816 -2.8292
   75SLPC  H14C 6661   4.939   5.837   6.597 -2.5505  0.7551 -0.5280
   75SLPC   C15 6662   4.761   5.575   6.717 -0.3429 -0.4798  0.0034
   75SLPC  H15A 6663   4.659   5.541   6.711 -0.4419  0.1333 -2.7273
   75SLPC  H15B 6664   4.807   5.494   6.663  1.1423  0.2678  0.0676
   75SLPC  H15C 6665   4.803   5.579   6.817  3.2331  0.3734 -1.3512
   75SLPC   C12 6666   4.714   5.818   6.716 -0.5705 -0.1221 -0.2157
   75SLPC  H12A 6667   4.718   5.802   6.823  3.0040  2.1443  0.1680
   75SLPC  H12B 6668   4.618   5.833   6.670  0.2346  1.5113 -1.4318
   75SLPC   C11 6669   4.775   5.952   6.697  0.4728  0.4014  0.3960
   75SLPC  H11A 6670   4.881   5.964   6.726  1.6517 -1.1210 -2.7544
   75SLPC  H11B 6671   4.730   6.029   6.763  1.1610  1.1353  0.0295
   75SLPC     P 6672   4.640   6.038   6.496 -0.5709 -0.1177  0.1211
   75SLPC   O13 6673   4.673   6.157   6.418 -0.3157 -0.5453 -0.0661
   75SLPC   O14 6674   4.570   5.925   6.419 -0.1718 -0.2821 -0.1099
   75SLPC   O12 6675   4.769   5.998   6.561 -0.2303  0.1790 -0.5386
   75SLPC   O11 6676   4.554   6.090   6.616  0.0801 -1.0554 -0.2700
   75SLPC    C1 6677   4.409   6.083   6.603 -0.1976  0.2174  0.4429
   75SLPC    HA 6678   4.375   6.117   6.503  1.4322  0.4058 -0.0736
   75SLPC    HB 6679   4.372   5.979   6.618  0.2082 -0.5168 -2.7669
   75SLPC    C2 6680   4.339   6.164   6.712  0.2472 -0.0639 -0.3571
   75SLPC    HS 6681   4.371   6.269   6.693 -0.5008 -0.0618 -1.7118
   75SLPC   O21 6682   4.362   6.109   6.840 -0.2688  0.6806 -0.3304
   75SLPC   C21 6683   4.470   6.147   6.903  0.3727  0.0973  0.8277
   75SLPC   O22 6684   4.550   6.229   6.865  0.0244  0.3139  1.0085
   75SLPC   C22 6685   4.468   6.076   7.034  0.1233 -0.1697 -0.3354
   75SLPC   H2R 6686   4.363   6.059   7.067 -0.6914 -0.7526 -2.9895
   75SLPC   H2S 6687   4.519   5.978   7.027 -1.8736 -1.6485  3.1726
   75SLPC    C3 6688   4.187   6.164   6.675  0.9179 -0.1268 -0.6482
   75SLPC    HX 6689   4.160   6.057   6.691  2.5544 -0.2842  1.4752
   75SLPC    HY 6690   4.189   6.189   6.567 -1.4446 -0.8270 -0.9245
   75SLPC   O31 6691   4.104   6.255   6.760 -0.2625 -0.2454  0.4015
   75SLPC   C31 6692   4.122   6.387   6.716  0.3135  0.2637 -0.0869
   75SLPC   O32 6693   4.179   6.414   6.614  0.0052 -0.1992 -0.1653
   75SLPC   C32 6694   4.048   6.485   6.809 -0.5292 -0.4826 -0.3566
   75SLPC   H2X 6695   3.970   6.422   6.858 -1.8071  0.9586 -0.4432
   75SLPC   H2Y 6696   4.010   6.565   6.741 -0.2706 -0.9464 -1.0590
   75SLPC   C23 6697   4.530   6.165   7.138  0.1219 -0.8156  0.5084
   75SLPC   H3R 6698   4.492   6.269   7.133 -0.7990 -1.1523  0.3249
   75SLPC   H3S 6699   4.637   6.186   7.117  0.0743  0.2581  1.2458
   75SLPC   C24 6700   4.510   6.119   7.284  0.2966 -0.2802 -0.9841
   75SLPC   H4R 6701   4.562   6.021   7.281  0.3315 -0.3741  1.0153
   75SLPC   H4S 6702   4.403   6.108   7.316  0.0201  1.0956 -1.4021
   75SLPC   C25 6703   4.571   6.215   7.388  0.2180 -0.1039 -0.0145
   75SLPC   H5R 6704   4.517   6.312   7.383  0.4292 -0.0193 -3.3747
   75SLPC   H5S 6705   4.672   6.237   7.348 -0.1360  1.0144 -0.3405
   75SLPC   C26 6706   4.571   6.166   7.538 -0.2625  0.7769 -0.0247
   75SLPC   H6R 6707   4.621   6.067   7.543  0.0588  0.9025 -0.6406
   75SLPC   H6S 6708   4.463   6.156   7.562  0.5114 -0.9585  3.3484
   75SLPC   C27 6709   4.654   6.261   7.625  0.4291 -0.0326  0.8856
   75SLPC   H7R 6710   4.598   6.354   7.649 -0.6685 -0.4195 -0.0570
   75SLPC   H7S 6711   4.735   6.296   7.558 -0.4664 -0.3745 -0.4333
   75SLPC   C28 6712   4.695   6.209   7.762  0.3469  1.0345 -0.6955
   75SLPC   H8R 6713   4.760   6.285   7.809 -1.5380  0.7017  2.9044
   75SLPC   H8S 6714   4.745   6.110   7.762 -1.9876 -0.2771  1.3545
   75SLPC   C29 6715   4.572   6.189   7.852  0.5987 -0.0729 -0.2376
   75SLPC   H9R 6716   4.493   6.129   7.806  0.3652 -0.0044  0.0727
   75SLPC  C210 6717   4.573   6.229   7.982  0.3073  0.2800  0.0455
   75SLPC  H10R 6718   4.486   6.194   8.039 -0.9147  0.4661 -1.6377
   75SLPC  C211 6719   4.685   6.295   8.060 -0.6939  0.4934  1.1460
   75SLPC  H11R 6720   4.649   6.339   8.156  0.5669 -0.2855  2.0106
   75SLPC  H11S 6721   4.716   6.386   8.002 -1.1229 -0.2122 -0.2243
   75SLPC  C212 6722   4.806   6.216   8.080 -1.0822  0.0351 -0.7274
   75SLPC  H12R 6723   4.884   6.227   8.003 -0.7535 -1.5587 -0.6713
   75SLPC  C213 6724   4.825   6.110   8.165 -0.0869 -0.6667  0.0206
   75SLPC  H13R 6725   4.919   6.053   8.168 -0.1149 -0.6839  0.7495
   75SLPC  C214 6726   4.722   6.070   8.269  0.6836  0.4740 -0.1281
   75SLPC  H14R 6727   4.693   5.965   8.249  0.2450  0.7086 -0.7364
   75SLPC  H14S 6728   4.626   6.125   8.255 -1.1658 -2.1767  1.3047
   75SLPC  C215 6729   4.778   6.071   8.412  0.1087  0.6901  0.2226
   75SLPC  H15R 6730   4.703   6.028   8.482  0.5419  1.1473  0.9897
   75SLPC  H15S 6731   4.806   6.174   8.442  0.3105  0.7527 -0.1775
   75SLPC  C216 6732   4.903   5.986   8.433  0.3803  0.0183  0.5766
   75SLPC  H16R 6733   4.986   6.042   8.384  0.5545 -1.6721 -1.1573
   75SLPC  H16S 6734   4.895   5.887   8.384 -1.2369 -0.2010  1.2361
   75SLPC  C217 6735   4.941   5.970   8.578  0.8974 -0.3778 -0.7324
   75SLPC  H17R 6736   4.960   6.065   8.631  2.9126  0.8523 -3.4416
   75SLPC  H17S 6737   5.039   5.917   8.584  0.7360 -0.5190  1.9992
   75SLPC  C218 6738   4.867   5.871   8.658 -0.0919  0.6065  1.0182
   75SLPC  H18R 6739   4.855   5.766   8.624 -1.8616  1.3033 -0.7011
   75SLPC  H18S 6740   4.762   5.910   8.656  0.2980  1.7671 -2.0243
   75SLPC  H18T 6741   4.900   5.871   8.764 -0.4119  0.9778  1.1224
   75SLPC   C33 6742   4.146   6.553   6.915  0.5527 -0.4168 -0.3314
   75SLPC   H3X 6743   4.242   6.579   6.865  0.7312  1.0383  0.7088
   75SLPC   H3Y 6744   4.115   6.654   6.948  1.2939  0.4231 -2.0979
   75SLPC   C34 6745   4.159   6.460   7.041 -0.1878 -0.3786  0.3232
   75SLPC   H4X 6746   4.216   6.368   7.017 -1.0178 -1.0938  1.0180
   75SLPC   H4Y 6747   4.058   6.423   7.071 -0.0641 -1.1674 -0.2007
   75SLPC   C35 6748   4.212   6.533   7.167  0.0171  0.7962  0.0382
   75SLPC   H5X 6749   4.149   6.621   7.191 -1.5245  0.7634 -3.3281
   75SLPC   H5Y 6750   4.316   6.569   7.155  0.1312  0.5075  0.1360
   75SLPC   C36 6751   4.213   6.449   7.290  0.1980 -0.1089 -0.3116
   75SLPC   H6X 6752   4.290   6.370   7.282 -0.5218 -0.6530 -2.6808
   75SLPC   H6Y 6753   4.119   6.390   7.301 -0.0460  0.6128  2.0899
   75SLPC   C37 6754   4.223   6.538   7.420 -0.1235  0.7834  0.5425
   75SLPC   H7X 6755   4.122   6.582   7.426 -1.3680 -2.0574  2.5700
   75SLPC   H7Y 6756   4.299   6.617   7.403  0.4657  0.7063  2.5014
   75SLPC   C38 6757   4.245   6.459   7.550  0.1933  0.0258  0.1311
   75SLPC   H8X 6758   4.331   6.389   7.548 -1.1878 -1.8964  2.2882
   75SLPC   H8Y 6759   4.160   6.389   7.565  0.3606  0.1193  1.7181
   75SLPC   C39 6760   4.248   6.561   7.663  0.4672 -0.2435 -0.3215
   75SLPC   H9X 6761   4.144   6.598   7.665  0.4643 -0.0643 -2.2287
   75SLPC   H9Y 6762   4.304   6.650   7.628 -1.5891  0.9610 -0.7116
   75SLPC  C310 6763   4.298   6.508   7.801 -0.9219  0.2160  0.4049
   75SLPC  H10X 6764   4.409   6.497   7.800 -0.8667  0.7938 -0.2090
   75SLPC  H10Y 6765   4.259   6.406   7.824  0.1231 -0.2804  0.0550
   75SLPC  C311 6766   4.277   6.602   7.914 -0.8799  0.1028 -0.1558
   75SLPC  H11X 6767   4.167   6.606   7.931 -1.1832 -3.0814 -0.8664
   75SLPC  H11Y 6768   4.314   6.705   7.893 -4.6974  1.2486 -2.2522
   75SLPC  C312 6769   4.345   6.546   8.032 -0.3128 -0.5971 -0.9778
   75SLPC  H12X 6770   4.456   6.549   8.020 -0.0730 -2.8649  0.0591
   75SLPC  H12Y 6771   4.306   6.442   8.043 -1.5377 -0.0475  0.1153
   75SLPC  C313 6772   4.298   6.609   8.167 -0.6422 -0.6736  0.2565
   75SLPC  H13X 6773   4.188   6.625   8.172 -0.7017 -1.2941  1.2843
   75SLPC  H13Y 6774   4.352   6.706   8.160 -0.0126 -1.0788 -0.7986
   75SLPC  C314 6775   4.357   6.536   8.286 -0.1583  0.2812 -0.2554
   75SLPC  H14X 6776   4.369   6.605   8.372 -1.0122 -0.0819  0.1640
   75SLPC  H14Y 6777   4.455   6.501   8.248 -0.1746  2.4876 -2.5572
   75SLPC  C315 6778   4.286   6.412   8.341  0.2856 -0.5043  0.5457
   75SLPC  H15X 6779   4.297   6.350   8.250  0.0924 -1.1636  0.9656
   75SLPC  H15Y 6780   4.177   6.432   8.351  0.0495 -1.4762 -0.0284
   75SLPC  C316 6781   4.349   6.350   8.466  0.5320 -0.0158  0.6032
   75SLPC  H16X 6782   4.458   6.339   8.452  0.8660  1.5380  1.8057
   75SLPC  H16Y 6783   4.308   6.247   8.468  2.1596 -0.6637  1.4986
   75SLPC  C317 6784   4.305   6.408   8.599  0.8350 -0.1425  0.3673
   75SLPC  H17X 6785   4.198   6.433   8.580  0.9404  0.2287  0.2616
   75SLPC  H17Y 6786   4.357   6.506   8.609  0.6010  0.1414 -0.9729
   75SLPC  C318 6787   4.310   6.311   8.716 -0.3777 -0.0316  0.5416
   75SLPC  H18X 6788   4.290   6.367   8.810 -0.3527 -1.0714  1.1797
   75SLPC  H18Y 6789   4.416   6.282   8.735  0.7350  2.9973 -0.4599
   75SLPC  H18Z 6790   4.247   6.220   8.717 -0.8017  0.2599  1.6981
   76SLPC     N 6791   0.142   2.361   6.144  0.5599 -0.8497 -0.6651
   76SLPC   C13 6792   0.018   2.368   6.066  0.3904 -0.0871 -0.4310
   76SLPC  H13A 6793   0.024   2.410   5.966  0.4315  1.8966  0.3777
   76SLPC  H13B 6794  -0.013   2.264   6.062  1.5888 -0.5902  1.9382
   76SLPC  H13C 6795  -0.061   2.417   6.121  0.2310 -0.0286 -0.7095
   76SLPC   C14 6796   0.261   2.319   6.067 -0.5878 -0.0607  0.0029
   76SLPC  H14A 6797   0.283   2.391   5.990  1.0634 -0.5031  0.0397
   76SLPC  H14B 6798   0.349   2.289   6.121  0.4648  1.3437 -0.8670
   76SLPC  H14C 6799   0.229   2.226   6.020  0.3822 -0.5209  0.2353
   76SLPC   C15 6800   0.125   2.256   6.252  0.2605  0.1195  0.2753
   76SLPC  H15A 6801   0.026   2.266   6.295  0.3579 -0.8334  0.7418
   76SLPC  H15B 6802   0.112   2.159   6.208  1.0340  0.1546 -0.0375
   76SLPC  H15C 6803   0.206   2.258   6.324  0.8884  1.2039 -0.4385
   76SLPC   C12 6804   0.166   2.488   6.224  0.0915 -0.5158  0.8057
   76SLPC  H12A 6805   0.197   2.567   6.158  0.0343 -0.8997  0.3173
   76SLPC  H12B 6806   0.245   2.476   6.297  0.1221  0.2480  0.9091
   76SLPC   C11 6807   0.052   2.529   6.316 -0.1029 -0.2642 -0.3481
   76SLPC  H11A 6808   0.081   2.612   6.384 -0.4323 -0.2847 -0.1829
   76SLPC  H11B 6809   0.015   2.444   6.377 -2.0277 -0.5187 -1.7970
   76SLPC     P 6810  -0.201   2.592   6.287  0.5383 -0.0996 -0.2288
   76SLPC   O13 6811  -0.279   2.695   6.212  0.3558  0.2731 -0.1627
   76SLPC   O14 6812  -0.261   2.455   6.292 -0.4743 -0.2836 -0.6916
   76SLPC   O12 6813  -0.057   2.585   6.238 -0.4539  0.0714  0.2265
   76SLPC   O11 6814  -0.181   2.639   6.431  0.5415 -0.1069  0.3113
   76SLPC    C1 6815  -0.127   2.767   6.467 -0.0932  0.5220  0.5581
   76SLPC    HA 6816  -0.045   2.757   6.542  0.0701 -0.8348  0.2168
   76SLPC    HB 6817  -0.069   2.814   6.385 -0.1769  1.1232  0.8357
   76SLPC    C2 6818  -0.225   2.868   6.517 -0.3138  0.0977 -0.0611
   76SLPC    HS 6819  -0.278   2.899   6.425  2.3222 -1.5481 -2.2785
   76SLPC   O21 6820  -0.145   2.972   6.570  0.5385 -0.2788  0.7091
   76SLPC   C21 6821  -0.215   3.073   6.612 -0.2571 -0.5510  0.2149
   76SLPC   O22 6822  -0.335   3.081   6.613 -0.0847 -0.3795 -0.4480
   76SLPC   C22 6823  -0.125   3.172   6.676  0.0199  0.4126  0.8349
   76SLPC   H2R 6824  -0.100   3.128   6.774  1.1586  1.2445  0.9356
   76SLPC   H2S 6825  -0.036   3.199   6.614  0.0332 -0.3989  0.4904
   76SLPC    C3 6826  -0.328   2.802   6.620 -0.2534  0.5467  0.0952
   76SLPC    HX 6827  -0.358   2.710   6.566 -0.5273  1.3153 -1.0885
   76SLPC    HY 6828  -0.415   2.866   6.644 -0.6733  0.6625 -1.5879
   76SLPC   O31 6829  -0.267   2.766   6.743  0.3596  0.8296 -0.0923
   76SLPC   C31 6830  -0.294   2.653   6.805 -0.5191 -0.4769 -0.0974
   76SLPC   O32 6831  -0.384   2.576   6.780 -1.0760  0.0430  0.3621
   76SLPC   C32 6832  -0.204   2.646   6.918 -0.7606 -0.3773 -0.5875
   76SLPC   H2X 6833  -0.173   2.751   6.934  0.8752 -0.4912 -2.5716
   76SLPC   H2Y 6834  -0.110   2.588   6.910 -1.3326 -1.5281  0.6745
   76SLPC   C23 6835  -0.188   3.311   6.692  0.1858 -0.6174  0.2310
   76SLPC   H3R 6836  -0.246   3.345   6.604 -1.5300 -1.1562  1.1066
   76SLPC   H3S 6837  -0.112   3.392   6.703  0.3456 -0.7356  0.0153
   76SLPC   C24 6838  -0.257   3.324   6.826  0.4150  0.7983 -0.1753
   76SLPC   H4R 6839  -0.205   3.279   6.913 -1.0933  1.1858  0.9877
   76SLPC   H4S 6840  -0.341   3.255   6.800  0.8953  0.2606 -0.3093
   76SLPC   C25 6841  -0.315   3.466   6.861 -0.0677  0.5007  0.1079
   76SLPC   H5R 6842  -0.372   3.506   6.774  1.2358  0.1483 -0.9429
   76SLPC   H5S 6843  -0.229   3.535   6.872 -0.0708  0.4876  0.2169
   76SLPC   C26 6844  -0.399   3.486   6.994  0.1647  0.0406 -0.5646
   76SLPC   H6R 6845  -0.493   3.426   6.989  0.9710 -1.2694 -0.4250
   76SLPC   H6S 6846  -0.424   3.593   7.010  3.0630  0.4126  2.6706
   76SLPC   C27 6847  -0.323   3.429   7.118  0.7093 -0.0892 -0.0640
   76SLPC   H7R 6848  -0.221   3.474   7.123  0.6339  0.0158  0.5775
   76SLPC   H7S 6849  -0.301   3.321   7.128 -0.0088 -0.0744  2.1827
   76SLPC   C28 6850  -0.415   3.452   7.241 -0.3797 -0.0590 -0.1134
   76SLPC   H8R 6851  -0.398   3.559   7.265 -3.5578  0.1109  1.9976
   76SLPC   H8S 6852  -0.520   3.439   7.208 -0.0251  0.2053 -1.3981
   76SLPC   C29 6853  -0.380   3.370   7.361 -0.0272  0.3305  0.2602
   76SLPC   H9R 6854  -0.342   3.269   7.337 -2.0296 -0.4215  0.0319
   76SLPC  C210 6855  -0.379   3.418   7.486 -0.7450  0.1278  0.5751
   76SLPC  H10R 6856  -0.349   3.347   7.564  1.7830 -0.9868 -1.2886
   76SLPC  C211 6857  -0.410   3.551   7.550 -0.0675 -0.0477 -0.4793
   76SLPC  H11R 6858  -0.374   3.633   7.484  0.7825  0.1405  0.2032
   76SLPC  H11S 6859  -0.339   3.566   7.634  0.6103  0.7885 -1.1802
   76SLPC  C212 6860  -0.560   3.567   7.577 -0.6125 -0.2067 -0.2433
   76SLPC  H12R 6861  -0.626   3.508   7.511  0.5577  0.0773 -1.7316
   76SLPC  C213 6862  -0.611   3.643   7.680 -0.6021  0.2465 -0.4490
   76SLPC  H13R 6863  -0.718   3.629   7.698 -1.1805  3.1238 -1.1345
   76SLPC  C214 6864  -0.533   3.732   7.772  0.1271  0.1600 -0.2062
   76SLPC  H14R 6865  -0.592   3.827   7.775  1.7180  1.1647  0.7500
   76SLPC  H14S 6866  -0.437   3.762   7.724 -0.2762 -0.3115 -1.3423
   76SLPC  C215 6867  -0.522   3.690   7.918  0.2637 -0.2811  1.2261
   76SLPC  H15R 6868  -0.621   3.668   7.965 -0.4936 -0.6195 -0.4430
   76SLPC  H15S 6869  -0.484   3.784   7.963 -0.0494  0.5374 -0.1596
   76SLPC  C216 6870  -0.427   3.573   7.937  0.6504 -0.2355  0.2096
   76SLPC  H16R 6871  -0.321   3.604   7.926 -0.2103  2.9223 -0.0335
   76SLPC  H16S 6872  -0.454   3.494   7.864  0.0007  1.0618 -0.9907
   76SLPC  C217 6873  -0.437   3.506   8.072  0.2147  0.3338 -0.0939
   76SLPC  H17R 6874  -0.538   3.467   8.099  1.2508 -2.1857  0.4337
   76SLPC  H17S 6875  -0.416   3.594   8.136 -0.8251  1.3101 -1.0440
   76SLPC  C218 6876  -0.339   3.392   8.095 -0.7926 -0.0222 -0.8628
   76SLPC  H18R 6877  -0.347   3.303   8.028 -1.4431  0.5985 -1.6392
   76SLPC  H18S 6878  -0.363   3.343   8.192  0.2816 -0.2919 -0.7297
   76SLPC  H18T 6879  -0.234   3.427   8.097 -0.6483 -0.4473 -0.8508
   76SLPC   C33 6880  -0.273   2.580   7.046 -0.0756  0.1115 -0.3045
   76SLPC   H3X 6881  -0.306   2.479   7.016 -1.3033  0.5412 -0.4704
   76SLPC   H3Y 6882  -0.363   2.644   7.061  2.0460  2.8888  1.8886
   76SLPC   C34 6883  -0.190   2.572   7.171  0.5316  0.1949 -0.4666
   76SLPC   H4X 6884  -0.139   2.668   7.192 -0.2732  0.2918  1.2248
   76SLPC   H4Y 6885  -0.107   2.500   7.161  1.4315  0.5119  3.3513
   76SLPC   C35 6886  -0.279   2.550   7.295 -0.2361  0.4242 -1.4827
   76SLPC   H5X 6887  -0.333   2.454   7.284  0.5017 -0.5300  1.9645
   76SLPC   H5Y 6888  -0.355   2.631   7.294  0.6293  1.3098 -0.4621
   76SLPC   C36 6889  -0.210   2.555   7.427  0.0249 -0.4035  0.0750
   76SLPC   H6X 6890  -0.150   2.648   7.431 -1.5647  0.6127  2.3179
   76SLPC   H6Y 6891  -0.140   2.470   7.445 -0.2876 -0.4257  1.2623
   76SLPC   C37 6892  -0.310   2.552   7.541 -0.7174  0.1351  0.2066
   76SLPC   H7X 6893  -0.384   2.475   7.512 -0.4183 -0.7532  1.6954
   76SLPC   H7Y 6894  -0.363   2.648   7.560 -2.4260 -0.1601 -2.5517
   76SLPC   C38 6895  -0.241   2.515   7.671  0.1038 -0.0278 -0.2726
   76SLPC   H8X 6896  -0.148   2.575   7.677  0.4686 -0.4898 -1.2411
   76SLPC   H8Y 6897  -0.203   2.413   7.654  3.1537  1.5421 -4.4886
   76SLPC   C39 6898  -0.327   2.550   7.798 -0.3561 -0.9861 -0.0461
   76SLPC   H9X 6899  -0.432   2.516   7.787 -0.9460  1.2976 -2.4230
   76SLPC   H9Y 6900  -0.325   2.661   7.793  2.3884 -1.0230 -2.0927
   76SLPC  C310 6901  -0.258   2.503   7.924 -0.2884  0.3269 -0.2789
   76SLPC  H10X 6902  -0.169   2.568   7.940  1.5395 -2.3642  1.4330
   76SLPC  H10Y 6903  -0.225   2.398   7.913  0.3869 -0.0815  4.0780
   76SLPC  C311 6904  -0.343   2.521   8.046 -0.2629  0.5058 -0.2290
   76SLPC  H11X 6905  -0.411   2.609   8.047 -2.1504 -0.8918 -0.4212
   76SLPC  H11Y 6906  -0.271   2.527   8.130 -1.1894  0.7366  0.5733
   76SLPC  C312 6907  -0.415   2.381   8.060  0.1479  0.2937  0.1369
   76SLPC  H12X 6908  -0.335   2.306   8.075  0.3828  0.1439 -1.5932
   76SLPC  H12Y 6909  -0.458   2.354   7.961  1.4137 -0.0524 -0.3391
   76SLPC  C313 6910  -0.517   2.364   8.173  0.4502 -0.4997  0.6208
   76SLPC  H13X 6911  -0.557   2.260   8.185  0.9760 -0.7804 -0.0073
   76SLPC  H13Y 6912  -0.599   2.434   8.147 -0.0231 -1.3302 -0.2064
   76SLPC  C314 6913  -0.462   2.423   8.305 -0.0847  0.7540  0.0335
   76SLPC  H14X 6914  -0.546   2.419   8.378 -0.8600  1.5896 -0.7879
   76SLPC  H14Y 6915  -0.437   2.528   8.276  4.3344 -0.7508 -2.6480
   76SLPC  C315 6916  -0.342   2.356   8.370 -0.0513 -0.1244 -0.1039
   76SLPC  H15X 6917  -0.275   2.425   8.427  2.1919 -4.5578  3.2404
   76SLPC  H15Y 6918  -0.285   2.304   8.290 -0.1129 -0.7583  0.2596
   76SLPC  C316 6919  -0.387   2.241   8.463 -0.1740 -0.2802  0.4432
   76SLPC  H16X 6920  -0.451   2.166   8.412 -1.1859  0.7541  0.1530
   76SLPC  H16Y 6921  -0.456   2.284   8.539  0.7041 -3.2312  3.1290
   76SLPC  C317 6922  -0.276   2.167   8.531 -0.0358  0.9879 -0.1237
   76SLPC  H17X 6923  -0.192   2.140   8.462 -1.6672 -1.9498 -1.1390
   76SLPC  H17Y 6924  -0.315   2.066   8.556 -0.4268  1.3971  0.9701
   76SLPC  C318 6925  -0.232   2.232   8.657 -0.4012 -0.3267  0.0457
   76SLPC  H18X 6926  -0.311   2.238   8.734 -0.2803 -4.2476  0.6562
   76SLPC  H18Y 6927  -0.203   2.336   8.631  2.5706 -1.5777 -2.2321
   76SLPC  H18Z 6928  -0.147   2.181   8.707  0.8301 -1.6411 -3.0704
   77SLPC     N 6929   2.178   0.323   6.080 -0.5528  0.4178 -0.3701
   77SLPC   C13 6930   2.146   0.228   5.963 -0.9063 -0.6238  1.1108
   77SLPC  H13A 6931   2.216   0.147   5.953 -0.6488 -0.2140 -0.9556
   77SLPC  H13B 6932   2.050   0.181   5.980 -1.4331  0.0672  0.2146
   77SLPC  H13C 6933   2.144   0.271   5.864 -0.7538 -2.8523  0.0844
   77SLPC   C14 6934   2.065   0.422   6.100 -0.2905  0.1527  0.6947
   77SLPC  H14A 6935   2.070   0.483   6.189 -0.9478  1.2752 -0.0165
   77SLPC  H14B 6936   2.062   0.480   6.010 -1.3611 -1.6169 -0.4784
   77SLPC  H14C 6937   1.969   0.373   6.105  0.4046 -1.5321 -1.0429
   77SLPC   C15 6938   2.300   0.401   6.047 -0.0498  0.0646  0.0182
   77SLPC  H15A 6939   2.274   0.467   5.965 -1.1095 -0.8672 -0.4233
   77SLPC  H15B 6940   2.339   0.458   6.130 -1.8670  1.0747  0.2466
   77SLPC  H15C 6941   2.384   0.341   6.017 -1.0595 -1.3709 -0.0471
   77SLPC   C12 6942   2.193   0.231   6.203  1.1009 -0.6601  0.2093
   77SLPC  H12A 6943   2.279   0.170   6.180  1.5343 -0.4415  1.1866
   77SLPC  H12B 6944   2.110   0.162   6.204  1.0018 -0.6086 -1.6383
   77SLPC   C11 6945   2.218   0.293   6.337  0.6826  0.6272  0.7163
   77SLPC  H11A 6946   2.188   0.209   6.404  0.2301 -0.5871 -0.9159
   77SLPC  H11B 6947   2.155   0.376   6.375 -1.3671  0.2384 -1.5613
   77SLPC     P 6948   2.428   0.430   6.411 -0.3050 -0.1004 -0.0379
   77SLPC   O13 6949   2.562   0.393   6.454  0.1631 -0.2690 -0.0026
   77SLPC   O14 6950   2.410   0.525   6.302  0.1454  0.0943 -0.3696
   77SLPC   O12 6951   2.359   0.300   6.364  0.9939 -0.4702 -0.4169
   77SLPC   O11 6952   2.343   0.482   6.534 -0.3339 -0.7367  0.1766
   77SLPC    C1 6953   2.319   0.393   6.640 -0.4252  0.5342  0.4192
   77SLPC    HA 6954   2.215   0.355   6.628  1.1504 -3.6747 -2.3918
   77SLPC    HB 6955   2.391   0.309   6.644 -1.2111 -0.1555  0.4614
   77SLPC    C2 6956   2.337   0.456   6.779  0.6493 -0.2901  0.7043
   77SLPC    HS 6957   2.336   0.371   6.851 -3.0549  0.1485  1.3441
   77SLPC   O21 6958   2.222   0.544   6.804  0.5753  0.1647  0.0370
   77SLPC   C21 6959   2.136   0.500   6.881 -0.2149 -0.1363 -0.4705
   77SLPC   O22 6960   2.127   0.388   6.930 -0.3605 -0.0149 -0.0503
   77SLPC   C22 6961   2.037   0.617   6.886  0.1129  0.3294  0.1870
   77SLPC   H2R 6962   2.083   0.709   6.926  0.0509  0.1786  0.6098
   77SLPC   H2S 6963   2.002   0.653   6.787 -1.2900 -0.3840  0.3988
   77SLPC    C3 6964   2.477   0.534   6.791 -0.1895 -0.4748 -0.0296
   77SLPC    HX 6965   2.440   0.634   6.760 -2.6234 -1.9648 -2.3603
   77SLPC    HY 6966   2.556   0.498   6.721  1.6778  1.6842  0.8641
   77SLPC   O31 6967   2.521   0.543   6.937  0.0079 -0.3889  0.2965
   77SLPC   C31 6968   2.550   0.662   6.984 -0.2583 -0.9222  0.5733
   77SLPC   O32 6969   2.568   0.762   6.913  0.1675 -0.9250 -0.5371
   77SLPC   C32 6970   2.542   0.675   7.138 -0.0423 -0.2940  0.3122
   77SLPC   H2X 6971   2.611   0.757   7.167 -0.3705 -0.8351  2.8349
   77SLPC   H2Y 6972   2.575   0.581   7.187  2.6987 -0.4047 -1.5532
   77SLPC   C23 6973   1.913   0.593   6.978 -0.5469  0.1900 -0.2266
   77SLPC   H3R 6974   1.871   0.497   6.940  0.8886 -0.2199 -0.8473
   77SLPC   H3S 6975   1.847   0.679   6.956 -1.4221 -0.4929 -0.3227
   77SLPC   C24 6976   1.950   0.596   7.131 -0.8794  0.3070  0.2756
   77SLPC   H4R 6977   1.980   0.702   7.147 -3.1593  1.4481 -2.1656
   77SLPC   H4S 6978   2.040   0.536   7.153 -0.0986  1.1614 -0.4996
   77SLPC   C25 6979   1.834   0.567   7.224 -0.5536 -0.5125  0.1268
   77SLPC   H5R 6980   1.784   0.471   7.200 -2.1205  0.0327  1.0502
   77SLPC   H5S 6981   1.765   0.651   7.201 -0.6869 -0.5360  0.4412
   77SLPC   C26 6982   1.869   0.578   7.377  0.3963 -0.1854 -0.4655
   77SLPC   H6R 6983   1.922   0.670   7.411  1.1107 -1.2155  1.3496
   77SLPC   H6S 6984   1.941   0.495   7.394  0.3576 -0.5426 -1.8836
   77SLPC   C27 6985   1.745   0.549   7.464  0.0777 -0.0112  0.7748
   77SLPC   H7R 6986   1.687   0.476   7.404  0.0364  0.6224  0.0164
   77SLPC   H7S 6987   1.683   0.641   7.472 -0.1473 -0.3047  3.0578
   77SLPC   C28 6988   1.778   0.499   7.603  0.2904  0.2435 -0.2301
   77SLPC   H8R 6989   1.870   0.436   7.596  0.1706 -0.1440  1.3484
   77SLPC   H8S 6990   1.694   0.443   7.648  0.4016 -0.8820 -1.3689
   77SLPC   C29 6991   1.819   0.623   7.684 -0.1308  0.3499  0.0663
   77SLPC   H9R 6992   1.789   0.726   7.660 -0.0800  0.6068  1.0569
   77SLPC  C210 6993   1.891   0.623   7.800  0.3709 -0.2169 -0.4989
   77SLPC  H10R 6994   1.919   0.721   7.840  3.9853 -0.8638 -1.1103
   77SLPC  C211 6995   1.954   0.509   7.875  0.4765 -0.2405 -0.5480
   77SLPC  H11R 6996   2.042   0.478   7.814  1.0759 -0.3722  0.3496
   77SLPC  H11S 6997   1.894   0.416   7.883 -0.4759  0.4397  0.3888
   77SLPC  C212 6998   2.016   0.542   8.012  0.3098  0.1530 -0.1259
   77SLPC  H12R 6999   2.000   0.644   8.049  1.5009  0.0305  0.7861
   77SLPC  C213 7000   2.103   0.470   8.084 -0.0945  0.0972 -0.8590
   77SLPC  H13R 7001   2.139   0.499   8.184  0.5598  0.4562 -1.1961
   77SLPC  C214 7002   2.153   0.333   8.037  0.0663 -0.0416 -0.3582
   77SLPC  H14R 7003   2.260   0.331   8.006  0.1786 -3.2604 -0.0604
   77SLPC  H14S 7004   2.097   0.307   7.945  0.3571 -0.9104 -0.2970
   77SLPC  C215 7005   2.131   0.216   8.134 -0.7012 -0.0002 -0.2653
   77SLPC  H15R 7006   2.167   0.126   8.079  0.1001 -1.2983  2.2265
   77SLPC  H15S 7007   2.021   0.208   8.148 -0.7750  0.5353 -0.4997
   77SLPC  C216 7008   2.205   0.230   8.265 -0.1494  0.1337  0.3439
   77SLPC  H16R 7009   2.131   0.273   8.337 -3.0496 -1.5120 -1.4362
   77SLPC  H16S 7010   2.288   0.301   8.245 -1.8824  1.9843 -0.6822
   77SLPC  C217 7011   2.258   0.095   8.317 -0.8170  0.2998  0.2024
   77SLPC  H17R 7012   2.330   0.104   8.401  1.8156 -3.3970 -1.4067
   77SLPC  H17S 7013   2.297   0.041   8.228 -0.9079 -0.1135  0.4097
   77SLPC  C218 7014   2.145   0.000   8.374  0.2490  0.6211  0.3844
   77SLPC  H18R 7015   2.193  -0.096   8.403  3.1430  1.2223 -1.9366
   77SLPC  H18S 7016   2.076  -0.011   8.288  1.9423  1.9114 -1.2251
   77SLPC  H18T 7017   2.086   0.040   8.459 -2.0313 -0.1909 -0.7467
   77SLPC   C33 7018   2.407   0.728   7.190 -0.0976  0.4486  0.3039
   77SLPC   H3X 7019   2.396   0.706   7.298 -2.9282  0.4446  0.0904
   77SLPC   H3Y 7020   2.322   0.680   7.137 -0.8238  2.2157 -0.1991
   77SLPC   C34 7021   2.389   0.881   7.164 -0.8999  0.4722  0.2576
   77SLPC   H4X 7022   2.381   0.897   7.054 -0.5154  1.8829  0.4024
   77SLPC   H4Y 7023   2.478   0.927   7.213  1.3884 -2.0377 -1.2775
   77SLPC   C35 7024   2.258   0.943   7.212 -0.2182 -0.1731  0.4173
   77SLPC   H5X 7025   2.180   0.865   7.228  1.2945 -2.2862 -1.7554
   77SLPC   H5Y 7026   2.223   1.014   7.135  1.5025 -2.8412 -3.1346
   77SLPC   C36 7027   2.287   1.016   7.341  0.1648 -0.8780 -0.3494
   77SLPC   H6X 7028   2.368   1.088   7.315  0.7783 -1.1882  0.6428
   77SLPC   H6Y 7029   2.331   0.940   7.409  0.8872 -0.7177 -0.6285
   77SLPC   C37 7030   2.160   1.082   7.389 -0.8822 -0.1139 -0.6795
   77SLPC   H7X 7031   2.079   1.005   7.388  1.1634 -2.4624  1.0981
   77SLPC   H7Y 7032   2.130   1.167   7.325 -0.3881  1.9863  1.7406
   77SLPC   C38 7033   2.169   1.131   7.538 -0.0521  0.4911  0.5297
   77SLPC   H8X 7034   2.252   1.204   7.544  2.1889 -1.8768  0.2481
   77SLPC   H8Y 7035   2.198   1.037   7.591 -0.0457  0.7553  0.9940
   77SLPC   C39 7036   2.040   1.177   7.603 -0.0289 -0.7016  0.5206
   77SLPC   H9X 7037   1.998   1.269   7.557  1.4900  1.0736  2.4796
   77SLPC   H9Y 7038   2.069   1.216   7.703  0.4304 -0.8171  0.4325
   77SLPC  C310 7039   1.922   1.072   7.619 -0.1550 -0.4250  0.3338
   77SLPC  H10X 7040   1.971   0.985   7.669 -2.6726 -1.7848  0.6360
   77SLPC  H10Y 7041   1.885   1.044   7.518  0.5047  0.5240 -0.1846
   77SLPC  C311 7042   1.804   1.116   7.709  0.0302 -0.4114  0.3415
   77SLPC  H11X 7043   1.739   1.028   7.727  1.3089 -1.3950  0.3107
   77SLPC  H11Y 7044   1.745   1.187   7.648 -1.9924 -1.8587  0.4907
   77SLPC  C312 7045   1.837   1.175   7.843 -0.0183  0.0744 -0.2627
   77SLPC  H12X 7046   1.898   1.267   7.826 -2.2816  1.1952 -3.2707
   77SLPC  H12Y 7047   1.912   1.103   7.882  0.1265 -1.2582 -2.7969
   77SLPC  C313 7048   1.719   1.224   7.935  0.5561 -0.1671  0.3569
   77SLPC  H13X 7049   1.658   1.131   7.948 -0.4578  0.6259  1.5522
   77SLPC  H13Y 7050   1.658   1.305   7.890 -0.5363 -0.3211  1.5050
   77SLPC  C314 7051   1.759   1.252   8.076 -0.6065 -0.1633 -0.5428
   77SLPC  H14X 7052   1.823   1.343   8.073  0.6619 -0.8319  2.5391
   77SLPC  H14Y 7053   1.814   1.173   8.131  1.1074  2.2907  1.5178
   77SLPC  C315 7054   1.641   1.286   8.173 -0.1130  0.9178  0.7242
   77SLPC  H15X 7055   1.574   1.198   8.184  0.5231  0.2542 -0.5308
   77SLPC  H15Y 7056   1.577   1.362   8.125 -0.3346  0.0585 -0.3854
   77SLPC  C316 7057   1.685   1.320   8.318 -0.2305  0.5082 -1.1802
   77SLPC  H16X 7058   1.758   1.402   8.306  0.6452 -0.0603  0.0506
   77SLPC  H16Y 7059   1.744   1.236   8.360 -0.0766  1.1176 -0.1423
   77SLPC  C317 7060   1.565   1.354   8.409 -0.3788  0.2578  0.4175
   77SLPC  H17X 7061   1.512   1.442   8.366 -0.8835  0.3621  1.2392
   77SLPC  H17Y 7062   1.600   1.398   8.505 -2.8294  1.7604  0.7068
   77SLPC  C318 7063   1.471   1.238   8.455  0.4666  0.3641  0.6020
   77SLPC  H18X 7064   1.522   1.141   8.472  0.8280  0.7413  1.8051
   77SLPC  H18Y 7065   1.397   1.231   8.373  0.7636  0.2235  0.3440
   77SLPC  H18Z 7066   1.423   1.279   8.546 -0.3263  2.0002 -0.5062
   78SLPC     N 7067   2.600   4.211   6.174  0.6496  1.2049 -0.6740
   78SLPC   C13 7068   2.580   4.061   6.183  0.0335  0.0498  0.5403
   78SLPC  H13A 7069   2.564   4.015   6.086  2.9128 -3.6062  1.5607
   78SLPC  H13B 7070   2.658   4.013   6.239 -0.3689 -0.4345  0.6980
   78SLPC  H13C 7071   2.498   4.036   6.249 -0.6117  0.0206 -0.2501
   78SLPC   C14 7072   2.470   4.271   6.118 -0.1400  0.0635  0.2165
   78SLPC  H14A 7073   2.448   4.249   6.015  1.1227 -0.0140 -0.0531
   78SLPC  H14B 7074   2.397   4.223   6.182  1.7581 -1.0353  1.6831
   78SLPC  H14C 7075   2.466   4.378   6.131 -1.8677 -0.1386  1.6730
   78SLPC   C15 7076   2.707   4.236   6.078 -0.0688  0.2233  0.1125
   78SLPC  H15A 7077   2.674   4.240   5.975 -1.4919 -0.6545  0.4985
   78SLPC  H15B 7078   2.752   4.332   6.099  1.2937 -0.6770  1.4652
   78SLPC  H15C 7079   2.775   4.153   6.075 -0.8024 -0.6852  3.7257
   78SLPC   C12 7080   2.632   4.267   6.316 -0.5955  0.0118  0.1982
   78SLPC  H12A 7081   2.716   4.209   6.351  0.6926  2.3010  1.1448
   78SLPC  H12B 7082   2.554   4.244   6.387  0.2476 -0.2052  1.0902
   78SLPC   C11 7083   2.667   4.421   6.340  0.0225  0.3325 -0.2972
   78SLPC  H11A 7084   2.665   4.434   6.450 -0.5183 -1.7210 -0.0162
   78SLPC  H11B 7085   2.577   4.463   6.290 -0.4668 -0.7302 -0.3519
   78SLPC     P 7086   2.930   4.436   6.353  0.3688  0.2997 -0.0765
   78SLPC   O13 7087   3.005   4.341   6.265 -0.0114  0.2376 -0.5391
   78SLPC   O14 7088   2.986   4.571   6.374  0.2489 -0.5459 -0.1437
   78SLPC   O12 7089   2.790   4.461   6.283  0.1200 -0.1545  0.3554
   78SLPC   O11 7090   2.887   4.364   6.492 -0.4131  0.3303  0.7505
   78SLPC    C1 7091   2.859   4.437   6.607  0.0323 -0.1906  0.7588
   78SLPC    HA 7092   2.854   4.547   6.593  2.5299 -0.2980 -1.5984
   78SLPC    HB 7093   2.755   4.407   6.635  0.5627 -1.2531  1.6628
   78SLPC    C2 7094   2.954   4.399   6.721 -0.3952 -0.1682  0.0261
   78SLPC    HS 7095   2.925   4.295   6.749 -1.8325  0.4547  0.9773
   78SLPC   O21 7096   2.944   4.488   6.829  0.0370  0.2743  0.3629
   78SLPC   C21 7097   2.840   4.469   6.919  0.1145  0.0195 -0.4724
   78SLPC   O22 7098   2.756   4.384   6.905  0.3807 -0.2412  0.0897
   78SLPC   C22 7099   2.832   4.571   7.036 -0.2620 -0.0456 -0.5320
   78SLPC   H2R 7100   2.925   4.553   7.094 -0.2372 -0.6715 -0.7649
   78SLPC   H2S 7101   2.832   4.675   6.998 -1.5586 -0.4931 -1.8929
   78SLPC    C3 7102   3.101   4.395   6.684 -0.0626 -0.0761 -0.1883
   78SLPC    HX 7103   3.130   4.498   6.654 -2.2066  1.0007  1.1829
   78SLPC    HY 7104   3.114   4.339   6.589 -0.1448 -1.1711  0.4206
   78SLPC   O31 7105   3.180   4.348   6.798 -0.2748 -0.1151  0.0767
   78SLPC   C31 7106   3.199   4.223   6.810  0.1019 -0.4423 -0.2917
   78SLPC   O32 7107   3.152   4.139   6.738  0.1462 -0.1698  0.1846
   78SLPC   C32 7108   3.287   4.190   6.929 -0.2596  0.2284  0.4025
   78SLPC   H2X 7109   3.355   4.278   6.939 -0.9646  1.1245 -1.9493
   78SLPC   H2Y 7110   3.350   4.104   6.897 -1.1651  0.3315 -1.8328
   78SLPC   C23 7111   2.697   4.530   7.110  0.9371 -0.6467 -0.3032
   78SLPC   H3R 7112   2.686   4.420   7.122  0.2583 -0.4878  0.6058
   78SLPC   H3S 7113   2.610   4.566   7.052  0.7946 -2.0009 -0.9756
   78SLPC   C24 7114   2.682   4.596   7.254  0.4260  0.1037  0.3657
   78SLPC   H4R 7115   2.672   4.707   7.247  1.2137  0.3249  2.2209
   78SLPC   H4S 7116   2.771   4.574   7.317  1.3283 -1.9961 -1.4849
   78SLPC   C25 7117   2.558   4.532   7.324 -0.1869 -0.1585  0.1151
   78SLPC   H5R 7118   2.547   4.425   7.295  1.5230 -0.5733  0.8608
   78SLPC   H5S 7119   2.476   4.599   7.291  0.4574  0.4810 -0.2358
   78SLPC   C26 7120   2.566   4.543   7.478 -0.3016 -0.0845  0.7614
   78SLPC   H6R 7121   2.597   4.641   7.520  0.7329  0.3212 -0.8473
   78SLPC   H6S 7122   2.659   4.484   7.492  0.9922  1.8764  0.7122
   78SLPC   C27 7123   2.444   4.484   7.554  1.1110  0.6142 -0.0118
   78SLPC   H7R 7124   2.447   4.373   7.560 -0.9942  0.5666  1.2428
   78SLPC   H7S 7125   2.358   4.517   7.491  1.3357  2.7154  0.7031
   78SLPC   C28 7126   2.439   4.547   7.695  0.1150 -0.2347 -0.6054
   78SLPC   H8R 7127   2.352   4.502   7.747  0.6546 -2.7550 -1.7523
   78SLPC   H8S 7128   2.440   4.658   7.685  4.3201  0.0718  1.1892
   78SLPC   C29 7129   2.564   4.499   7.777  0.8617  0.2170  0.2847
   78SLPC   H9R 7130   2.656   4.482   7.718  0.1437  1.5642 -1.3008
   78SLPC  C210 7131   2.567   4.465   7.910 -0.3511  0.1480 -0.0069
   78SLPC  H10R 7132   2.655   4.413   7.949  0.7765  2.0598  0.1397
   78SLPC  C211 7133   2.449   4.479   8.010 -0.0003 -0.4273 -0.4185
   78SLPC  H11R 7134   2.373   4.399   8.001 -1.2745  0.8696 -1.8013
   78SLPC  H11S 7135   2.394   4.574   7.993  0.1710 -0.0371  1.0556
   78SLPC  C212 7136   2.503   4.485   8.150 -0.0427 -0.4483 -0.1365
   78SLPC  H12R 7137   2.604   4.525   8.167 -0.6400  0.6727  0.9299
   78SLPC  C213 7138   2.434   4.447   8.266 -0.0367 -0.1954 -0.5324
   78SLPC  H13R 7139   2.481   4.451   8.365 -0.6249  2.5469 -0.2840
   78SLPC  C214 7140   2.291   4.396   8.268 -0.0871 -0.8053 -0.0211
   78SLPC  H14R 7141   2.260   4.375   8.163  2.6228  0.9807 -1.3150
   78SLPC  H14S 7142   2.222   4.473   8.308  0.7417  0.5713 -1.1100
   78SLPC  C215 7143   2.293   4.264   8.338  0.3617 -0.4443 -0.9226
   78SLPC  H15R 7144   2.384   4.208   8.307 -0.2224 -1.5470 -0.7122
   78SLPC  H15S 7145   2.204   4.208   8.303 -1.0555  1.5724 -0.7018
   78SLPC  C216 7146   2.296   4.274   8.488 -0.3438 -0.2463 -0.4132
   78SLPC  H16R 7147   2.204   4.315   8.536  0.0770  1.9615 -1.4127
   78SLPC  H16S 7148   2.374   4.346   8.518 -1.4029  0.7786 -0.0420
   78SLPC  C217 7149   2.320   4.145   8.560 -0.0545  0.3444  0.9100
   78SLPC  H17R 7150   2.411   4.090   8.528  0.1506  0.1404  1.7992
   78SLPC  H17S 7151   2.233   4.078   8.540 -0.3269  0.8715  0.3197
   78SLPC  C218 7152   2.323   4.164   8.713  0.4243  0.2064  0.1861
   78SLPC  H18R 7153   2.239   4.107   8.759  2.2742 -2.1149  0.9130
   78SLPC  H18S 7154   2.306   4.270   8.743 -1.8109 -0.0736  0.0874
   78SLPC  H18T 7155   2.413   4.111   8.751  0.7662  0.4765 -0.2406
   78SLPC   C33 7156   3.220   4.160   7.064 -0.2972 -1.3212  0.4543
   78SLPC   H3X 7157   3.301   4.194   7.131 -0.4968 -1.6343  0.8638
   78SLPC   H3Y 7158   3.200   4.052   7.084 -0.4761 -1.3102  0.3441
   78SLPC   C34 7159   3.088   4.247   7.084 -0.0134 -0.0773  0.3418
   78SLPC   H4X 7160   3.006   4.221   7.015  0.0034 -0.7641  0.5714
   78SLPC   H4Y 7161   3.105   4.356   7.074  0.7550 -0.2501 -0.4558
   78SLPC   C35 7162   3.038   4.237   7.233 -0.6857  0.1926  0.2653
   78SLPC   H5X 7163   3.120   4.286   7.289 -1.0619 -0.0234  1.0142
   78SLPC   H5Y 7164   3.034   4.127   7.250 -1.6683  0.2779  0.6768
   78SLPC   C36 7165   2.907   4.303   7.265  0.5583 -0.7702  0.0004
   78SLPC   H6X 7166   2.828   4.271   7.194 -1.4209  0.3130  1.5915
   78SLPC   H6Y 7167   2.919   4.413   7.250  1.1300 -1.0490 -1.8023
   78SLPC   C37 7168   2.852   4.255   7.409  0.6955 -0.1721 -0.1487
   78SLPC   H7X 7169   2.890   4.150   7.411  0.8482 -0.1403 -1.0029
   78SLPC   H7Y 7170   2.741   4.260   7.410  0.7033  0.6041 -1.2307
   78SLPC   C38 7171   2.923   4.325   7.526  0.2808  0.2778  0.2723
   78SLPC   H8X 7172   2.885   4.428   7.538  1.5184  0.6589  1.0928
   78SLPC   H8Y 7173   3.032   4.336   7.509  0.3735  1.2122  1.3623
   78SLPC   C39 7174   2.902   4.248   7.658  0.3454 -0.3586  0.1673
   78SLPC   H9X 7175   2.973   4.163   7.645  1.2614  0.1840  1.3758
   78SLPC   H9Y 7176   2.794   4.229   7.673  0.2102  0.9131  0.9391
   78SLPC  C310 7177   2.951   4.322   7.783 -0.1640 -0.3601 -0.7551
   78SLPC  H10X 7178   2.885   4.410   7.798  0.8864  0.2284  0.7619
   78SLPC  H10Y 7179   3.054   4.359   7.762  0.1716 -0.9652 -0.2067
   78SLPC  C311 7180   2.938   4.234   7.906 -0.1502  0.7167 -0.1673
   78SLPC  H11X 7181   2.968   4.134   7.869 -0.3570  0.9279 -0.9150
   78SLPC  H11Y 7182   2.834   4.221   7.944 -0.7835  0.0477 -2.0676
   78SLPC  C312 7183   3.037   4.277   8.020  0.4385  0.2551 -0.0648
   78SLPC  H12X 7184   3.017   4.379   8.058  0.9855  0.8108 -1.2074
   78SLPC  H12Y 7185   3.137   4.277   7.972  0.2146  2.8683 -0.6896
   78SLPC  C313 7186   3.053   4.185   8.137  0.3087 -0.0156  0.3117
   78SLPC  H13X 7187   3.074   4.077   8.124 -0.2675 -0.5197  2.9705
   78SLPC  H13Y 7188   2.952   4.184   8.183  0.3716  1.5459  0.5495
   78SLPC  C314 7189   3.136   4.248   8.256  0.0860  0.3656  0.4267
   78SLPC  H14X 7190   3.095   4.349   8.279 -2.7134 -0.0340 -2.2529
   78SLPC  H14Y 7191   3.245   4.250   8.235  0.2462 -0.4959  1.0955
   78SLPC  C315 7192   3.121   4.168   8.387 -0.3531 -0.0364 -0.1976
   78SLPC  H15X 7193   3.098   4.063   8.360 -1.2918 -0.2228  1.2192
   78SLPC  H15Y 7194   3.036   4.199   8.452  0.6764  1.5445  0.4453
   78SLPC  C316 7195   3.256   4.167   8.471 -0.5097 -0.0229  0.1433
   78SLPC  H16X 7196   3.297   4.268   8.490 -0.1587 -0.1904  0.2877
   78SLPC  H16Y 7197   3.330   4.127   8.397  1.5026  2.3126  0.7634
   78SLPC  C317 7198   3.258   4.084   8.594  0.2061 -0.1862  0.3265
   78SLPC  H17X 7199   3.176   4.133   8.652 -0.4282  0.8686 -1.3785
   78SLPC  H17Y 7200   3.356   4.087   8.647  1.1334 -0.4164 -1.3155
   78SLPC  C318 7201   3.213   3.939   8.562 -0.1110  0.0341 -0.2544
   78SLPC  H18X 7202   3.279   3.878   8.496  0.3130  0.0094  0.1842
   78SLPC  H18Y 7203   3.114   3.946   8.512 -1.0158  0.7734  1.5668
   78SLPC  H18Z 7204   3.206   3.882   8.657 -0.6629  2.0683  0.9667
   79SLPC     N 7205   0.331   6.724   5.844 -0.0623  0.0334  0.3135
   79SLPC   C13 7206   0.182   6.735   5.840  0.0201 -0.1396  0.1074
   79SLPC  H13A 7207   0.144   6.797   5.921 -0.9580  0.5044 -0.8040
   79SLPC  H13B 7208   0.159   6.772   5.741  2.6824  0.2374 -0.4511
   79SLPC  H13C 7209   0.144   6.637   5.862  0.3845 -0.1601  0.6720
   79SLPC   C14 7210   0.398   6.859   5.872  0.2803  0.7319  0.7902
   79SLPC  H14A 7211   0.358   6.938   5.810  0.7932 -2.0475 -3.4820
   79SLPC  H14B 7212   0.380   6.892   5.973  0.1228 -0.3207  1.1261
   79SLPC  H14C 7213   0.502   6.851   5.846  0.1986  0.3660  0.5583
   79SLPC   C15 7214   0.365   6.679   5.704  0.0816 -0.2017 -0.5243
   79SLPC  H15A 7215   0.358   6.756   5.628 -2.5195  1.2804  1.0559
   79SLPC  H15B 7216   0.465   6.641   5.693  0.1202 -0.2955  0.1162
   79SLPC  H15C 7217   0.297   6.600   5.677  2.2415 -1.6507 -2.0449
   79SLPC   C12 7218   0.371   6.626   5.954  0.3538 -0.2503 -0.3813
   79SLPC  H12A 7219   0.366   6.663   6.056  1.8080  0.9214 -0.7034
   79SLPC  H12B 7220   0.475   6.601   5.940  0.4441 -0.1551  0.0996
   79SLPC   C11 7221   0.308   6.486   5.944  1.6277  0.0248 -0.5709
   79SLPC  H11A 7222   0.378   6.416   5.994  1.8204  0.0274 -0.8357
   79SLPC  H11B 7223   0.310   6.451   5.838  1.9266 -0.0463 -0.5418
   79SLPC     P 7224   0.139   6.479   6.140  0.4363 -0.2919 -0.4827
   79SLPC   O13 7225  -0.011   6.495   6.151 -0.0434 -0.5779  0.4566
   79SLPC   O14 7226   0.196   6.358   6.203 -0.3015  0.3126 -0.1729
   79SLPC   O12 7227   0.176   6.479   5.986 -0.2302  0.3281  0.1463
   79SLPC   O11 7228   0.217   6.609   6.186 -0.2994  0.6152  0.1655
   79SLPC    C1 7229   0.173   6.743   6.186  0.6111  0.5734  0.2686
   79SLPC    HA 7230   0.246   6.796   6.120  1.8442 -0.5812  0.6519
   79SLPC    HB 7231   0.078   6.746   6.130 -0.1894 -0.1645  1.5358
   79SLPC    C2 7232   0.163   6.807   6.325 -0.0523  0.8269 -0.0026
   79SLPC    HS 7233   0.168   6.918   6.317 -0.0159  0.8801  0.6997
   79SLPC   O21 7234   0.263   6.751   6.406  0.2757 -0.1461 -0.2049
   79SLPC   C21 7235   0.380   6.799   6.393  0.0284 -0.3113  0.1455
   79SLPC   O22 7236   0.415   6.901   6.334 -0.4350 -0.0365  0.4837
   79SLPC   C22 7237   0.489   6.710   6.460  0.1143 -0.3176  0.1786
   79SLPC   H2R 7238   0.456   6.605   6.473 -1.5892  0.1362 -0.3259
   79SLPC   H2S 7239   0.566   6.716   6.380  0.2706 -2.1789  0.1390
   79SLPC    C3 7240   0.037   6.758   6.402 -0.2400 -1.0006  0.5470
   79SLPC    HX 7241   0.017   6.652   6.379  2.2466 -1.0123 -2.2700
   79SLPC    HY 7242  -0.036   6.827   6.354  0.5661 -1.9931 -2.3414
   79SLPC   O31 7243   0.045   6.785   6.548  0.6713 -0.2770 -0.6773
   79SLPC   C31 7244  -0.073   6.756   6.611  0.5074 -1.0975 -1.0942
   79SLPC   O32 7245  -0.173   6.718   6.559  0.0488  0.2786 -0.0699
   79SLPC   C32 7246  -0.081   6.792   6.764  0.0784 -0.0203 -0.3515
   79SLPC   H2X 7247  -0.109   6.899   6.777  2.2384  0.5194  0.3319
   79SLPC   H2Y 7248   0.019   6.774   6.810  0.9048 -1.3216 -2.5153
   79SLPC   C23 7249   0.548   6.766   6.593  0.2579  0.3013  0.1509
   79SLPC   H3R 7250   0.473   6.777   6.674  0.1996  1.5610 -0.0510
   79SLPC   H3S 7251   0.584   6.868   6.567 -1.5175  0.7583 -0.6793
   79SLPC   C24 7252   0.669   6.681   6.628 -0.1846 -0.0332 -0.1956
   79SLPC   H4R 7253   0.753   6.750   6.650 -0.1169  0.5668 -2.1459
   79SLPC   H4S 7254   0.695   6.621   6.538 -1.9098 -0.4693 -0.4373
   79SLPC   C25 7255   0.649   6.572   6.736 -0.1485 -0.7957  0.5902
   79SLPC   H5R 7256   0.731   6.498   6.727  1.2453  0.7686 -0.2465
   79SLPC   H5S 7257   0.555   6.527   6.699 -0.2844 -0.1316  0.0976
   79SLPC   C26 7258   0.646   6.624   6.878  0.4070 -0.1852  0.2026
   79SLPC   H6R 7259   0.589   6.716   6.901  2.6591  1.8605 -1.8043
   79SLPC   H6S 7260   0.748   6.654   6.913  0.5126 -0.9388  0.5710
   79SLPC   C27 7261   0.601   6.502   6.972  0.2078 -0.1590  0.5106
   79SLPC   H7R 7262   0.690   6.437   6.989 -1.3021 -2.0726  1.5360
   79SLPC   H7S 7263   0.531   6.438   6.913  0.9429 -0.4838 -0.0282
   79SLPC   C28 7264   0.547   6.548   7.105 -0.5074  0.1442 -0.2061
   79SLPC   H8R 7265   0.501   6.464   7.163 -0.3372  0.4866  0.4316
   79SLPC   H8S 7266   0.464   6.620   7.086 -0.9900 -0.2327  0.3994
   79SLPC   C29 7267   0.654   6.621   7.195 -0.7473  0.1975 -0.2495
   79SLPC   H9R 7268   0.743   6.670   7.154 -1.1681  2.0170  0.9159
   79SLPC  C210 7269   0.669   6.611   7.331  0.3502  0.2789  0.5249
   79SLPC  H10R 7270   0.755   6.664   7.374  1.1747 -1.2606  0.8234
   79SLPC  C211 7271   0.588   6.539   7.443  0.3850  0.2149  0.0271
   79SLPC  H11R 7272   0.487   6.511   7.407  0.4528 -0.4294  0.3247
   79SLPC  H11S 7273   0.564   6.616   7.519 -0.0678 -1.5493  1.7432
   79SLPC  C212 7274   0.653   6.417   7.504 -0.3617 -0.0580 -0.5370
   79SLPC  H12R 7275   0.720   6.369   7.431 -0.1577 -1.5935  0.5925
   79SLPC  C213 7276   0.654   6.374   7.634 -0.0296 -0.4543 -0.1216
   79SLPC  H13R 7277   0.699   6.278   7.663 -0.2052 -1.3679 -2.6988
   79SLPC  C214 7278   0.571   6.436   7.746  0.6548 -0.1350 -0.0803
   79SLPC  H14R 7279   0.553   6.366   7.831  2.3207 -0.9277 -0.3168
   79SLPC  H14S 7280   0.472   6.474   7.715  1.2156  2.5044  1.1665
   79SLPC  C215 7281   0.631   6.571   7.792  0.0152 -0.0835  0.4565
   79SLPC  H15R 7282   0.629   6.641   7.706 -0.3189 -3.4050 -2.4507
   79SLPC  H15S 7283   0.739   6.568   7.818 -0.3035  0.1331  1.8992
   79SLPC  C216 7284   0.556   6.629   7.913  0.7992  0.1263 -0.1019
   79SLPC  H16R 7285   0.586   6.568   8.001  1.5235  1.4586  0.6074
   79SLPC  H16S 7286   0.448   6.623   7.888  0.9567 -1.6575 -0.5023
   79SLPC  C217 7287   0.605   6.770   7.947 -0.2584 -0.5640  0.5067
   79SLPC  H17R 7288   0.583   6.841   7.864 -1.2060 -1.7677 -0.3074
   79SLPC  H17S 7289   0.715   6.784   7.950 -0.0497 -1.9286  0.0240
   79SLPC  C218 7290   0.546   6.806   8.081 -0.5080  0.4163  0.1170
   79SLPC  H18R 7291   0.435   6.805   8.071 -0.4998 -3.0642 -1.0672
   79SLPC  H18S 7292   0.581   6.906   8.113  0.8775  0.3704 -1.1448
   79SLPC  H18T 7293   0.575   6.736   8.162  0.0881 -0.8486 -1.1547
   79SLPC   C33 7294  -0.185   6.702   6.840 -0.2773  0.3721  0.0326
   79SLPC   H3X 7295  -0.144   6.599   6.835  1.7939  1.2121 -2.7873
   79SLPC   H3Y 7296  -0.279   6.701   6.780  0.5843 -0.0118 -1.3475
   79SLPC   C34 7297  -0.201   6.744   6.991 -0.2346 -0.0373 -0.0362
   79SLPC   H4X 7298  -0.289   6.695   7.038  0.6096 -0.9554  0.6253
   79SLPC   H4Y 7299  -0.215   6.854   6.999 -0.4081 -0.1730  1.8590
   79SLPC   C35 7300  -0.073   6.713   7.079  1.2065 -0.3104  0.6212
   79SLPC   H5X 7301   0.007   6.786   7.058  1.6324 -0.5938  1.2373
   79SLPC   H5Y 7302  -0.043   6.608   7.058  1.2878 -0.1843  0.0863
   79SLPC   C36 7303  -0.119   6.716   7.225 -0.2795 -0.7067  0.1972
   79SLPC   H6X 7304  -0.213   6.657   7.234  0.0395 -0.8942  3.4350
   79SLPC   H6Y 7305  -0.138   6.822   7.253 -1.4203 -0.4975 -1.2177
   79SLPC   C37 7306  -0.011   6.664   7.319 -0.6473  0.4086  0.0245
   79SLPC   H7X 7307   0.072   6.737   7.309 -0.4124 -0.0990 -2.2224
   79SLPC   H7Y 7308   0.032   6.568   7.283 -0.7123  0.6987 -0.8484
   79SLPC   C38 7309  -0.068   6.650   7.463 -0.9102 -0.3303 -0.0361
   79SLPC   H8X 7310  -0.091   6.541   7.473 -0.7564 -0.4239 -0.6681
   79SLPC   H8Y 7311  -0.168   6.699   7.468  0.2043  1.9799  0.6698
   79SLPC   C39 7312   0.036   6.700   7.565  0.3151 -0.3446 -0.7260
   79SLPC   H9X 7313   0.042   6.811   7.566 -1.6797 -0.2039 -0.2541
   79SLPC   H9Y 7314   0.134   6.663   7.527 -0.3271 -2.0135 -0.8385
   79SLPC  C310 7315  -0.002   6.651   7.703  0.7403  0.3429 -0.3464
   79SLPC  H10X 7316  -0.021   6.541   7.700 -2.2660  0.8172 -1.6474
   79SLPC  H10Y 7317  -0.099   6.701   7.721  0.1653  0.6855 -3.7548
   79SLPC  C311 7318   0.096   6.681   7.814  0.5201  0.7132  0.1474
   79SLPC  H11X 7319   0.114   6.791   7.814  2.0285  0.4893  0.0954
   79SLPC  H11Y 7320   0.194   6.633   7.792  1.1447  2.2512 -0.6299
   79SLPC  C312 7321   0.061   6.619   7.954 -0.1564 -0.3126  0.0596
   79SLPC  H12X 7322   0.029   6.512   7.953  1.2951 -0.7618 -0.0223
   79SLPC  H12Y 7323  -0.019   6.678   8.004 -0.1757 -1.7503  1.8446
   79SLPC  C313 7324   0.178   6.641   8.057  0.0333  0.4424  0.4242
   79SLPC  H13X 7325   0.210   6.746   8.072  0.4478  0.1288  1.9172
   79SLPC  H13Y 7326   0.274   6.606   8.013  0.5056  1.5338  0.5503
   79SLPC  C314 7327   0.155   6.568   8.188 -0.1625  0.0633 -0.5869
   79SLPC  H14X 7328   0.130   6.462   8.168  2.3135 -0.6753 -0.1629
   79SLPC  H14Y 7329   0.065   6.618   8.231 -1.1948 -0.4563 -2.0843
   79SLPC  C315 7330   0.274   6.570   8.288 -0.1178 -0.1037 -0.1684
   79SLPC  H15X 7331   0.313   6.673   8.301  0.4955 -0.5835  2.3471
   79SLPC  H15Y 7332   0.346   6.513   8.226 -0.0622  1.3221 -1.4934
   79SLPC  C316 7333   0.239   6.520   8.425 -0.0213 -0.2718  0.4710
   79SLPC  H16X 7334   0.198   6.417   8.414 -0.8585  0.1874 -0.8548
   79SLPC  H16Y 7335   0.152   6.573   8.468 -0.6509 -0.8618 -0.0492
   79SLPC  C317 7336   0.360   6.529   8.511  0.0127  0.0889 -0.4025
   79SLPC  H17X 7337   0.439   6.496   8.441 -1.3115 -1.0975 -1.3918
   79SLPC  H17Y 7338   0.363   6.454   8.593 -1.1542 -0.7399 -1.0740
   79SLPC  C318 7339   0.400   6.669   8.558 -0.1203 -0.1343  0.5957
   79SLPC  H18X 7340   0.511   6.677   8.547 -0.0789 -2.4486 -1.5938
   79SLPC  H18Y 7341   0.358   6.685   8.659 -1.5197 -3.0791  0.5653
   79SLPC  H18Z 7342   0.361   6.752   8.495  1.8406  0.7131  0.4179
   80SLPC     N 7343   2.174   2.756   5.993  0.4883  0.8625 -0.5700
   80SLPC   C13 7344   2.026   2.759   5.950  0.1055  0.8155  0.8355
   80SLPC  H13A 7345   2.023   2.761   5.842 -0.2441 -2.0439  0.7156
   80SLPC  H13B 7346   1.971   2.669   5.970  2.1458 -0.5608  0.5263
   80SLPC  H13C 7347   1.966   2.839   5.991 -1.5880 -0.6072  1.2629
   80SLPC   C14 7348   2.245   2.860   5.916 -0.2610 -0.1888 -0.0593
   80SLPC  H14A 7349   2.194   2.955   5.920  0.7070  0.3422  0.1075
   80SLPC  H14B 7350   2.345   2.871   5.954  0.2918  1.2195 -1.7641
   80SLPC  H14C 7351   2.266   2.830   5.814  1.4398 -1.9223  0.7560
   80SLPC   C15 7352   2.229   2.627   5.939 -0.1935  0.1042 -0.4993
   80SLPC  H15A 7353   2.181   2.548   5.995 -2.1826  0.4281 -1.6678
   80SLPC  H15B 7354   2.193   2.612   5.839 -0.9501 -3.8509  0.2203
   80SLPC  H15C 7355   2.336   2.622   5.952 -0.1506  1.5896 -0.0295
   80SLPC   C12 7356   2.189   2.757   6.150  0.1596  0.0924 -0.3741
   80SLPC  H12A 7357   2.166   2.856   6.188 -2.0597 -0.9910  1.4018
   80SLPC  H12B 7358   2.294   2.748   6.169  0.2730  3.5401  1.4610
   80SLPC   C11 7359   2.101   2.658   6.233 -0.2164 -0.4816 -0.3235
   80SLPC  H11A 7360   2.145   2.659   6.335 -0.0566  0.8979 -0.3874
   80SLPC  H11B 7361   2.109   2.556   6.191 -1.2753 -0.2953 -1.0118
   80SLPC     P 7362   1.928   2.831   6.316  0.7343 -0.2301  0.1304
   80SLPC   O13 7363   2.002   2.957   6.271 -0.2277 -0.4615 -0.7206
   80SLPC   O14 7364   1.780   2.844   6.318  0.1272  0.0047  0.1673
   80SLPC   O12 7365   1.966   2.699   6.234 -0.5918 -0.0236 -0.1279
   80SLPC   O11 7366   1.962   2.802   6.464  0.0519  0.4091  0.1903
   80SLPC    C1 7367   1.899   2.697   6.539 -0.4766  0.5757  0.4054
   80SLPC    HA 7368   1.794   2.728   6.556 -0.1539  1.0805  1.5388
   80SLPC    HB 7369   1.898   2.600   6.484  2.1424  0.6095  0.1495
   80SLPC    C2 7370   1.966   2.664   6.674 -0.0919 -0.2210 -0.4478
   80SLPC    HS 7371   1.929   2.568   6.715  1.8079 -0.0818  1.7853
   80SLPC   O21 7372   1.949   2.771   6.771 -0.8265  0.2485  0.4167
   80SLPC   C21 7373   1.831   2.809   6.801  0.7618 -0.2246  0.1857
   80SLPC   O22 7374   1.729   2.743   6.775 -0.3860  0.3836  0.1399
   80SLPC   C22 7375   1.837   2.940   6.878 -0.1535 -0.4464 -0.5112
   80SLPC   H2R 7376   1.898   3.018   6.829  1.2787 -0.4473  1.1579
   80SLPC   H2S 7377   1.739   2.991   6.888 -0.5309 -1.1352 -0.6157
   80SLPC    C3 7378   2.120   2.640   6.661 -0.2208 -0.4509 -0.6541
   80SLPC    HX 7379   2.155   2.719   6.590 -0.8423 -1.4711 -2.1535
   80SLPC    HY 7380   2.127   2.544   6.606  0.5317 -1.0592  0.4817
   80SLPC   O31 7381   2.195   2.628   6.783 -0.4017  0.1704 -0.0410
   80SLPC   C31 7382   2.253   2.738   6.827  0.2300  0.1714  0.4566
   80SLPC   O32 7383   2.237   2.852   6.781  0.4141  0.2131 -0.2155
   80SLPC   C32 7384   2.331   2.716   6.954 -0.3428  0.1846  0.0933
   80SLPC   H2X 7385   2.358   2.815   6.997 -0.4892 -0.1685  1.0332
   80SLPC   H2Y 7386   2.421   2.658   6.925 -0.1481  0.3943  0.2663
   80SLPC   C23 7387   1.902   2.917   7.015 -0.0382  0.4820 -0.0495
   80SLPC   H3R 7388   1.928   3.019   7.049  2.0994  0.5260 -1.6243
   80SLPC   H3S 7389   1.993   2.855   7.004 -0.3003 -0.6245  2.9284
   80SLPC   C24 7390   1.808   2.852   7.117  0.3237 -0.6085 -0.0864
   80SLPC   H4R 7391   1.860   2.767   7.166  1.8971 -0.6725 -1.7624
   80SLPC   H4S 7392   1.716   2.808   7.075  0.4133 -1.2538  0.3781
   80SLPC   C25 7393   1.757   2.955   7.227  0.1060  0.2029  0.1096
   80SLPC   H5R 7394   1.669   2.916   7.283 -1.0017  3.5756  0.9895
   80SLPC   H5S 7395   1.699   3.031   7.170  0.2920  0.7733  0.6672
   80SLPC   C26 7396   1.848   3.001   7.332 -0.0641 -0.6286 -0.1705
   80SLPC   H6R 7397   1.786   3.085   7.370  0.6334  1.5673 -3.4807
   80SLPC   H6S 7398   1.945   3.024   7.282 -0.5200 -1.3252 -1.4303
   80SLPC   C27 7399   1.862   2.901   7.445  0.0141 -0.0809 -0.3325
   80SLPC   H7R 7400   1.944   2.833   7.414 -1.2276 -0.2809 -3.5355
   80SLPC   H7S 7401   1.771   2.840   7.461  1.2281 -1.4656  1.7489
   80SLPC   C28 7402   1.889   2.965   7.586  0.1359  0.4396  0.5077
   80SLPC   H8R 7403   1.803   3.033   7.606 -2.2866 -2.3009  0.0739
   80SLPC   H8S 7404   1.983   3.022   7.576  0.5187 -0.2274  0.2767
   80SLPC   C29 7405   1.911   2.876   7.705 -0.0920 -0.9252 -0.0640
   80SLPC   H9R 7406   1.982   2.796   7.683 -0.0636 -0.9905  0.2628
   80SLPC  C210 7407   1.871   2.880   7.835  0.1121 -0.5432  0.7830
   80SLPC  H10R 7408   1.901   2.800   7.904  2.9132  0.9352  1.4458
   80SLPC  C211 7409   1.782   2.981   7.895  0.3188 -0.5108  0.1041
   80SLPC  H11R 7410   1.686   2.939   7.932 -0.3293  0.2194 -0.7196
   80SLPC  H11S 7411   1.753   3.054   7.816  0.0328  1.7106  2.1654
   80SLPC  C212 7412   1.845   3.064   8.006  0.2655  0.4681  0.6179
   80SLPC  H12R 7413   1.826   3.031   8.109  0.4129  0.3713  0.6127
   80SLPC  C213 7414   1.925   3.174   7.989 -0.1573 -0.5078 -0.3316
   80SLPC  H13R 7415   1.963   3.218   8.082 -0.1313 -0.9630 -0.1267
   80SLPC  C214 7416   1.970   3.234   7.860 -0.1329 -0.0079  0.8941
   80SLPC  H14R 7417   1.951   3.153   7.786 -2.2259 -0.0579  1.4328
   80SLPC  H14S 7418   2.077   3.262   7.869 -0.3268  0.7138  1.0244
   80SLPC  C215 7419   1.878   3.356   7.829  0.1297  0.6844 -0.1091
   80SLPC  H15R 7420   1.779   3.318   7.798  0.8301 -0.1462 -1.4246
   80SLPC  H15S 7421   1.921   3.400   7.736  2.6516 -1.8070 -0.2537
   80SLPC  C216 7422   1.880   3.457   7.949  0.6105  1.1838 -0.0330
   80SLPC  H16R 7423   1.982   3.471   7.991  0.7048 -0.1991  0.2697
   80SLPC  H16S 7424   1.818   3.424   8.035 -0.1008 -0.7327 -1.2148
   80SLPC  C217 7425   1.832   3.597   7.917 -0.9004  0.8475  0.3092
   80SLPC  H17R 7426   1.729   3.598   7.875 -1.6396  1.9697  2.0431
   80SLPC  H17S 7427   1.888   3.633   7.827 -2.9938  2.3787 -0.4491
   80SLPC  C218 7428   1.847   3.710   8.020 -0.5444 -0.5200  0.0670
   80SLPC  H18R 7429   1.782   3.699   8.110 -0.5903  0.7448  0.2016
   80SLPC  H18S 7430   1.838   3.807   7.967  0.2899 -1.0829 -1.1409
   80SLPC  H18T 7431   1.950   3.709   8.061  0.2081 -0.8238 -1.7565
   80SLPC   C33 7432   2.262   2.638   7.067  0.1125  0.3159 -0.4900
   80SLPC   H3X 7433   2.314   2.540   7.076 -1.0442 -0.1406  2.2766
   80SLPC   H3Y 7434   2.161   2.616   7.028  0.5453 -0.2995 -1.2947
   80SLPC   C34 7435   2.266   2.721   7.190 -0.7359  0.2129 -0.6174
   80SLPC   H4X 7436   2.185   2.798   7.191 -1.2320 -0.3035  0.0912
   80SLPC   H4Y 7437   2.367   2.766   7.195 -0.7666  0.2000  0.4084
   80SLPC   C35 7438   2.264   2.637   7.318 -0.2500 -0.4002  0.2679
   80SLPC   H5X 7439   2.332   2.550   7.310  2.1706  1.5003 -1.2255
   80SLPC   H5Y 7440   2.166   2.586   7.326  0.5033 -1.7427  1.5179
   80SLPC   C36 7441   2.275   2.703   7.454  0.4219  0.1858 -0.3466
   80SLPC   H6X 7442   2.185   2.766   7.472 -0.3695 -1.1111  0.4141
   80SLPC   H6Y 7443   2.358   2.775   7.458 -1.7362  2.7604  0.8712
   80SLPC   C37 7444   2.284   2.601   7.572  0.4640  0.3709  0.4598
   80SLPC   H7X 7445   2.381   2.548   7.577  0.3113  0.0651  0.2443
   80SLPC   H7Y 7446   2.207   2.521   7.576  0.8910 -0.1029 -0.4710
   80SLPC   C38 7447   2.281   2.665   7.710  0.7632  0.2406 -0.1237
   80SLPC   H8X 7448   2.192   2.729   7.727  1.6165  1.6483 -0.7301
   80SLPC   H8Y 7449   2.363   2.741   7.712  0.2864  0.7798 -0.6129
   80SLPC   C39 7450   2.288   2.562   7.820 -0.4540  0.2331  0.4721
   80SLPC   H9X 7451   2.387   2.511   7.814 -1.6225 -1.9838 -1.0346
   80SLPC   H9Y 7452   2.209   2.493   7.786  1.0801 -0.5556 -1.7050
   80SLPC  C310 7453   2.268   2.631   7.953  0.2733  0.0544  0.1671
   80SLPC  H10X 7454   2.268   2.742   7.946  1.2529  0.0554  0.0459
   80SLPC  H10Y 7455   2.351   2.615   8.025 -2.5051  0.7735  3.8423
   80SLPC  C311 7456   2.137   2.592   8.029  0.3438  0.6855  0.8088
   80SLPC  H11X 7457   2.120   2.482   8.038 -2.2653  0.7521 -1.7682
   80SLPC  H11Y 7458   2.049   2.625   7.971 -0.7404 -1.0637  1.3854
   80SLPC  C312 7459   2.119   2.652   8.168  0.9049  0.4935 -0.4689
   80SLPC  H12X 7460   2.131   2.762   8.167  0.1448  0.5949  0.6261
   80SLPC  H12Y 7461   2.190   2.608   8.241 -1.4237 -0.8248  1.1337
   80SLPC  C313 7462   1.979   2.622   8.218  0.2725 -0.3021  0.2874
   80SLPC  H13X 7463   1.941   2.518   8.227 -2.0711  0.3349 -1.2165
   80SLPC  H13Y 7464   1.913   2.687   8.156  0.3816  0.5072  0.9929
   80SLPC  C314 7465   1.950   2.687   8.355 -0.5178 -0.1759 -0.6315
   80SLPC  H14X 7466   1.850   2.737   8.359 -0.3315  0.1001  1.2599
   80SLPC  H14Y 7467   2.021   2.772   8.363 -2.0217  1.2437 -1.5754
   80SLPC  C315 7468   1.963   2.588   8.464 -0.3012  1.0605  0.1665
   80SLPC  H15X 7469   2.058   2.533   8.444 -0.3930  1.6856 -2.2966
   80SLPC  H15Y 7470   1.880   2.516   8.443  0.2314 -0.2250  2.1913
   80SLPC  C316 7471   1.953   2.633   8.612 -0.0128 -0.0033  1.0354
   80SLPC  H16X 7472   1.850   2.669   8.632  0.3771  2.5164 -1.0296
   80SLPC  H16Y 7473   2.029   2.711   8.630  1.8348 -1.6503  0.6788
   80SLPC  C317 7474   1.991   2.528   8.718  0.1991 -0.4246 -0.0977
   80SLPC  H17X 7475   1.991   2.568   8.821  2.1325 -2.5013  0.7806
   80SLPC  H17Y 7476   2.098   2.499   8.713  0.1992 -0.2642 -2.3605
   80SLPC  C318 7477   1.891   2.416   8.713  0.5610 -0.4103 -0.4050
   80SLPC  H18X 7478   1.920   2.347   8.795 -1.0548 -0.3448  0.2678
   80SLPC  H18Y 7479   1.892   2.367   8.614 -0.3336 -0.0787 -0.5870
   80SLPC  H18Z 7480   1.790   2.455   8.739  0.9240 -0.0626  0.5136
   81SAPS     N 7481   3.189   6.249  11.300 -0.2299  0.5967 -0.5170
   81SAPS   HN1 7482   3.287   6.222  11.278  0.2808  1.5721  0.4500
   81SAPS   HN2 7483   3.152   6.204  11.386 -1.0833 -0.3990 -1.3716
   81SAPS   HN3 7484   3.136   6.209  11.220  1.7912  1.5378 -2.4284
   81SAPS   C12 7485   3.145   6.383  11.292  0.3513 -0.2248 -0.1562
   81SAPS  H12A 7486   3.040   6.392  11.314  0.9967  3.9070  2.4913
   81SAPS   C13 7487   3.190   6.474  11.415 -0.9523  1.5957 -0.0310
   81SAPS  O13A 7488   3.292   6.440  11.481 -0.0114 -0.0835  0.5835
   81SAPS  O13B 7489   3.133   6.588  11.434  0.1771  0.1850  0.0042
   81SAPS   C11 7490   3.201   6.446  11.163  0.4734  0.2158 -0.1068
   81SAPS  H11A 7491   3.310   6.466  11.173  0.9444 -1.9713 -0.3661
   81SAPS  H11B 7492   3.148   6.542  11.142 -0.9596 -0.6164 -0.4253
   81SAPS     P 7493   3.275   6.316  10.943  0.0372  0.2992 -0.0127
   81SAPS   O13 7494   3.371   6.218  10.997 -0.2093  0.3883 -0.2605
   81SAPS   O14 7495   3.202   6.277  10.819  0.0689 -0.2731 -0.4620
   81SAPS   O12 7496   3.174   6.358  11.049 -0.3788  0.2949 -0.3580
   81SAPS   O11 7497   3.351   6.450  10.924 -0.1239 -0.4343  0.2951
   81SAPS    C1 7498   3.309   6.559  10.838 -0.9240  1.2223  0.2742
   81SAPS    HA 7499   3.201   6.565  10.813 -1.3684 -2.3039  0.9033
   81SAPS    HB 7500   3.341   6.649  10.895  2.0967 -0.6717  1.8500
   81SAPS    C2 7501   3.383   6.555  10.707 -0.3636  0.2812 -0.5615
   81SAPS    HS 7502   3.362   6.645  10.646 -3.8438 -1.1380 -1.7415
   81SAPS   O21 7503   3.337   6.450  10.634  0.1082  0.1500 -0.2005
   81SAPS   C21 7504   3.224   6.463  10.562 -1.2974  0.2653 -0.7251
   81SAPS   O22 7505   3.168   6.570  10.546 -0.3049  0.3160 -0.1310
   81SAPS   C22 7506   3.179   6.338  10.498  0.0523  0.5633  0.0088
   81SAPS   H2R 7507   3.249   6.252  10.509 -1.1733 -1.4208 -4.8686
   81SAPS   H2S 7508   3.082   6.306  10.542  0.3876  1.5075  1.5111
   81SAPS    C3 7509   3.539   6.543  10.717  0.0906  0.5350 -0.2693
   81SAPS    HX 7510   3.554   6.446  10.768  2.0416  1.3917  0.8950
   81SAPS    HY 7511   3.562   6.630  10.783 -0.2027  1.1888 -1.0049
   81SAPS   O31 7512   3.615   6.540  10.592 -0.2940  0.2820  1.0715
   81SAPS   C31 7513   3.747   6.536  10.611  0.1943  0.7596  0.1696
   81SAPS   O32 7514   3.802   6.536  10.718 -0.2674  0.5994 -0.6015
   81SAPS   C32 7515   3.817   6.532  10.477  0.1281 -0.6050 -0.1023
   81SAPS   H2X 7516   3.742   6.527  10.396  0.4432 -1.0533 -0.3720
   81SAPS   H2Y 7517   3.885   6.444  10.472  2.6618  1.1264  1.3590
   81SAPS   C23 7518   3.145   6.344  10.348 -0.4893  0.1416 -0.3012
   81SAPS   H3R 7519   3.060   6.413  10.326 -1.5282 -0.6235  1.1214
   81SAPS   H3S 7520   3.100   6.244  10.330 -2.5818  1.2111 -1.3458
   81SAPS   C24 7521   3.265   6.345  10.260 -1.0347  0.1267 -0.2156
   81SAPS   H4R 7522   3.251   6.269  10.180 -0.9252  0.0445 -0.1576
   81SAPS   H4S 7523   3.353   6.300  10.311 -0.9595 -1.1300 -1.3957
   81SAPS   C25 7524   3.293   6.479  10.198 -0.5695 -0.1771 -0.1888
   81SAPS   H5R 7525   3.341   6.541  10.275 -2.1043 -2.7504  3.1037
   81SAPS   C26 7526   3.282   6.519  10.073 -0.1140 -0.2676 -0.4759
   81SAPS   H6R 7527   3.310   6.622  10.048 -1.5504  0.7450  1.7628
   81SAPS   C27 7528   3.237   6.440   9.955  0.2615  0.0558 -0.1867
   81SAPS   H7R 7529   3.131   6.469   9.938  0.2826 -0.6586 -1.6925
   81SAPS   H7S 7530   3.241   6.331   9.977 -1.6183  0.1941  1.0591
   81SAPS   C28 7531   3.312   6.463   9.819  0.1393  0.1550 -0.7211
   81SAPS   H8R 7532   3.420   6.488   9.826 -0.0312  1.3948 -2.0132
   81SAPS   C29 7533   3.256   6.445   9.701 -0.2596 -0.7639  0.0264
   81SAPS   H9R 7534   3.312   6.478   9.612  0.3566  1.3576  1.1608
   81SAPS  C210 7535   3.119   6.402   9.670  0.2244  0.0671  0.1402
   81SAPS  H10R 7536   3.066   6.369   9.762  0.8789  0.9120  0.8268
   81SAPS  H10S 7537   3.112   6.313   9.602  0.8495 -2.2326  2.8853
   81SAPS  C211 7538   3.040   6.509   9.606 -0.1973 -0.7576  0.5187
   81SAPS  H11R 7539   3.000   6.581   9.679 -4.0598 -1.4037 -0.7320
   81SAPS  C212 7540   3.015   6.530   9.471  0.0658  0.6973 -0.2748
   81SAPS  H12R 7541   2.963   6.623   9.446  0.1276  0.6937 -0.4146
   81SAPS  C213 7542   3.058   6.447   9.353  0.5386 -0.6548 -0.3114
   81SAPS  H13R 7543   3.168   6.434   9.353  0.5275 -0.7927 -0.8600
   81SAPS  H13S 7544   3.040   6.505   9.260  0.8777 -0.3380 -0.1807
   81SAPS  C214 7545   2.997   6.315   9.344 -0.2953  1.0177 -0.5786
   81SAPS  H14R 7546   2.913   6.307   9.414 -0.6784  0.3971 -1.0921
   81SAPS  C215 7547   3.023   6.217   9.256  0.0729 -0.6489 -0.2905
   81SAPS  H15R 7548   2.969   6.123   9.274 -1.4030 -0.0045 -1.1571
   81SAPS  C216 7549   3.125   6.215   9.144  0.4788  0.4706 -0.1088
   81SAPS  H16R 7550   3.223   6.175   9.177 -1.4640 -3.1514  1.8573
   81SAPS  H16S 7551   3.138   6.320   9.109  0.5437  0.7970  0.8669
   81SAPS  C217 7552   3.069   6.128   9.027 -0.7090  0.2196  0.9277
   81SAPS  H17R 7553   3.131   6.147   8.937 -0.0336  1.5359  1.6394
   81SAPS  H17S 7554   2.964   6.154   9.001 -0.3583  1.5696  0.7516
   81SAPS  C218 7555   3.072   5.977   9.050  0.2890  0.4468 -0.9044
   81SAPS  H18R 7556   3.005   5.958   9.136 -1.5734 -0.6707 -2.5317
   81SAPS  H18S 7557   3.178   5.955   9.075  0.6777  1.0320 -1.9668
   81SAPS  C219 7558   3.024   5.907   8.925 -0.3660 -0.0414  0.5035
   81SAPS  H19R 7559   3.083   5.930   8.833 -1.6833 -2.1006 -0.9352
   81SAPS  H19S 7560   2.919   5.936   8.906 -0.9325 -1.3576  1.5277
   81SAPS  C220 7561   3.024   5.753   8.927  0.3570 -0.1870 -0.5974
   81SAPS  H20R 7562   2.998   5.711   8.828  1.2786  0.5427 -1.1704
   81SAPS  H20S 7563   2.950   5.721   9.004 -0.8019  1.0143 -1.1697
   81SAPS  H20T 7564   3.121   5.709   8.960 -0.1347 -0.4964  0.4841
   81SAPS   C33 7565   3.919   6.649  10.462 -0.1773  0.2896  0.2320
   81SAPS   H3X 7566   4.014   6.625  10.515 -0.0929  1.8542  0.8509
   81SAPS   H3Y 7567   3.881   6.747  10.497  0.5851  1.5543 -2.3079
   81SAPS   C34 7568   3.961   6.686  10.315 -0.0305 -0.7570  0.1572
   81SAPS   H4X 7569   4.023   6.775  10.337  3.0273 -2.1934 -1.7546
   81SAPS   H4Y 7570   3.869   6.713  10.259  1.9754  1.5087 -2.3056
   81SAPS   C35 7571   4.041   6.585  10.227  0.2111  0.7744 -0.8156
   81SAPS   H5X 7572   4.141   6.562  10.271 -0.3434  2.0889  1.3240
   81SAPS   H5Y 7573   4.061   6.634  10.130  0.7155  0.5476 -0.8279
   81SAPS   C36 7574   3.970   6.450  10.195 -0.4445 -0.1553  0.3164
   81SAPS   H6X 7575   3.944   6.405  10.293 -1.4238  0.1772  0.2193
   81SAPS   H6Y 7576   4.044   6.380  10.150 -0.9409 -0.9599  0.7168
   81SAPS   C37 7577   3.844   6.458  10.111  0.9545 -0.1382  0.0379
   81SAPS   H7X 7578   3.771   6.530  10.152  1.1402  0.7212 -1.0990
   81SAPS   H7Y 7579   3.797   6.357  10.103 -0.5605  0.6395 -1.6573
   81SAPS   C38 7580   3.869   6.496   9.959 -0.0675 -0.3109  0.4351
   81SAPS   H8X 7581   3.939   6.419   9.918  2.2210 -0.5037  4.2317
   81SAPS   H8Y 7582   3.933   6.587   9.954 -1.3470  0.7038  1.7493
   81SAPS   C39 7583   3.740   6.517   9.878 -0.5326  0.4567  0.0269
   81SAPS   H9X 7584   3.679   6.604   9.910 -0.4002  0.1262  1.2121
   81SAPS   H9Y 7585   3.667   6.434   9.895 -0.2370  0.2775  0.4431
   81SAPS  C310 7586   3.770   6.509   9.730  0.5020 -0.4038 -0.7865
   81SAPS  H10X 7587   3.811   6.407   9.717 -2.8406 -1.9880  0.0340
   81SAPS  H10Y 7588   3.840   6.595   9.716  0.5690 -0.3527 -0.1554
   81SAPS  C311 7589   3.646   6.528   9.653  0.4344  0.6268 -0.2741
   81SAPS  H11X 7590   3.588   6.619   9.679  0.9940  0.7815  0.4536
   81SAPS  H11Y 7591   3.580   6.445   9.684 -0.1322  1.6893  1.4968
   81SAPS  C312 7592   3.667   6.514   9.506  0.9856  0.6606  0.0962
   81SAPS  H12X 7593   3.738   6.431   9.488  2.3959  1.7836  0.2598
   81SAPS  H12Y 7594   3.713   6.609   9.470 -0.3197  1.1059 -0.4496
   81SAPS  C313 7595   3.532   6.495   9.431 -0.5049 -0.0272  0.5629
   81SAPS  H13X 7596   3.461   6.577   9.452  2.0706  2.2864  0.9223
   81SAPS  H13Y 7597   3.485   6.399   9.459 -1.6695  0.6255  0.8727
   81SAPS  C314 7598   3.556   6.500   9.279 -1.1708  0.2212  0.0145
   81SAPS  H14X 7599   3.631   6.424   9.246 -1.8940  0.1044 -1.4652
   81SAPS  H14Y 7600   3.606   6.596   9.253 -0.2806 -0.6264 -1.5938
   81SAPS  C315 7601   3.428   6.473   9.191 -0.2619 -0.0372 -0.5437
   81SAPS  H15X 7602   3.353   6.540   9.238  1.7215  0.7441  1.7296
   81SAPS  H15Y 7603   3.392   6.370   9.214  1.1709 -0.8814 -1.8264
   81SAPS  C316 7604   3.456   6.484   9.039  0.2355 -0.5323  0.2584
   81SAPS  H16X 7605   3.446   6.378   9.006 -1.3814 -0.3916  0.1825
   81SAPS  H16Y 7606   3.562   6.517   9.035  1.1622 -3.3502 -2.2751
   81SAPS  C317 7607   3.363   6.570   8.969  0.1893 -0.1785 -0.1650
   81SAPS  H17X 7608   3.350   6.667   9.021  0.8726 -0.5225  0.6645
   81SAPS  H17Y 7609   3.263   6.520   8.969 -0.2069  0.5761  0.7764
   81SAPS  C318 7610   3.400   6.610   8.825 -0.0439 -0.0239 -0.2746
   81SAPS  H18X 7611   3.500   6.657   8.818 -0.2118  0.2469 -1.0080
   81SAPS  H18Y 7612   3.322   6.673   8.777  0.4121  0.2002 -0.7255
   81SAPS  H18Z 7613   3.403   6.509   8.780 -0.9742  0.4370 -1.4254
   82SAPS     N 7614   0.731   5.571  11.137  0.2884  0.0448 -0.4061
   82SAPS   HN1 7615   0.701   5.668  11.162  1.3148  0.8735 -2.2240
   82SAPS   HN2 7616   0.691   5.500  11.203 -2.1120  0.0279 -1.7708
   82SAPS   HN3 7617   0.834   5.580  11.144  0.1480  0.7514  1.4474
   82SAPS   C12 7618   0.687   5.539  11.001 -0.1378  0.0731 -0.3649
   82SAPS  H12A 7619   0.664   5.434  10.987 -1.2584  0.3261 -0.4972
   82SAPS   C13 7620   0.554   5.603  10.958 -0.0571 -0.3038  0.2865
   82SAPS  O13A 7621   0.482   5.663  11.047  0.8900 -0.1778 -0.5898
   82SAPS  O13B 7622   0.509   5.573  10.846  0.0210 -0.2281 -0.4870
   82SAPS   C11 7623   0.804   5.591  10.910  0.9237  0.3645  0.0793
   82SAPS  H11A 7624   0.801   5.701  10.923  0.9902  0.6428 -1.9254
   82SAPS  H11B 7625   0.793   5.561  10.804  0.8046 -1.6744  0.6210
   82SAPS     P 7626   1.061   5.573  10.884 -0.2019  0.4863 -0.0035
   82SAPS   O13 7627   1.075   5.713  10.858 -0.6369 -0.4732  0.5545
   82SAPS   O14 7628   1.168   5.527  10.975 -0.3001 -0.3880  0.1914
   82SAPS   O12 7629   0.927   5.529  10.951 -0.2456  0.2969  0.0240
   82SAPS   O11 7630   1.064   5.496  10.749  0.9217 -0.6564 -0.1852
   82SAPS    C1 7631   1.013   5.358  10.746  0.5936  0.2652  0.3961
   82SAPS    HA 7632   1.055   5.303  10.833  2.0871  0.4576 -0.1840
   82SAPS    HB 7633   0.903   5.347  10.756  0.8448 -1.3884  2.0747
   82SAPS    C2 7634   1.067   5.270  10.628 -0.5596  0.1049  0.6458
   82SAPS    HS 7635   1.178   5.268  10.632 -0.5003  0.2256 -0.5137
   82SAPS   O21 7636   1.022   5.338  10.509 -0.3178 -0.4296  0.6721
   82SAPS   C21 7637   1.092   5.328  10.396 -0.3480  0.1988  0.2506
   82SAPS   O22 7638   1.206   5.280  10.397  0.8832  0.1566  0.3318
   82SAPS   C22 7639   0.999   5.364  10.282 -0.5040 -0.4908  0.3533
   82SAPS   H2R 7640   0.925   5.282  10.288 -0.3005 -0.7817 -0.9490
   82SAPS   H2S 7641   0.949   5.460  10.307 -0.7322 -0.9980  2.0076
   82SAPS    C3 7642   1.007   5.128  10.640  0.4456 -0.0061 -0.2993
   82SAPS    HX 7643   1.042   5.095  10.740 -0.2399  4.0633  1.4540
   82SAPS    HY 7644   1.070   5.082  10.560  1.1536 -0.7191  0.6489
   82SAPS   O31 7645   0.862   5.116  10.626 -0.0845 -0.0682 -0.0166
   82SAPS   C31 7646   0.820   5.081  10.511  0.6658  0.0775 -0.1781
   82SAPS   O32 7647   0.889   5.068  10.408 -0.3875 -0.1038 -0.7422
   82SAPS   C32 7648   0.670   5.054  10.515 -0.3149  0.5862  0.7151
   82SAPS   H2X 7649   0.646   4.985  10.599  0.3261  0.7766  1.0594
   82SAPS   H2Y 7650   0.637   5.016  10.416 -1.1459 -0.0998  1.2392
   82SAPS   C23 7651   1.059   5.372  10.138 -0.4255  0.2700  0.4541
   82SAPS   H3R 7652   1.112   5.275  10.126  0.4518  0.5259  2.0058
   82SAPS   H3S 7653   1.137   5.451  10.134 -0.3511  0.1303 -2.0830
   82SAPS   C24 7654   0.976   5.387  10.016  0.8413  0.0900 -0.3045
   82SAPS   H4R 7655   1.037   5.394   9.923 -2.5366  1.1334 -2.6494
   82SAPS   H4S 7656   0.915   5.480  10.030 -1.8722 -1.8388  1.8088
   82SAPS   C25 7657   0.873   5.277  10.017 -0.0539 -0.7238 -0.5145
   82SAPS   H5R 7658   0.861   5.222  10.112  1.3543 -1.5406 -0.7704
   82SAPS   C26 7659   0.802   5.248   9.904 -0.0666  0.0380 -0.2088
   82SAPS   H6R 7660   0.723   5.172   9.899 -0.2907  0.2967 -0.6234
   82SAPS   C27 7661   0.808   5.320   9.768 -0.0529  0.1471 -0.9130
   82SAPS   H7R 7662   0.871   5.411   9.779  0.2695 -0.2540  1.0259
   82SAPS   H7S 7663   0.706   5.360   9.755 -0.8924 -0.1543  3.2741
   82SAPS   C28 7664   0.837   5.230   9.656 -0.6261 -0.5241  0.4475
   82SAPS   H8R 7665   0.760   5.159   9.623 -0.9780  0.5137 -1.1247
   82SAPS   C29 7666   0.950   5.228   9.575  0.2776 -0.0270 -0.6637
   82SAPS   H9R 7667   0.951   5.153   9.495 -0.8988  0.1162 -0.8382
   82SAPS  C210 7668   1.076   5.311   9.590 -0.2994 -0.3222  1.0589
   82SAPS  H10R 7669   1.137   5.281   9.678  1.3757  0.3468  0.1689
   82SAPS  H10S 7670   1.046   5.417   9.605 -1.6175 -0.2262 -1.5614
   82SAPS  C211 7671   1.172   5.288   9.474  0.2166 -0.1012 -0.8673
   82SAPS  H11R 7672   1.273   5.251   9.497  0.5777  2.5896  2.7735
   82SAPS  C212 7673   1.151   5.329   9.347  0.3180  0.5368 -0.4301
   82SAPS  H12R 7674   1.228   5.292   9.278  0.2231 -1.0135  0.2679
   82SAPS  C213 7675   1.034   5.408   9.294 -0.0420  0.1874 -0.3131
   82SAPS  H13R 7676   1.074   5.497   9.242  0.5736  1.4504  2.1904
   82SAPS  H13S 7677   0.964   5.437   9.375 -0.0599  2.3871 -1.0522
   82SAPS  C214 7678   0.957   5.314   9.210  0.0315 -0.7737  0.3389
   82SAPS  H14R 7679   0.886   5.260   9.275  1.5498 -0.6178  2.2375
   82SAPS  C215 7680   0.967   5.292   9.076 -0.0374 -0.5887 -0.0470
   82SAPS  H15R 7681   0.912   5.209   9.029 -1.0927 -0.4848  0.9664
   82SAPS  C216 7682   1.055   5.370   8.975  0.3379  0.3860 -0.6184
   82SAPS  H16R 7683   1.152   5.316   8.974  0.5438  0.7588 -0.8649
   82SAPS  H16S 7684   1.069   5.472   9.017  1.1392 -0.2365  0.6931
   82SAPS  C217 7685   0.991   5.377   8.833 -0.2132 -0.2949 -0.2524
   82SAPS  H17R 7686   0.892   5.425   8.850  0.3842  1.0421 -0.4781
   82SAPS  H17S 7687   0.985   5.274   8.791 -0.0282 -0.4151  0.0134
   82SAPS  C218 7688   1.074   5.459   8.736 -0.5909  0.9479  0.1900
   82SAPS  H18R 7689   1.168   5.413   8.701 -0.0412  0.4173  2.2491
   82SAPS  H18S 7690   1.101   5.551   8.791  0.5333  1.1295 -0.6410
   82SAPS  C219 7691   0.989   5.507   8.612  0.6939  0.2695  0.0081
   82SAPS  H19R 7692   0.891   5.547   8.647  0.1794 -0.0915 -0.9712
   82SAPS  H19S 7693   0.981   5.422   8.541  0.2673  0.5603 -0.2969
   82SAPS  C220 7694   1.067   5.614   8.537 -0.5870 -0.7019  0.0828
   82SAPS  H20R 7695   1.170   5.590   8.506 -0.2689 -0.2402  0.7570
   82SAPS  H20S 7696   1.086   5.708   8.594  2.6286  1.1998 -3.6531
   82SAPS  H20T 7697   1.017   5.636   8.440  0.1914  1.4161  0.0967
   82SAPS   C33 7698   0.587   5.180  10.522 -0.3942  0.2114  0.0125
   82SAPS   H3X 7699   0.600   5.225  10.623 -1.2793  2.9934 -1.0395
   82SAPS   H3Y 7700   0.479   5.154  10.510 -0.3363 -0.6343  1.1295
   82SAPS   C34 7701   0.623   5.285  10.413  0.7167  0.1677 -0.0533
   82SAPS   H4X 7702   0.628   5.221  10.322 -2.1080 -2.2157  1.3100
   82SAPS   H4Y 7703   0.721   5.329  10.442  1.4851  0.3384 -2.6616
   82SAPS   C35 7704   0.518   5.393  10.403  0.3027 -1.0116 -0.4495
   82SAPS   H5X 7705   0.566   5.481  10.449 -0.1705 -1.4244  0.8802
   82SAPS   H5Y 7706   0.426   5.377  10.464  1.4229  0.6337  1.8050
   82SAPS   C36 7707   0.476   5.421  10.253 -0.0313 -0.6925  0.0140
   82SAPS   H6X 7708   0.562   5.435  10.184 -1.0159  1.2493 -0.8933
   82SAPS   H6Y 7709   0.408   5.509  10.254 -0.6683 -1.1486 -0.9786
   82SAPS   C37 7710   0.386   5.312  10.200 -0.2701  0.3407  0.3065
   82SAPS   H7X 7711   0.326   5.274  10.286  2.3886 -0.9717  1.7165
   82SAPS   H7Y 7712   0.455   5.227  10.179 -1.2391 -0.8388  1.6577
   82SAPS   C38 7713   0.299   5.352  10.088  0.1707 -0.3204  0.2622
   82SAPS   H8X 7714   0.220   5.426  10.113 -0.8153 -1.8049  1.8098
   82SAPS   H8Y 7715   0.244   5.258  10.067  0.9922 -1.0573  1.3138
   82SAPS   C39 7716   0.378   5.381   9.962  0.0053  0.6640  0.2059
   82SAPS   H9X 7717   0.422   5.287   9.923  2.9455  2.3708 -0.9157
   82SAPS   H9Y 7718   0.457   5.457   9.977 -0.9203  1.8306 -0.6412
   82SAPS  C310 7719   0.291   5.454   9.853  0.1441 -0.6430 -0.1721
   82SAPS  H10X 7720   0.244   5.545   9.895 -0.9214 -1.6597  0.9176
   82SAPS  H10Y 7721   0.206   5.387   9.827  0.7515 -1.4979 -0.0061
   82SAPS  C311 7722   0.372   5.486   9.724  0.5902  0.0135  0.1879
   82SAPS  H11X 7723   0.420   5.395   9.682  0.5547 -0.1161  0.4277
   82SAPS  H11Y 7724   0.438   5.576   9.728 -0.4650  0.8947 -1.3023
   82SAPS  C312 7725   0.258   5.513   9.618  0.9784  0.0542  0.1224
   82SAPS  H12X 7726   0.188   5.587   9.661  0.2262 -0.7141  0.2541
   82SAPS  H12Y 7727   0.206   5.415   9.611  0.8638  0.1571 -0.5121
   82SAPS  C313 7728   0.305   5.531   9.470  0.0400 -0.1296  0.2889
   82SAPS  H13X 7729   0.397   5.473   9.443 -0.1562  0.1649 -1.0368
   82SAPS  H13Y 7730   0.335   5.637   9.460 -1.7208  0.5570  1.8803
   82SAPS  C314 7731   0.196   5.492   9.368 -0.1569  0.2177 -0.4144
   82SAPS  H14X 7732   0.106   5.542   9.411  0.2007  1.0183 -0.5947
   82SAPS  H14Y 7733   0.181   5.382   9.355  2.9825 -0.4501  0.8702
   82SAPS  C315 7734   0.227   5.538   9.229 -0.3678 -0.5151 -0.0765
   82SAPS  H15X 7735   0.314   5.482   9.187  0.2721  0.3412  0.0864
   82SAPS  H15Y 7736   0.240   5.648   9.228  0.3660 -0.5286  2.4162
   82SAPS  C316 7737   0.109   5.491   9.138  0.1931 -0.8402  0.2073
   82SAPS  H16X 7738   0.012   5.533   9.172 -0.4936 -0.8997 -1.5525
   82SAPS  H16Y 7739   0.106   5.380   9.133 -3.0729 -0.8135 -1.4861
   82SAPS  C317 7740   0.124   5.548   8.993  0.6234 -0.0283  0.4145
   82SAPS  H17X 7741   0.228   5.527   8.961  0.8810 -2.4866  2.5907
   82SAPS  H17Y 7742   0.092   5.654   8.979 -1.0638 -0.1707  2.7156
   82SAPS  C318 7743   0.041   5.473   8.885  0.1436 -0.6933  0.3584
   82SAPS  H18X 7744   0.076   5.368   8.877 -0.6445 -0.9994  0.9141
   82SAPS  H18Y 7745   0.059   5.517   8.785  0.1322 -1.1273  0.1642
   82SAPS  H18Z 7746  -0.068   5.462   8.902  0.0440  0.5704  0.7115
   83SAPS     N 7747   4.184   1.102  11.012 -0.5258  0.2692  0.1452
   83SAPS   HN1 7748   4.284   1.082  11.033 -0.3846  2.2524  1.6591
   83SAPS   HN2 7749   4.123   1.018  11.008 -0.4505  0.2060  0.3194
   83SAPS   HN3 7750   4.167   1.156  10.925 -0.4791  0.9095  0.5282
   83SAPS   C12 7751   4.138   1.177  11.129 -0.0153 -0.4278 -0.7709
   83SAPS  H12A 7752   4.134   1.119  11.220 -2.3387  2.7338  1.3701
   83SAPS   C13 7753   4.235   1.304  11.158 -0.4735  0.9106  0.4805
   83SAPS  O13A 7754   4.325   1.322  11.071  0.1438  0.3466 -0.2566
   83SAPS  O13B 7755   4.194   1.391  11.239 -0.6126 -0.0989 -0.4024
   83SAPS   C11 7756   3.997   1.230  11.101 -0.3660 -1.2339  0.5032
   83SAPS  H11A 7757   4.002   1.319  11.035 -1.3473 -0.5418  1.3339
   83SAPS  H11B 7758   3.965   1.269  11.200  2.2884 -0.0518  0.9971
   83SAPS     P 7759   3.868   1.004  11.097  0.1189 -0.0034  0.4258
   83SAPS   O13 7760   3.983   0.912  11.073  0.3559  0.1391 -0.1565
   83SAPS   O14 7761   3.820   1.018  11.237 -0.6541  0.5496  0.5034
   83SAPS   O12 7762   3.906   1.142  11.038 -0.5233  0.2973  0.0933
   83SAPS   O11 7763   3.739   0.966  11.009  0.3040 -1.0511  0.0068
   83SAPS    C1 7764   3.751   0.962  10.865  0.1500 -0.7163 -0.4536
   83SAPS    HA 7765   3.840   1.019  10.831 -1.7481  2.4113 -0.5776
   83SAPS    HB 7766   3.750   0.853  10.841 -0.9358 -0.8850  0.2611
   83SAPS    C2 7767   3.628   1.019  10.785 -0.4964  0.1508  0.0787
   83SAPS    HS 7768   3.541   0.949  10.785 -0.9773  0.7295 -1.1942
   83SAPS   O21 7769   3.661   1.032  10.650 -0.2454  0.0431 -0.6047
   83SAPS   C21 7770   3.679   0.918  10.582  0.0564 -0.3390 -0.4736
   83SAPS   O22 7771   3.655   0.805  10.630 -0.0341 -0.3861  0.2843
   83SAPS   C22 7772   3.714   0.956  10.437 -0.1375  1.3835 -0.5188
   83SAPS   H2R 7773   3.824   0.971  10.432 -0.1432  1.2040 -1.3210
   83SAPS   H2S 7774   3.697   0.863  10.378  2.9168  0.0556  0.4858
   83SAPS    C3 7775   3.585   1.161  10.835  0.4687 -0.4250 -0.0849
   83SAPS    HX 7776   3.669   1.233  10.834  0.8469 -0.8665 -0.5600
   83SAPS    HY 7777   3.560   1.156  10.943 -2.7206  0.2875 -0.6980
   83SAPS   O31 7778   3.465   1.207  10.767  0.5152  0.0428  0.0539
   83SAPS   C31 7779   3.474   1.264  10.649 -0.0707 -0.7742  0.0360
   83SAPS   O32 7780   3.573   1.300  10.596  0.2545  0.0746 -0.2107
   83SAPS   C32 7781   3.335   1.279  10.583  0.7361  0.2510  0.1191
   83SAPS   H2X 7782   3.278   1.320  10.669  1.5827 -0.5885  1.1105
   83SAPS   H2Y 7783   3.287   1.186  10.545 -3.6248  1.1418  2.7300
   83SAPS   C23 7784   3.639   1.080  10.380 -0.4094  1.1368 -0.2652
   83SAPS   H3R 7785   3.712   1.164  10.380  0.8490  0.0874 -0.8369
   83SAPS   H3S 7786   3.543   1.108  10.429 -0.8203  0.0538 -0.4276
   83SAPS   C24 7787   3.604   1.070  10.229  0.3071  0.3191 -0.2541
   83SAPS   H4R 7788   3.540   1.155  10.196 -1.1664 -0.5451  0.2852
   83SAPS   H4S 7789   3.549   0.977  10.207  1.0445 -0.5078  1.2454
   83SAPS   C25 7790   3.727   1.066  10.139  0.5070 -0.2304  0.2692
   83SAPS   H5R 7791   3.824   1.065  10.190  1.2145  1.1129 -1.0006
   83SAPS   C26 7792   3.729   1.065  10.006 -0.3451  0.5212  0.2543
   83SAPS   H6R 7793   3.827   1.051   9.958 -0.1849 -0.8695  0.9433
   83SAPS   C27 7794   3.623   1.071   9.901 -0.1322  0.2374  0.4333
   83SAPS   H7R 7795   3.521   1.096   9.937 -1.3175 -3.0993 -0.2325
   83SAPS   H7S 7796   3.608   0.976   9.845  0.7635  1.2741 -1.6899
   83SAPS   C28 7797   3.676   1.174   9.796  0.1798 -0.1962 -0.4677
   83SAPS   H8R 7798   3.686   1.274   9.841  0.2383 -0.1829 -0.5105
   83SAPS   C29 7799   3.699   1.155   9.661 -1.0851 -0.0579 -0.4168
   83SAPS   H9R 7800   3.728   1.242   9.601  0.9321 -0.0054  0.5491
   83SAPS  C210 7801   3.687   1.032   9.578 -0.1836  0.0522 -0.2450
   83SAPS  H10R 7802   3.606   1.033   9.502  0.8124  1.1598 -1.3270
   83SAPS  H10S 7803   3.683   0.937   9.636 -1.7291 -0.3576 -0.9703
   83SAPS  C211 7804   3.813   1.014   9.493  0.3676 -0.8237 -0.0564
   83SAPS  H11R 7805   3.906   0.999   9.551  0.4706  0.0804  0.0363
   83SAPS  C212 7806   3.825   1.029   9.359 -0.0754 -0.1619  0.3531
   83SAPS  H12R 7807   3.925   1.005   9.320 -0.4104 -0.1522 -0.5349
   83SAPS  C213 7808   3.710   1.070   9.262  0.5737 -0.4884  0.4837
   83SAPS  H13R 7809   3.610   1.103   9.299  0.7251  1.1393 -0.4668
   83SAPS  H13S 7810   3.687   0.989   9.189  2.3081  0.2462 -0.9499
   83SAPS  C214 7811   3.751   1.200   9.191  0.3624  0.3719  0.2802
   83SAPS  H14R 7812   3.707   1.289   9.238 -1.3032 -0.7143  0.8419
   83SAPS  C215 7813   3.837   1.213   9.087  0.3478 -0.7167 -0.0925
   83SAPS  H15R 7814   3.850   1.311   9.040 -0.3959 -2.1785 -3.6820
   83SAPS  C216 7815   3.909   1.101   9.021 -0.2920  0.4070 -0.6871
   83SAPS  H16R 7816   3.884   1.003   9.066  0.8454 -0.1475 -1.2329
   83SAPS  H16S 7817   4.017   1.116   9.045 -0.0027  0.4462 -1.9678
   83SAPS  C217 7818   3.900   1.076   8.866 -0.4499  0.1226  0.2879
   83SAPS  H17R 7819   3.793   1.084   8.838 -0.6347  1.0264  1.2146
   83SAPS  H17S 7820   3.939   0.974   8.847  0.2670  0.7902 -2.1187
   83SAPS  C218 7821   3.974   1.165   8.774  0.3143 -0.1265  0.8428
   83SAPS  H18R 7822   4.084   1.161   8.790  0.5492 -0.0699 -0.6126
   83SAPS  H18S 7823   3.932   1.264   8.799  0.4904  0.7322 -1.9551
   83SAPS  C219 7824   3.938   1.141   8.629 -0.2893  0.3174  0.8115
   83SAPS  H19R 7825   3.831   1.156   8.603  0.4875  0.1296 -2.9950
   83SAPS  H19S 7826   3.968   1.037   8.602  1.2447  1.6560 -3.3885
   83SAPS  C220 7827   4.016   1.236   8.534  0.3795  0.1098  0.0970
   83SAPS  H20R 7828   3.970   1.218   8.435 -2.1419  0.1923  1.1701
   83SAPS  H20S 7829   4.126   1.227   8.537  0.4741  0.9041 -0.7143
   83SAPS  H20T 7830   3.976   1.336   8.562  0.2287  0.1113 -0.1210
   83SAPS   C33 7831   3.342   1.372  10.462 -0.3539  0.2363  0.2816
   83SAPS   H3X 7832   3.416   1.333  10.390 -0.5548  0.2346  0.0758
   83SAPS   H3Y 7833   3.388   1.469  10.492  0.3616  0.2459 -0.8107
   83SAPS   C34 7834   3.199   1.408  10.409  0.5971  1.5166  0.8133
   83SAPS   H4X 7835   3.201   1.496  10.340 -0.6709 -0.2202 -1.6049
   83SAPS   H4Y 7836   3.125   1.431  10.488 -0.9993 -1.1931  0.2192
   83SAPS   C35 7837   3.138   1.293  10.328  0.4931 -0.4312  0.3087
   83SAPS   H5X 7838   3.138   1.197  10.385  0.3979 -0.5183  0.1622
   83SAPS   H5Y 7839   3.200   1.256  10.244  2.0937 -0.8954  1.6319
   83SAPS   C36 7840   2.995   1.330  10.280  0.4660 -0.7003  0.5642
   83SAPS   H6X 7841   2.949   1.396  10.357  2.1108  0.1171  0.9020
   83SAPS   H6Y 7842   2.933   1.238  10.279  0.2808 -0.6024  1.6880
   83SAPS   C37 7843   2.995   1.396  10.138 -0.3168 -0.3044 -0.4680
   83SAPS   H7X 7844   3.034   1.327  10.060  1.2442  2.7322 -2.5889
   83SAPS   H7Y 7845   3.061   1.486  10.134 -0.7181  0.0567 -5.7220
   83SAPS   C38 7846   2.862   1.449  10.079  0.6689 -0.8090  0.3265
   83SAPS   H8X 7847   2.836   1.546  10.126 -0.3223  0.3004 -2.3029
   83SAPS   H8Y 7848   2.778   1.379  10.099 -0.6551  0.4422 -0.5983
   83SAPS   C39 7849   2.886   1.474   9.932 -0.1023  0.2096  0.0759
   83SAPS   H9X 7850   2.886   1.383   9.869 -0.4596  1.9104 -2.5730
   83SAPS   H9Y 7851   2.982   1.530   9.927  0.5195 -0.7370  1.1733
   83SAPS  C310 7852   2.777   1.556   9.862 -0.5977  0.2013  0.3120
   83SAPS  H10X 7853   2.768   1.643   9.930  2.0710 -0.1359  1.2148
   83SAPS  H10Y 7854   2.680   1.503   9.849 -0.3698  0.2558 -2.0318
   83SAPS  C311 7855   2.827   1.623   9.737  0.1272 -0.5196  0.8701
   83SAPS  H11X 7856   2.924   1.674   9.749  1.2459 -1.6898 -2.1350
   83SAPS  H11Y 7857   2.758   1.708   9.717  1.4279  0.5216  0.7092
   83SAPS  C312 7858   2.837   1.522   9.618 -0.1665  0.0809 -0.6079
   83SAPS  H12X 7859   2.746   1.461   9.600 -0.2102 -0.3212  0.8114
   83SAPS  H12Y 7860   2.911   1.444   9.648 -1.3106 -0.7778  0.0673
   83SAPS  C313 7861   2.889   1.586   9.486  0.0179 -0.4967  0.4720
   83SAPS  H13X 7862   2.996   1.567   9.463  0.2338  1.3034 -0.1838
   83SAPS  H13Y 7863   2.879   1.697   9.490  0.9303 -0.3703 -0.4018
   83SAPS  C314 7864   2.827   1.527   9.362  0.3778  0.1296 -0.1009
   83SAPS  H14X 7865   2.717   1.540   9.364  0.5940  2.3322  1.1591
   83SAPS  H14Y 7866   2.861   1.422   9.349  2.7103  0.9627 -1.2470
   83SAPS  C315 7867   2.877   1.598   9.235 -0.4464 -0.2992  0.0414
   83SAPS  H15X 7868   2.988   1.598   9.246 -0.4969  1.6854  1.0512
   83SAPS  H15Y 7869   2.856   1.707   9.226 -1.4432 -0.0711  3.6947
   83SAPS  C316 7870   2.825   1.538   9.109  0.5277 -0.1998 -0.4825
   83SAPS  H16X 7871   2.715   1.538   9.096  0.0485 -0.0566  2.9198
   83SAPS  H16Y 7872   2.837   1.428   9.106 -0.2065 -0.2790 -0.5957
   83SAPS  C317 7873   2.898   1.611   8.993  0.7827  0.2394 -0.5201
   83SAPS  H17X 7874   3.004   1.579   8.988  0.5391 -0.9406  1.1040
   83SAPS  H17Y 7875   2.881   1.720   9.012  1.8037  0.3973 -0.4322
   83SAPS  C318 7876   2.835   1.596   8.858  0.9213  0.4746  0.0729
   83SAPS  H18X 7877   2.909   1.647   8.792  1.4313  0.1031  0.3472
   83SAPS  H18Y 7878   2.730   1.631   8.848  0.8462 -0.2998 -2.7649
   83SAPS  H18Z 7879   2.838   1.487   8.840  0.7478  0.7060 -1.4689
   84SAPS     N 7880   6.306   0.065  10.879  0.2043 -0.4328  0.2085
   84SAPS   HN1 7881   6.355   0.100  10.795  0.1271  0.1856  0.4138
   84SAPS   HN2 7882   6.205   0.044  10.867 -0.0272 -0.1761  1.5372
   84SAPS   HN3 7883   6.294   0.144  10.945 -1.2379  0.1428 -0.6922
   84SAPS   C12 7884   6.390  -0.042  10.939  0.7067 -0.6655 -0.8000
   84SAPS  H12A 7885   6.359  -0.040  11.043  0.9924 -1.3365 -0.6964
   84SAPS   C13 7886   6.380  -0.186  10.885  0.3002  0.0444  0.1732
   84SAPS  O13A 7887   6.301  -0.204  10.785  0.3454  0.3021  0.7358
   84SAPS  O13B 7888   6.447  -0.280  10.935  0.0639 -0.7696 -0.4947
   84SAPS   C11 7889   6.543  -0.010  10.934  0.0481 -0.4191  0.7273
   84SAPS  H11A 7890   6.580  -0.028  10.831 -0.7747 -1.3097  0.5697
   84SAPS  H11B 7891   6.596  -0.086  10.995  0.8773  1.0888  1.9725
   84SAPS     P 7892   6.731   0.169  11.021 -0.4441 -0.1895  0.0912
   84SAPS   O13 7893   6.735   0.252  11.139  0.0774  0.1339  0.2319
   84SAPS   O14 7894   6.812   0.046  11.027 -0.3194 -0.8187 -0.3655
   84SAPS   O12 7895   6.582   0.116  10.984  0.4080  0.4926 -0.0035
   84SAPS   O11 7896   6.776   0.243  10.890 -0.0483  0.5299 -0.0490
   84SAPS    C1 7897   6.730   0.368  10.848  0.2976  0.5203  0.7563
   84SAPS    HA 7898   6.692   0.430  10.932 -0.2184  0.8968  0.2532
   84SAPS    HB 7899   6.805   0.420  10.784  0.9945 -2.2988 -0.8700
   84SAPS    C2 7900   6.611   0.357  10.751 -0.4440 -0.6636  0.0752
   84SAPS    HS 7901   6.530   0.317  10.815 -0.6337  0.2869  0.4548
   84SAPS   O21 7902   6.645   0.270  10.636 -0.1453  0.4454  1.0864
   84SAPS   C21 7903   6.553   0.180  10.604 -0.4160  0.3897  0.2534
   84SAPS   O22 7904   6.448   0.160  10.665 -0.6972  0.5229 -0.0347
   84SAPS   C22 7905   6.605   0.089  10.497 -0.0729  0.3330  0.5078
   84SAPS   H2R 7906   6.644   0.153  10.414 -1.4230  0.3663 -0.1319
   84SAPS   H2S 7907   6.688   0.035  10.547  1.0072  2.6793  1.4265
   84SAPS    C3 7908   6.571   0.489  10.687  0.0142 -0.0999  0.1324
   84SAPS    HX 7909   6.659   0.524  10.629 -0.7975  0.3145 -0.8819
   84SAPS    HY 7910   6.564   0.578  10.753  2.0803  1.5608 -1.7409
   84SAPS   O31 7911   6.444   0.469  10.617 -0.6168 -0.0261  0.2020
   84SAPS   C31 7912   6.444   0.465  10.491 -0.0034 -0.5548  0.4736
   84SAPS   O32 7913   6.540   0.450  10.417 -0.2171 -0.2540 -0.9453
   84SAPS   C32 7914   6.294   0.456  10.444  0.6502 -0.0755 -0.5182
   84SAPS   H2X 7915   6.241   0.548  10.478 -0.4617 -1.7766  2.8345
   84SAPS   H2Y 7916   6.249   0.369  10.497 -0.6394  1.0680  0.3462
   84SAPS   C23 7917   6.510  -0.016  10.434 -0.1374 -0.1144  0.4375
   84SAPS   H3R 7918   6.459  -0.079  10.510 -0.2470 -0.5435  0.0188
   84SAPS   H3S 7919   6.571  -0.085  10.372 -1.8193 -1.1714 -0.1148
   84SAPS   C24 7920   6.402   0.050  10.347 -0.1404 -0.1299  0.5847
   84SAPS   H4R 7921   6.458   0.112  10.273  0.2691 -1.2194 -0.0373
   84SAPS   H4S 7922   6.344   0.126  10.403  0.7160  0.0031  1.3334
   84SAPS   C25 7923   6.325  -0.051  10.272  0.5009  0.2165  0.6927
   84SAPS   H5R 7924   6.284  -0.128  10.339  2.4019 -0.5292  1.0734
   84SAPS   C26 7925   6.291  -0.058  10.143  0.1087 -0.2802 -0.0251
   84SAPS   H6R 7926   6.228  -0.143  10.113 -4.1832  2.1834  1.0918
   84SAPS   C27 7927   6.326   0.044  10.034 -0.3871  1.0608 -0.3558
   84SAPS   H7R 7928   6.388  -0.001   9.954 -1.3293 -0.0180 -0.4935
   84SAPS   H7S 7929   6.400   0.114  10.079  0.4321 -1.1383  1.9498
   84SAPS   C28 7930   6.197   0.117   9.989 -0.1156 -0.9032 -0.1862
   84SAPS   H8R 7931   6.156   0.191  10.059  1.1428  0.1480 -0.5314
   84SAPS   C29 7932   6.136   0.112   9.866 -0.3687  0.1707  0.4992
   84SAPS   H9R 7933   6.046   0.175   9.858 -0.4385 -0.0626 -0.5756
   84SAPS  C210 7934   6.177   0.038   9.740  0.2405 -0.1469 -0.2361
   84SAPS  H10R 7935   6.088  -0.020   9.706 -1.6273  2.4121 -0.0254
   84SAPS  H10S 7936   6.266  -0.028   9.751  1.2171  1.1365 -0.1716
   84SAPS  C211 7937   6.213   0.143   9.641  0.3270 -0.3647  0.1461
   84SAPS  H11R 7938   6.291   0.215   9.672 -1.3844  1.7207 -0.1705
   84SAPS  C212 7939   6.163   0.154   9.518 -0.0903 -0.3363 -0.1727
   84SAPS  H12R 7940   6.157   0.255   9.475 -1.8541 -0.3028  0.0754
   84SAPS  C213 7941   6.067   0.060   9.455  0.2610  0.2685 -0.3447
   84SAPS  H13R 7942   5.996   0.107   9.385  1.2437  1.6696 -0.4421
   84SAPS  H13S 7943   6.001   0.015   9.532  0.7040 -1.3681 -0.8693
   84SAPS  C214 7944   6.135  -0.055   9.386 -0.0486 -0.3247  0.5109
   84SAPS  H14R 7945   6.218  -0.099   9.442  0.4537 -1.1708 -0.8368
   84SAPS  C215 7946   6.106  -0.114   9.268 -0.0949  0.1830  0.1230
   84SAPS  H15R 7947   6.173  -0.193   9.232  0.4817  0.1881  1.1446
   84SAPS  C216 7948   5.995  -0.076   9.174 -0.1741 -0.2716  0.3798
   84SAPS  H16R 7949   5.932   0.015   9.186  0.2736  0.1701 -0.5800
   84SAPS  H16S 7950   5.924  -0.161   9.168  0.2851 -0.5310 -2.3385
   84SAPS  C217 7951   6.041  -0.077   9.030 -0.2212  0.1772 -0.1900
   84SAPS  H17R 7952   6.103  -0.163   9.000 -1.2203  0.4779 -3.4818
   84SAPS  H17S 7953   6.100   0.017   9.017 -1.4250  0.8421 -1.1248
   84SAPS  C218 7954   5.928  -0.076   8.933 -0.3866 -0.6236  0.4431
   84SAPS  H18R 7955   5.954  -0.021   8.840  2.8001 -1.1271  0.9119
   84SAPS  H18S 7956   5.844  -0.021   8.981 -1.0182  1.2782 -2.5662
   84SAPS  C219 7957   5.876  -0.211   8.890  0.6561 -0.3239 -0.4254
   84SAPS  H19R 7958   5.782  -0.208   8.832 -0.0570  0.4132  0.7066
   84SAPS  H19S 7959   5.855  -0.273   8.980 -2.8926 -0.5854 -1.3055
   84SAPS  C220 7960   5.962  -0.292   8.794 -0.2046  0.7500 -0.2127
   84SAPS  H20R 7961   6.051  -0.328   8.849  0.1352  1.5369 -0.2301
   84SAPS  H20S 7962   5.999  -0.238   8.704 -0.5117  1.2172 -0.0670
   84SAPS  H20T 7963   5.917  -0.390   8.768  1.2684 -0.0762  0.2304
   84SAPS   C33 7964   6.293   0.424  10.292  0.5572  0.3672 -0.5217
   84SAPS   H3X 7965   6.193   0.383  10.266  1.5665 -3.5518  0.9324
   84SAPS   H3Y 7966   6.342   0.325  10.281 -1.0747 -0.8611  2.1663
   84SAPS   C34 7967   6.328   0.521  10.191  0.4464 -0.3522  0.4289
   84SAPS   H4X 7968   6.412   0.587  10.224 -0.6574  0.7459  1.1158
   84SAPS   H4Y 7969   6.237   0.585  10.186  0.2010 -0.6939  0.5621
   84SAPS   C35 7970   6.347   0.467  10.045 -0.7864  0.0944 -0.3990
   84SAPS   H5X 7971   6.268   0.399  10.009 -0.6818 -0.0215 -0.4082
   84SAPS   H5Y 7972   6.441   0.411  10.034  0.6858  1.9234  1.7658
   84SAPS   C36 7973   6.354   0.582   9.938  0.3822 -0.0706 -0.1026
   84SAPS   H6X 7974   6.427   0.655   9.977  0.9387 -1.2548  1.1665
   84SAPS   H6Y 7975   6.251   0.621   9.929  0.5077  0.0300 -1.1296
   84SAPS   C37 7976   6.406   0.547   9.796 -0.3973 -0.0283  0.2731
   84SAPS   H7X 7977   6.388   0.438   9.791  0.0188 -0.0650 -0.9248
   84SAPS   H7Y 7978   6.517   0.556   9.800 -0.5026  1.2641  0.7322
   84SAPS   C38 7979   6.351   0.624   9.675 -0.5988  0.7279 -0.1273
   84SAPS   H8X 7980   6.370   0.730   9.702  2.3480  0.0993  0.6221
   84SAPS   H8Y 7981   6.242   0.611   9.658 -0.5336 -2.5006  1.1695
   84SAPS   C39 7982   6.439   0.599   9.550  0.1399 -0.0500 -0.7524
   84SAPS   H9X 7983   6.439   0.492   9.521 -2.1924 -0.6312  1.0287
   84SAPS   H9Y 7984   6.543   0.631   9.574  0.1971  2.9049 -4.1272
   84SAPS  C310 7985   6.401   0.684   9.427 -0.5799 -0.4530  0.5190
   84SAPS  H10X 7986   6.464   0.650   9.342  0.0474  3.3219 -0.6967
   84SAPS  H10Y 7987   6.427   0.788   9.454 -0.4255 -0.7017  1.3557
   84SAPS  C311 7988   6.261   0.671   9.368  1.6490 -0.6748  0.1116
   84SAPS  H11X 7989   6.182   0.671   9.446 -0.3284 -3.1871 -1.6990
   84SAPS  H11Y 7990   6.258   0.575   9.312 -0.2120  0.5965 -2.1420
   84SAPS  C312 7991   6.235   0.770   9.248 -0.0265 -0.1426 -1.0601
   84SAPS  H12X 7992   6.325   0.776   9.183  1.5450 -0.1524  0.9924
   84SAPS  H12Y 7993   6.238   0.875   9.284  1.2166 -0.4922 -0.0672
   84SAPS  C313 7994   6.111   0.737   9.166 -0.3646  0.0347 -0.3858
   84SAPS  H13X 7995   6.029   0.718   9.237  0.9687  0.1793  1.2569
   84SAPS  H13Y 7996   6.138   0.639   9.119  2.5796  1.0624 -1.0554
   84SAPS  C314 7997   6.078   0.837   9.057  0.0101 -0.1072  0.2722
   84SAPS  H14X 7998   6.176   0.863   9.011 -0.0902 -0.0866  0.0649
   84SAPS  H14Y 7999   6.025   0.927   9.096  0.9925  0.2585  0.7823
   84SAPS  C315 8000   5.987   0.779   8.940  0.0439 -0.0324 -0.3006
   84SAPS  H15X 8001   5.884   0.776   8.983 -1.1747 -1.5266 -3.0949
   84SAPS  H15Y 8002   6.013   0.675   8.914  0.6614 -0.4814  1.8880
   84SAPS  C316 8003   5.992   0.861   8.817 -0.0016 -0.2711 -1.0113
   84SAPS  H16X 8004   6.039   0.958   8.846 -1.5398 -0.3997  2.4222
   84SAPS  H16Y 8005   5.885   0.869   8.787 -0.9878 -1.3591  1.8788
   84SAPS  C317 8006   6.061   0.779   8.710  0.1047  0.1188  0.5070
   84SAPS  H17X 8007   6.003   0.685   8.696  0.9233  0.0930 -4.4898
   84SAPS  H17Y 8008   6.164   0.756   8.746  1.6793 -0.8525 -3.9600
   84SAPS  C318 8009   6.067   0.849   8.572 -0.0791  0.3237  0.5423
   84SAPS  H18X 8010   6.140   0.794   8.509  0.2689  0.1179  1.1200
   84SAPS  H18Y 8011   6.096   0.957   8.570 -0.2921  0.4350  2.2192
   84SAPS  H18Z 8012   5.973   0.844   8.513  0.2493  2.3157 -0.2420
   85SAPS     N 8013   1.339   0.379  10.935  0.3018  0.6939  0.1716
   85SAPS   HN1 8014   1.363   0.454  10.867  0.9798  0.1657 -0.1897
   85SAPS   HN2 8015   1.430   0.329  10.943 -0.4217 -0.8595 -0.8745
   85SAPS   HN3 8016   1.272   0.318  10.885  1.8475 -0.7907 -0.1819
   85SAPS   C12 8017   1.268   0.417  11.052 -0.2401 -0.9465  0.1855
   85SAPS  H12A 8018   1.184   0.474  11.017  1.2213  2.3292  1.5464
   85SAPS   C13 8019   1.223   0.308  11.147  0.1504  0.1634 -0.8155
   85SAPS  O13A 8020   1.216   0.188  11.107 -0.4225 -0.3288  0.3110
   85SAPS  O13B 8021   1.156   0.341  11.256 -0.4193  0.0113  0.4809
   85SAPS   C11 8022   1.358   0.518  11.130 -0.0616  0.3199  0.3544
   85SAPS  H11A 8023   1.450   0.466  11.165 -0.7348 -0.4096  1.0914
   85SAPS  H11B 8024   1.305   0.543  11.224  2.1734  0.1530  1.7316
   85SAPS     P 8025   1.439   0.760  11.126  0.4994  0.1760 -0.4733
   85SAPS   O13 8026   1.329   0.839  11.187 -0.2860  0.1541  0.1725
   85SAPS   O14 8027   1.554   0.733  11.218 -0.0593 -0.1398  0.1613
   85SAPS   O12 8028   1.376   0.634  11.053  0.2733 -0.0352 -0.1245
   85SAPS   O11 8029   1.489   0.850  11.005  0.5937 -0.3766  0.4683
   85SAPS    C1 8030   1.391   0.911  10.921 -0.1947  0.0562  0.1049
   85SAPS    HA 8031   1.306   0.961  10.972 -1.9382 -0.8925 -1.7086
   85SAPS    HB 8032   1.441   0.994  10.866 -0.7643 -0.6814 -1.5864
   85SAPS    C2 8033   1.324   0.825  10.807 -0.4156  0.5753  0.1031
   85SAPS    HS 8034   1.273   0.739  10.856  1.0165  0.2320  1.0481
   85SAPS   O21 8035   1.429   0.776  10.716  0.4339 -0.2728  0.5164
   85SAPS   C21 8036   1.428   0.646  10.684 -0.5345 -0.3087  0.0716
   85SAPS   O22 8037   1.363   0.558  10.736 -0.0452 -0.3779  0.3338
   85SAPS   C22 8038   1.526   0.637  10.568  0.2710 -0.7447 -0.1728
   85SAPS   H2R 8039   1.554   0.740  10.535 -0.9428 -0.3382  0.0121
   85SAPS   H2S 8040   1.616   0.577  10.595  1.2242  1.0023  0.7465
   85SAPS    C3 8041   1.220   0.914  10.732  0.9576  0.8416  0.5529
   85SAPS    HX 8042   1.282   0.999  10.695  1.1228  1.0813  1.3568
   85SAPS    HY 8043   1.162   0.949  10.820  0.3973  0.8918  0.1715
   85SAPS   O31 8044   1.138   0.849  10.636 -0.3199 -0.0407 -0.1298
   85SAPS   C31 8045   1.183   0.854  10.513 -0.7852 -0.5586 -0.3590
   85SAPS   O32 8046   1.278   0.929  10.475 -0.4724  0.0494  0.2951
   85SAPS   C32 8047   1.091   0.764  10.430  0.8023  0.3990  1.1273
   85SAPS   H2X 8048   0.988   0.766  10.472  0.3147 -0.5591  0.0077
   85SAPS   H2Y 8049   1.127   0.665  10.464  1.3100  0.5212  0.9589
   85SAPS   C23 8050   1.458   0.575  10.441 -1.0024 -0.4690  0.9784
   85SAPS   H3R 8051   1.373   0.638  10.404 -1.6019 -0.8437  1.6952
   85SAPS   H3S 8052   1.415   0.474  10.459 -3.7070  0.3735 -0.2178
   85SAPS   C24 8053   1.553   0.548  10.317  0.1702  1.0296 -0.3235
   85SAPS   H4R 8054   1.492   0.525  10.227  1.0600  0.1146 -0.7010
   85SAPS   H4S 8055   1.620   0.462  10.337 -1.4053 -0.5924 -1.6867
   85SAPS   C25 8056   1.642   0.663  10.291 -0.2976  0.2176  0.2452
   85SAPS   H5R 8057   1.720   0.679  10.367  1.0987 -1.5231 -0.7336
   85SAPS   C26 8058   1.632   0.743  10.188  0.1404 -0.9633 -0.0038
   85SAPS   H6R 8059   1.704   0.826  10.197 -2.6356  1.5253  1.1626
   85SAPS   C27 8060   1.530   0.765  10.076 -0.5011  0.7139  0.0246
   85SAPS   H7R 8061   1.427   0.752  10.117  0.2065  0.8677  1.9683
   85SAPS   H7S 8062   1.534   0.677  10.009 -0.6137  0.2617  0.5957
   85SAPS   C28 8063   1.546   0.896  10.011 -0.4686 -0.4844 -0.3032
   85SAPS   H8R 8064   1.503   0.978  10.070 -0.0707  0.5346 -1.3765
   85SAPS   C29 8065   1.616   0.922   9.894 -0.0572  0.1332 -0.5447
   85SAPS   H9R 8066   1.603   1.019   9.844 -0.1171  0.5002  0.1730
   85SAPS  C210 8067   1.684   0.820   9.808 -0.4981  0.0436  0.5016
   85SAPS  H10R 8068   1.748   0.747   9.862 -2.6507 -2.4054 -0.0321
   85SAPS  H10S 8069   1.754   0.873   9.741 -1.0305  0.5854  0.3706
   85SAPS  C211 8070   1.579   0.752   9.725 -0.9211 -0.6586 -0.8978
   85SAPS  H11R 8071   1.501   0.703   9.785  0.0813 -0.3689  0.7105
   85SAPS  C212 8072   1.552   0.756   9.595 -0.3309  0.5898 -0.2195
   85SAPS  H12R 8073   1.466   0.701   9.553  1.2760 -0.9261 -1.7127
   85SAPS  C213 8074   1.639   0.833   9.489 -0.1756 -0.8291  0.0450
   85SAPS  H13R 8075   1.745   0.847   9.521 -0.0384 -0.4625 -0.5657
   85SAPS  H13S 8076   1.604   0.938   9.485 -1.3781 -1.1664  0.9131
   85SAPS  C214 8077   1.655   0.754   9.361 -0.4126  0.2908 -0.2888
   85SAPS  H14R 8078   1.686   0.649   9.369 -1.0823  0.1952  1.2067
   85SAPS  C215 8079   1.617   0.795   9.243 -0.2256 -0.1279  0.2892
   85SAPS  H15R 8080   1.638   0.729   9.158  0.7285 -0.0376  0.4482
   85SAPS  C216 8081   1.565   0.940   9.225  0.0831  0.2303 -0.1019
   85SAPS  H16R 8082   1.613   1.015   9.292  0.4102 -1.5500  1.7607
   85SAPS  H16S 8083   1.457   0.941   9.250  0.0130  0.4415 -0.4116
   85SAPS  C217 8084   1.594   1.003   9.088 -0.5611 -0.0025 -0.3412
   85SAPS  H17R 8085   1.705   1.005   9.080 -0.3882 -1.4603  1.1334
   85SAPS  H17S 8086   1.559   1.108   9.077 -1.5321 -0.2983 -0.1831
   85SAPS  C218 8087   1.517   0.922   8.976  0.2465 -0.4536  0.4634
   85SAPS  H18R 8088   1.410   0.941   8.999  0.4289 -0.5127  1.4358
   85SAPS  H18S 8089   1.529   0.812   8.993  0.7830 -0.4049  0.4302
   85SAPS  C219 8090   1.567   0.952   8.834  0.2546 -0.2197 -0.1625
   85SAPS  H19R 8091   1.676   0.940   8.814  0.8492  1.8906  1.4993
   85SAPS  H19S 8092   1.570   1.060   8.810  0.9498 -0.0928  0.4698
   85SAPS  C220 8093   1.479   0.876   8.725  0.0951  0.4402 -0.2820
   85SAPS  H20R 8094   1.515   0.771   8.733  1.1048  0.8299  0.5897
   85SAPS  H20S 8095   1.513   0.906   8.624  2.6620  2.0469  0.9501
   85SAPS  H20T 8096   1.368   0.878   8.728  0.1217  1.6811  0.8082
   85SAPS   C33 8097   1.109   0.773  10.280  0.3556 -0.0842  0.0167
   85SAPS   H3X 8098   1.086   0.675  10.234 -1.6200 -0.1116  0.9341
   85SAPS   H3Y 8099   1.216   0.790  10.256  0.5593  0.4972  1.2605
   85SAPS   C34 8100   1.021   0.885  10.216 -0.1186  0.7592  0.4977
   85SAPS   H4X 8101   1.038   0.983  10.265  3.4426 -0.9072  3.1379
   85SAPS   H4Y 8102   0.923   0.848  10.253 -0.0626 -0.1902 -0.2601
   85SAPS   C35 8103   1.031   0.904  10.064  0.1243  0.0627  0.4405
   85SAPS   H5X 8104   0.971   0.996  10.048  1.3462  0.5066 -2.0724
   85SAPS   H5Y 8105   0.977   0.818  10.018  0.3117  0.3096 -0.2470
   85SAPS   C36 8106   1.170   0.900  10.013 -1.1039  0.1861 -0.0305
   85SAPS   H6X 8107   1.216   0.805  10.048  0.1888 -0.4292 -3.0854
   85SAPS   H6Y 8108   1.242   0.979  10.042  0.4696 -1.0152 -0.5106
   85SAPS   C37 8109   1.179   0.870   9.862 -0.1820 -0.3506  0.3481
   85SAPS   H7X 8110   1.090   0.809   9.836 -0.3468 -0.3551  0.9200
   85SAPS   H7Y 8111   1.268   0.805   9.848 -0.8007 -1.0446 -0.5201
   85SAPS   C38 8112   1.196   0.996   9.768  0.1038  0.1846 -0.0743
   85SAPS   H8X 8113   1.280   1.052   9.813  1.4836 -1.1163 -0.9603
   85SAPS   H8Y 8114   1.108   1.064   9.774 -1.0530 -1.2130 -0.4267
   85SAPS   C39 8115   1.218   0.953   9.625  0.2404 -0.1740 -0.2235
   85SAPS   H9X 8116   1.248   0.846   9.631  0.7784 -0.1661 -2.1706
   85SAPS   H9Y 8117   1.310   1.002   9.588 -0.0531 -0.0184 -0.7640
   85SAPS  C310 8118   1.099   0.972   9.540  0.6255  0.2639 -0.5060
   85SAPS  H10X 8119   1.083   1.082   9.536 -2.2268 -0.0442  0.5327
   85SAPS  H10Y 8120   1.003   0.935   9.582 -0.6044  0.0226 -3.3327
   85SAPS  C311 8121   1.120   0.913   9.394  0.6659  0.4471 -0.5351
   85SAPS  H11X 8122   1.121   0.802   9.395  0.0242  0.3703  2.6364
   85SAPS  H11Y 8123   1.222   0.942   9.361  0.5494 -0.6801 -1.9530
   85SAPS  C312 8124   1.016   0.960   9.301  0.4129 -0.3110  0.4795
   85SAPS  H12X 8125   1.014   1.071   9.291 -2.9078 -0.4670 -2.5221
   85SAPS  H12Y 8126   0.918   0.926   9.340  0.6427  0.3058  1.6501
   85SAPS  C313 8127   1.020   0.910   9.153  0.5689 -0.2672  0.5459
   85SAPS  H13X 8128   1.003   0.801   9.145 -0.3921 -0.0317 -1.3247
   85SAPS  H13Y 8129   1.113   0.939   9.099 -1.2649  0.4198 -2.4745
   85SAPS  C314 8130   0.898   0.952   9.069  0.2382 -0.4537  0.2528
   85SAPS  H14X 8131   0.909   1.060   9.045  1.9078 -1.1921 -2.8779
   85SAPS  H14Y 8132   0.800   0.932   9.118  0.3483 -1.0308  0.2502
   85SAPS  C315 8133   0.890   0.872   8.935 -0.0821  0.5013  0.3471
   85SAPS  H15X 8134   0.906   0.764   8.956  0.8616  0.6844  0.6401
   85SAPS  H15Y 8135   0.983   0.902   8.881  0.0535  1.0182  0.8508
   85SAPS  C316 8136   0.758   0.888   8.861  0.0190 -0.1683 -0.5930
   85SAPS  H16X 8137   0.718   0.991   8.850 -0.0764 -0.2253 -0.7909
   85SAPS  H16Y 8138   0.680   0.825   8.910  0.7972 -0.4223  0.3499
   85SAPS  C317 8139   0.762   0.831   8.723 -0.0115  0.0075 -0.2059
   85SAPS  H17X 8140   0.794   0.725   8.726 -0.7671 -0.2797 -1.6184
   85SAPS  H17Y 8141   0.840   0.882   8.663  2.6821 -2.2165  1.1822
   85SAPS  C318 8142   0.632   0.825   8.652 -0.1669  0.4762  0.0425
   85SAPS  H18X 8143   0.636   0.777   8.552 -2.6932  0.8477 -0.2926
   85SAPS  H18Y 8144   0.598   0.929   8.633  2.2964  1.2674 -0.4867
   85SAPS  H18Z 8145   0.556   0.767   8.707 -0.5336 -0.1650 -1.0936
   86SAPS     N 8146   4.948   0.845  10.919  0.3916  0.3381  0.5995
   86SAPS   HN1 8147   5.011   0.921  10.953 -0.0684  0.7815  0.4629
   86SAPS   HN2 8148   5.009   0.761  10.933  2.5519  1.6256 -0.4326
   86SAPS   HN3 8149   4.928   0.852  10.817  2.3843  1.2754  0.2182
   86SAPS   C12 8150   4.822   0.835  11.000  0.2554 -0.3174  0.6968
   86SAPS  H12A 8151   4.820   0.734  11.037  2.0310 -1.2030 -1.4010
   86SAPS   C13 8152   4.823   0.931  11.126 -0.2364  0.7491  0.0412
   86SAPS  O13A 8153   4.924   1.006  11.138  0.2558  0.2125  0.2843
   86SAPS  O13B 8154   4.736   0.924  11.211 -0.0126 -0.0608  0.4310
   86SAPS   C11 8155   4.694   0.871  10.912  0.9888  0.4661 -0.2108
   86SAPS  H11A 8156   4.605   0.827  10.962  0.3754  1.2999 -0.5460
   86SAPS  H11B 8157   4.689   0.824  10.812  0.9860 -0.6069  0.2728
   86SAPS     P 8158   4.542   1.072  10.832 -0.1625  0.1421 -0.4118
   86SAPS   O13 8159   4.428   1.034  10.922 -0.2364 -0.2351 -0.4050
   86SAPS   O14 8160   4.556   1.213  10.793 -0.6768  0.1086 -0.1100
   86SAPS   O12 8161   4.671   1.013  10.898 -0.5638  0.1727  0.5498
   86SAPS   O11 8162   4.530   0.992  10.701 -0.2253  0.3014  0.0220
   86SAPS    C1 8163   4.625   0.998  10.592  0.0567  0.7377  0.4350
   86SAPS    HA 8164   4.626   1.104  10.558 -1.9294  1.2551  1.8568
   86SAPS    HB 8165   4.732   0.978  10.617  1.0227  2.1209 -2.1613
   86SAPS    C2 8166   4.587   0.896  10.485 -0.1309 -0.5235 -0.6106
   86SAPS    HS 8167   4.493   0.927  10.435 -0.7681  1.1826  1.4698
   86SAPS   O21 8168   4.584   0.768  10.549 -0.3816  0.1867  0.4754
   86SAPS   C21 8169   4.456   0.733  10.584  0.0142 -0.2210 -0.7283
   86SAPS   O22 8170   4.355   0.792  10.556 -1.1586  0.5555  0.6562
   86SAPS   C22 8171   4.446   0.600  10.652  0.4032 -0.7342  0.6753
   86SAPS   H2R 8172   4.536   0.591  10.716  1.1182 -2.0590 -0.4760
   86SAPS   H2S 8173   4.347   0.614  10.701 -1.5074  1.2616 -3.2264
   86SAPS    C3 8174   4.694   0.896  10.377  0.0061 -1.4438 -0.3703
   86SAPS    HX 8175   4.674   0.813  10.306  0.8119 -2.0475  0.1007
   86SAPS    HY 8176   4.795   0.875  10.418  0.3341 -1.1187 -0.9763
   86SAPS   O31 8177   4.702   1.028  10.319 -0.2520 -0.0926 -0.3407
   86SAPS   C31 8178   4.641   1.039  10.203  0.3524  0.0448  0.6680
   86SAPS   O32 8179   4.593   0.945  10.142  0.1236 -0.4721  0.0679
   86SAPS   C32 8180   4.666   1.181  10.152 -0.2632 -0.0553  0.9726
   86SAPS   H2X 8181   4.759   1.227  10.191 -0.7986  3.1315 -1.1389
   86SAPS   H2Y 8182   4.589   1.242  10.204  0.8196  1.3480  0.9843
   86SAPS   C23 8183   4.440   0.482  10.556 -0.4833  0.6912 -1.1808
   86SAPS   H3R 8184   4.393   0.511  10.459  0.3063  1.0895 -1.4498
   86SAPS   H3S 8185   4.377   0.409  10.612  1.9249  0.8873  2.0078
   86SAPS   C24 8186   4.585   0.415  10.534 -0.0328  0.2041  0.1430
   86SAPS   H4R 8187   4.581   0.309  10.504 -1.5423  0.0212  0.8583
   86SAPS   H4S 8188   4.631   0.410  10.635 -1.8464  1.7905  1.1321
   86SAPS   C25 8189   4.676   0.490  10.436  0.3000  0.6075  1.0151
   86SAPS   H5R 8190   4.769   0.529  10.479  1.1511 -2.0379  1.7376
   86SAPS   C26 8191   4.653   0.520  10.303 -0.0596  0.0535  0.0178
   86SAPS   H6R 8192   4.736   0.579  10.263  3.2779 -2.8462  2.0121
   86SAPS   C27 8193   4.528   0.488  10.226  0.0341 -0.2639 -0.0579
   86SAPS   H7R 8194   4.444   0.442  10.283  0.0007  0.6910  0.7032
   86SAPS   H7S 8195   4.561   0.401  10.165 -1.0600 -1.5847  1.1493
   86SAPS   C28 8196   4.474   0.596  10.139 -0.5592 -0.4174 -0.1259
   86SAPS   H8R 8197   4.431   0.681  10.194 -1.3101 -0.8334 -0.0562
   86SAPS   C29 8198   4.476   0.607  10.007 -0.4054  0.3573  0.5233
   86SAPS   H9R 8199   4.441   0.699   9.960  0.2071 -0.0140 -0.7200
   86SAPS  C210 8200   4.550   0.523   9.900 -0.5040  0.3480 -0.7183
   86SAPS  H10R 8201   4.517   0.417   9.895 -1.5831  0.7306 -2.8584
   86SAPS  H10S 8202   4.658   0.523   9.925 -0.1187  0.9430 -2.3137
   86SAPS  C211 8203   4.532   0.580   9.759 -0.0447 -0.7125  0.1597
   86SAPS  H11R 8204   4.519   0.689   9.758  1.6313 -0.4007  2.7941
   86SAPS  C212 8205   4.534   0.515   9.642 -0.1036  0.3802  0.0815
   86SAPS  H12R 8206   4.525   0.575   9.551  0.4719 -2.8580 -2.2884
   86SAPS  C213 8207   4.561   0.371   9.623  0.8493 -0.5493  0.5883
   86SAPS  H13R 8208   4.586   0.326   9.722 -0.2306  1.9083  2.0744
   86SAPS  H13S 8209   4.642   0.358   9.548 -0.6111 -1.7634 -0.8619
   86SAPS  C214 8210   4.437   0.308   9.567  0.6161 -0.1011  0.6206
   86SAPS  H14R 8211   4.357   0.310   9.643  0.4689  0.0725  0.4634
   86SAPS  C215 8212   4.410   0.279   9.436  0.5577  0.1884 -0.3517
   86SAPS  H15R 8213   4.315   0.229   9.412  1.5161 -3.9428  3.1584
   86SAPS  C216 8214   4.500   0.285   9.313  0.3758  0.5746 -0.0878
   86SAPS  H16R 8215   4.519   0.184   9.270  0.6775  0.6112 -0.0444
   86SAPS  H16S 8216   4.604   0.314   9.338  0.0956 -0.0259  1.8871
   86SAPS  C217 8217   4.445   0.378   9.211  0.2552 -0.8994  1.4580
   86SAPS  H17R 8218   4.408   0.472   9.257  1.6441  0.7427 -0.5691
   86SAPS  H17S 8219   4.361   0.326   9.159  1.4192 -1.4529  0.0490
   86SAPS  C218 8220   4.553   0.402   9.099  0.6115 -0.0138  0.6868
   86SAPS  H18R 8221   4.611   0.315   9.063  2.2267  0.9169  0.9513
   86SAPS  H18S 8222   4.631   0.468   9.143  1.6820  0.1019 -1.2795
   86SAPS  C219 8223   4.491   0.479   8.977  0.1743 -0.4291  0.5294
   86SAPS  H19R 8224   4.420   0.557   9.010 -1.1927 -0.3553 -2.2931
   86SAPS  H19S 8225   4.433   0.407   8.916 -1.7152  0.4614  1.2072
   86SAPS  C220 8226   4.604   0.542   8.886 -0.0863  0.4827  0.1450
   86SAPS  H20R 8227   4.552   0.593   8.803 -0.8272  2.2412  1.6135
   86SAPS  H20S 8228   4.658   0.464   8.828  1.1639  0.1474  1.6706
   86SAPS  H20T 8229   4.682   0.611   8.926  0.1694  1.4322 -1.9009
   86SAPS   C33 8230   4.669   1.195   9.997  0.2477 -0.5580 -0.4654
   86SAPS   H3X 8231   4.575   1.165   9.946  0.1937  2.1523 -2.2237
   86SAPS   H3Y 8232   4.738   1.120   9.953  0.6860 -0.2582 -0.3007
   86SAPS   C34 8233   4.720   1.337   9.948  0.5047 -0.5938 -0.2992
   86SAPS   H4X 8234   4.826   1.359   9.974  0.5574 -0.7704 -0.3629
   86SAPS   H4Y 8235   4.649   1.417   9.979  1.3841 -0.4780  1.5528
   86SAPS   C35 8236   4.730   1.352   9.797 -0.1591  0.5114  0.0118
   86SAPS   H5X 8237   4.626   1.333   9.764 -0.2622 -2.1036  1.5600
   86SAPS   H5Y 8238   4.797   1.279   9.746  0.1607  1.7835 -1.4814
   86SAPS   C36 8239   4.765   1.488   9.749 -0.1993 -0.4944 -0.2125
   86SAPS   H6X 8240   4.876   1.496   9.753 -0.1627 -1.1811  0.5863
   86SAPS   H6Y 8241   4.719   1.558   9.822 -0.9236 -1.6432  0.4690
   86SAPS   C37 8242   4.732   1.516   9.603  0.3099  0.5208  0.6894
   86SAPS   H7X 8243   4.784   1.611   9.579 -0.2835  0.8750  0.7710
   86SAPS   H7Y 8244   4.621   1.526   9.601  0.0382 -1.7870  1.2902
   86SAPS   C38 8245   4.775   1.410   9.506 -0.1796 -0.4256  0.1313
   86SAPS   H8X 8246   4.727   1.312   9.525  1.0435 -1.0490  0.0937
   86SAPS   H8Y 8247   4.885   1.401   9.505  0.0704  1.4715  2.5400
   86SAPS   C39 8248   4.740   1.438   9.359 -0.3785 -0.3804 -0.0134
   86SAPS   H9X 8249   4.787   1.536   9.336 -1.3924  0.1648  0.1951
   86SAPS   H9Y 8250   4.629   1.443   9.359 -0.3558  0.6765  0.9893
   86SAPS  C310 8251   4.788   1.324   9.266  0.2372  0.3194  0.1916
   86SAPS  H10X 8252   4.756   1.226   9.307  1.6745 -0.1058  0.3602
   86SAPS  H10Y 8253   4.899   1.317   9.266  0.3199  1.3542  0.9040
   86SAPS  C311 8254   4.743   1.329   9.126  0.2541 -0.5964  0.0708
   86SAPS  H11X 8255   4.633   1.331   9.140  0.3521 -0.7656  0.8803
   86SAPS  H11Y 8256   4.774   1.234   9.076  3.3244 -0.6693  1.9151
   86SAPS  C312 8257   4.786   1.452   9.056  0.0356  0.5065  0.5929
   86SAPS  H12X 8258   4.893   1.439   9.028  0.3678 -0.0730  2.0573
   86SAPS  H12Y 8259   4.785   1.538   9.126 -0.6836  1.5498 -0.6570
   86SAPS  C313 8260   4.709   1.489   8.928  0.6579  0.6077 -0.7166
   86SAPS  H13X 8261   4.610   1.445   8.951  1.5063 -0.8024  0.3784
   86SAPS  H13Y 8262   4.753   1.430   8.844  3.5805  0.1945  0.9613
   86SAPS  C314 8263   4.686   1.630   8.888  0.2064 -0.1683  0.4297
   86SAPS  H14X 8264   4.782   1.679   8.860 -0.0823 -0.9799 -2.3455
   86SAPS  H14Y 8265   4.641   1.676   8.978 -1.2938 -0.3844 -0.1853
   86SAPS  C315 8266   4.590   1.632   8.766  0.3078  0.4411 -1.4500
   86SAPS  H15X 8267   4.509   1.558   8.784 -0.9768  1.7748 -1.5361
   86SAPS  H15Y 8268   4.651   1.607   8.676  3.0909 -1.8441  0.8434
   86SAPS  C316 8269   4.526   1.768   8.759  0.4930 -0.3694 -0.1623
   86SAPS  H16X 8270   4.609   1.838   8.735  2.5540 -2.2720  1.0604
   86SAPS  H16Y 8271   4.482   1.797   8.856  2.7883  0.5376  0.6690
   86SAPS  C317 8272   4.421   1.805   8.650  0.4545  0.1830  0.8612
   86SAPS  H17X 8273   4.398   1.914   8.651  1.2512  0.3594  0.7940
   86SAPS  H17Y 8274   4.325   1.751   8.666  0.2921  0.5348  1.1016
   86SAPS  C318 8275   4.475   1.761   8.513  0.6305  0.0018 -0.1385
   86SAPS  H18X 8276   4.410   1.793   8.429 -2.0266 -2.1359  0.9367
   86SAPS  H18Y 8277   4.472   1.649   8.514 -0.4917  0.0213  1.5300
   86SAPS  H18Z 8278   4.579   1.801   8.504  0.8799 -0.5027  0.4333
   87SAPS     N 8279   1.548   2.354  10.704  0.3215 -0.3217 -0.4653
   87SAPS   HN1 8280   1.548   2.304  10.613 -0.8168 -3.4560  1.0788
   87SAPS   HN2 8281   1.646   2.383  10.724  0.5140 -1.5913  0.6460
   87SAPS   HN3 8282   1.508   2.292  10.778 -1.4333  3.8569  2.5023
   87SAPS   C12 8283   1.452   2.474  10.700  0.0164 -0.2993 -0.8285
   87SAPS  H12A 8284   1.449   2.518  10.602 -0.2825  1.0520 -0.2336
   87SAPS   C13 8285   1.310   2.447  10.748  0.0473 -0.0254 -1.3790
   87SAPS  O13A 8286   1.274   2.327  10.773 -0.3726  0.0061 -0.2506
   87SAPS  O13B 8287   1.230   2.542  10.756  0.9842  0.1710 -0.1344
   87SAPS   C11 8288   1.519   2.588  10.782  0.7148  0.3997 -0.8492
   87SAPS  H11A 8289   1.538   2.557  10.887  1.7604 -1.4322 -1.5456
   87SAPS  H11B 8290   1.458   2.681  10.780  0.1598  0.1278  1.1410
   87SAPS     P 8291   1.702   2.731  10.645  0.0663  0.2189 -0.0038
   87SAPS   O13 8292   1.719   2.851  10.730 -0.0500 -0.7398 -0.2683
   87SAPS   O14 8293   1.830   2.685  10.591 -0.1902  0.2705  0.0710
   87SAPS   O12 8294   1.651   2.619  10.743  0.1337  0.2968 -0.1363
   87SAPS   O11 8295   1.580   2.737  10.535  0.0312  0.2967 -0.3887
   87SAPS    C1 8296   1.592   2.684  10.403  0.4672  0.5589  0.4460
   87SAPS    HA 8297   1.681   2.619  10.389 -0.3271 -0.9735  2.0913
   87SAPS    HB 8298   1.507   2.616  10.380  1.9715 -1.7194  1.1817
   87SAPS    C2 8299   1.607   2.804  10.301 -0.0199  0.6031  0.1724
   87SAPS    HS 8300   1.530   2.882  10.320 -1.0328 -0.5900  1.1367
   87SAPS   O21 8301   1.580   2.753  10.170 -0.5173  0.5288 -0.2017
   87SAPS   C21 8302   1.546   2.836  10.076 -0.0865  0.3428 -0.9470
   87SAPS   O22 8303   1.504   2.950  10.096  0.8928 -0.2281  0.2805
   87SAPS   C22 8304   1.557   2.765   9.945  0.8590 -0.0879 -0.0602
   87SAPS   H2R 8305   1.654   2.712   9.941  0.6235 -0.6340  1.0275
   87SAPS   H2S 8306   1.467   2.700   9.944  0.2383  0.7305  0.4287
   87SAPS    C3 8307   1.756   2.865  10.316 -0.6767 -0.4366  0.3580
   87SAPS    HX 8308   1.826   2.783  10.289  0.7230  0.8688 -0.1872
   87SAPS    HY 8309   1.789   2.898  10.417  0.0991  1.0162 -0.3277
   87SAPS   O31 8310   1.781   2.970  10.221  0.1254  0.1506  0.5558
   87SAPS   C31 8311   1.750   3.087  10.256 -0.1904 -0.2833  0.5631
   87SAPS   O32 8312   1.699   3.125  10.359 -0.2384 -0.1527  0.1407
   87SAPS   C32 8313   1.810   3.178  10.150  0.7677  0.2830  0.0049
   87SAPS   H2X 8314   1.747   3.169  10.059 -0.1084  1.3897  0.4651
   87SAPS   H2Y 8315   1.911   3.141  10.123  0.5629  0.6675 -1.3644
   87SAPS   C23 8316   1.548   2.863   9.819  0.2332 -0.3686 -0.0901
   87SAPS   H3R 8317   1.621   2.941   9.846  1.7259 -2.0975  1.1759
   87SAPS   H3S 8318   1.448   2.911   9.820 -0.3925 -1.6003  1.1005
   87SAPS   C24 8319   1.588   2.809   9.683 -0.1881  0.7130  0.4246
   87SAPS   H4R 8320   1.689   2.767   9.702  0.6991  2.4786 -0.0776
   87SAPS   H4S 8321   1.603   2.887   9.605 -0.1431  0.2096 -0.0789
   87SAPS   C25 8322   1.496   2.705   9.636 -0.4825  0.4257 -0.2380
   87SAPS   H5R 8323   1.421   2.663   9.706 -0.3915 -1.4752 -1.2132
   87SAPS   C26 8324   1.484   2.675   9.505 -0.1985  0.2975  0.0086
   87SAPS   H6R 8325   1.414   2.595   9.475  0.2689 -0.2682  0.3982
   87SAPS   C27 8326   1.564   2.727   9.388 -0.0066  0.8170 -0.3242
   87SAPS   H7R 8327   1.622   2.648   9.335  1.6156  1.5316  0.3074
   87SAPS   H7S 8328   1.638   2.806   9.412  1.2460 -0.8079  1.5886
   87SAPS   C28 8329   1.469   2.793   9.288  0.7194  0.1404 -0.2865
   87SAPS   H8R 8330   1.430   2.892   9.316 -1.2956 -0.2442 -1.5682
   87SAPS   C29 8331   1.439   2.742   9.163 -0.2969  0.4813  0.1767
   87SAPS   H9R 8332   1.370   2.797   9.099  0.7561  2.4792  0.6945
   87SAPS  C210 8333   1.491   2.614   9.100 -0.3797  0.5235 -1.1250
   87SAPS  H10R 8334   1.409   2.551   9.059 -0.1812  1.1632 -2.5884
   87SAPS  H10S 8335   1.546   2.554   9.175 -0.8425  2.6970  1.0784
   87SAPS  C211 8336   1.591   2.654   8.989  0.6029 -0.0645  0.8865
   87SAPS  H11R 8337   1.693   2.664   9.029  0.3877  2.8348  0.8775
   87SAPS  C212 8338   1.579   2.646   8.858 -0.1559  0.0657  0.2046
   87SAPS  H12R 8339   1.660   2.691   8.798  0.1939  0.3288  0.8683
   87SAPS  C213 8340   1.456   2.608   8.782  0.2884 -0.0792 -0.4303
   87SAPS  H13R 8341   1.408   2.695   8.734 -0.8710 -0.3969  0.1171
   87SAPS  H13S 8342   1.386   2.556   8.850  0.6330  0.0261  0.0130
   87SAPS  C214 8343   1.502   2.512   8.674 -0.1355  0.1672  0.4085
   87SAPS  H14R 8344   1.581   2.447   8.712  1.2448  2.0630  0.9452
   87SAPS  C215 8345   1.442   2.500   8.550  0.3161  0.0800 -0.2075
   87SAPS  H15R 8346   1.494   2.439   8.475 -0.9284  1.2930 -2.1324
   87SAPS  C216 8347   1.329   2.577   8.491  0.1585 -0.2229 -0.1814
   87SAPS  H16R 8348   1.295   2.644   8.573  0.5278 -0.0245 -0.1881
   87SAPS  H16S 8349   1.238   2.514   8.485 -0.2408  0.2562  0.6372
   87SAPS  C217 8350   1.373   2.646   8.360  0.1360  1.3272 -0.2840
   87SAPS  H17R 8351   1.279   2.686   8.317 -0.5912 -1.1428 -1.1326
   87SAPS  H17S 8352   1.410   2.573   8.285  0.4152 -1.0070  1.9750
   87SAPS  C218 8353   1.470   2.756   8.377  0.6088  0.7992  0.2703
   87SAPS  H18R 8354   1.556   2.730   8.443  0.0731  0.6885  0.9402
   87SAPS  H18S 8355   1.432   2.848   8.426  0.6224  0.4552  0.9429
   87SAPS  C219 8356   1.528   2.797   8.239  0.7492  0.4051  0.3785
   87SAPS  H19R 8357   1.597   2.715   8.210  0.0901  0.4967 -1.6375
   87SAPS  H19S 8358   1.594   2.884   8.260  0.2276  0.8878  0.0578
   87SAPS  C220 8359   1.420   2.849   8.142  0.5031 -0.3397  0.4191
   87SAPS  H20R 8360   1.347   2.916   8.192  0.6602 -0.6895  1.1264
   87SAPS  H20S 8361   1.364   2.761   8.105  0.5141  0.7288 -2.4050
   87SAPS  H20T 8362   1.452   2.900   8.048  1.7420  1.9616  1.9729
   87SAPS   C33 8363   1.803   3.330  10.187  0.0146  0.5424 -0.1176
   87SAPS   H3X 8364   1.863   3.351  10.278 -0.2664  1.9303 -0.2398
   87SAPS   H3Y 8365   1.703   3.375  10.203 -0.6991 -0.9678 -0.1364
   87SAPS   C34 8366   1.865   3.403  10.072  0.2689 -0.0860  0.0861
   87SAPS   H4X 8367   1.792   3.466  10.017  0.6671  0.1732 -0.1541
   87SAPS   H4Y 8368   1.891   3.333   9.990  1.0515 -0.1336  0.3711
   87SAPS   C35 8369   1.992   3.490  10.105  0.5966  0.2697 -0.0406
   87SAPS   H5X 8370   2.079   3.421  10.104  1.0263  0.8156 -0.3122
   87SAPS   H5Y 8371   1.981   3.537  10.205  0.4759 -1.4181  0.7871
   87SAPS   C36 8372   2.015   3.604  10.012 -0.2721 -0.1758 -0.9059
   87SAPS   H6X 8373   2.090   3.670  10.061  0.0275 -0.4818 -0.9483
   87SAPS   H6Y 8374   1.918   3.657  10.026 -0.1748 -0.5176  1.4430
   87SAPS   C37 8375   2.045   3.569   9.868 -0.1547  0.1164  0.4365
   87SAPS   H7X 8376   2.063   3.663   9.813 -1.1171  1.7001  2.6869
   87SAPS   H7Y 8377   1.952   3.522   9.831 -0.5760  0.8994  0.5005
   87SAPS   C38 8378   2.171   3.483   9.848 -0.1467  0.1498 -0.0534
   87SAPS   H8X 8379   2.182   3.409   9.930  0.5524 -0.9135 -1.0911
   87SAPS   H8Y 8380   2.269   3.535   9.850  0.8769 -1.7003 -0.7779
   87SAPS   C39 8381   2.174   3.404   9.717  0.0360  0.1474 -0.4439
   87SAPS   H9X 8382   2.083   3.342   9.704  0.8051 -1.3048  0.8512
   87SAPS   H9Y 8383   2.259   3.333   9.721  0.8343  1.0029 -1.6283
   87SAPS  C310 8384   2.188   3.496   9.600 -0.1819 -0.1769  0.6077
   87SAPS  H10X 8385   2.269   3.569   9.620 -0.7983  0.3661  1.2181
   87SAPS  H10Y 8386   2.098   3.559   9.578  0.7103  1.2186  0.8016
   87SAPS  C311 8387   2.217   3.407   9.480  0.5525 -0.2806  0.5046
   87SAPS  H11X 8388   2.211   3.300   9.510 -1.0196 -0.6760 -1.0417
   87SAPS  H11Y 8389   2.325   3.416   9.455  0.5737 -0.3488  0.5739
   87SAPS  C312 8390   2.127   3.434   9.367  0.3722 -0.1802  0.2475
   87SAPS  H12X 8391   2.151   3.534   9.325 -0.1196  1.5254  3.6501
   87SAPS  H12Y 8392   2.019   3.451   9.385  0.4469  1.4808 -0.6534
   87SAPS  C313 8393   2.146   3.330   9.251 -0.1889  0.1700  0.5906
   87SAPS  H13X 8394   2.166   3.229   9.293  0.6904 -0.6159 -1.5820
   87SAPS  H13Y 8395   2.238   3.358   9.196 -1.6576  0.9269 -1.6094
   87SAPS  C314 8396   2.041   3.318   9.138  0.4304  0.3267 -0.3215
   87SAPS  H14X 8397   1.948   3.294   9.195  1.8423 -0.3495  1.8167
   87SAPS  H14Y 8398   2.079   3.238   9.070  1.7579 -0.3491  1.1679
   87SAPS  C315 8399   2.020   3.441   9.056 -0.5773 -0.0056  0.1926
   87SAPS  H15X 8400   2.025   3.530   9.123  3.2767  1.1313 -1.3189
   87SAPS  H15Y 8401   1.920   3.430   9.010 -0.4130 -1.0395  0.0474
   87SAPS  C316 8402   2.136   3.462   8.954  0.5273  0.2287 -0.8675
   87SAPS  H16X 8403   2.149   3.369   8.895  1.6388 -1.5014  1.8938
   87SAPS  H16Y 8404   2.228   3.472   9.016 -1.7882  0.2757  2.9121
   87SAPS  C317 8405   2.116   3.590   8.878  0.1509  0.5092  0.7137
   87SAPS  H17X 8406   2.072   3.670   8.942  2.0257  0.8032  1.7198
   87SAPS  H17Y 8407   2.041   3.556   8.804  0.9243  1.4513 -0.5496
   87SAPS  C318 8408   2.234   3.640   8.790  0.0678 -0.3241 -0.0063
   87SAPS  H18X 8409   2.329   3.642   8.848  0.5718 -3.3610 -0.5494
   87SAPS  H18Y 8410   2.216   3.738   8.743  0.3946 -0.8151 -1.1966
   87SAPS  H18Z 8411   2.255   3.569   8.707 -0.7705 -1.2725  0.5666
   88SAPS     N 8412   6.149   2.025  10.876 -0.0098  0.5910 -0.2047
   88SAPS   HN1 8413   6.242   2.061  10.847 -0.3037  2.1289  0.6540
   88SAPS   HN2 8414   6.099   1.992  10.791  1.2525 -1.2325 -0.2907
   88SAPS   HN3 8415   6.109   2.114  10.913  0.6574  1.1895 -0.8835
   88SAPS   C12 8416   6.168   1.918  10.984  0.0453 -0.5964  0.4892
   88SAPS  H12A 8417   6.224   1.836  10.942  2.1944  0.4445  1.1562
   88SAPS   C13 8418   6.252   1.976  11.105  0.1885 -0.2785  0.6407
   88SAPS  O13A 8419   6.313   2.083  11.102  0.1946  0.0831 -0.5807
   88SAPS  O13B 8420   6.267   1.891  11.198  0.0753  0.2727 -0.5865
   88SAPS   C11 8421   6.025   1.870  11.016  0.5689 -0.2525 -0.3212
   88SAPS  H11A 8422   5.961   1.954  11.051 -1.2843 -2.1145  1.0411
   88SAPS  H11B 8423   6.026   1.801  11.103 -0.8020 -1.5122 -1.2601
   88SAPS     P 8424   5.975   1.669  10.857  0.4373 -0.3584  0.1645
   88SAPS   O13 8425   6.027   1.591  10.974  0.0004 -0.1285  0.7843
   88SAPS   O14 8426   5.868   1.607  10.776 -0.3196  0.4832 -0.6038
   88SAPS   O12 8427   5.947   1.821  10.895 -0.1161 -0.5785 -0.1924
   88SAPS   O11 8428   6.111   1.695  10.776  0.0442  0.1045  0.3459
   88SAPS    C1 8429   6.100   1.735  10.635 -0.2679  0.1220  0.5397
   88SAPS    HA 8430   6.017   1.808  10.627  0.8875  1.4304 -0.0109
   88SAPS    HB 8431   6.190   1.792  10.603 -0.0938 -0.9469 -1.0216
   88SAPS    C2 8432   6.077   1.610  10.539 -0.0153 -0.1976 -0.2509
   88SAPS    HS 8433   5.979   1.561  10.560 -0.4339  0.6062 -0.3025
   88SAPS   O21 8434   6.187   1.525  10.558 -0.1914 -0.6602  0.3412
   88SAPS   C21 8435   6.164   1.399  10.518  0.1127 -0.0955  0.1487
   88SAPS   O22 8436   6.047   1.354  10.513 -0.1891  0.1843  0.9717
   88SAPS   C22 8437   6.294   1.333  10.496 -0.3234  0.2491  0.0651
   88SAPS   H2R 8438   6.378   1.397  10.461  1.5206 -1.4252  1.2178
   88SAPS   H2S 8439   6.316   1.287  10.595 -1.1855  0.2134  0.2483
   88SAPS    C3 8440   6.056   1.647  10.391 -0.1458 -0.0023 -0.1159
   88SAPS    HX 8441   6.152   1.684  10.349 -0.0544 -0.5045 -0.3609
   88SAPS    HY 8442   5.983   1.731  10.395  0.6121  0.8066 -1.9117
   88SAPS   O31 8443   6.007   1.534  10.307  0.1705  0.1194 -0.1600
   88SAPS   C31 8444   5.873   1.497  10.334 -0.6752  0.6737 -0.3203
   88SAPS   O32 8445   5.794   1.565  10.396  0.2112  0.0374  0.2489
   88SAPS   C32 8446   5.852   1.355  10.278  0.2176  0.2665  0.5658
   88SAPS   H2X 8447   5.872   1.278  10.356 -0.8833 -2.2136 -1.4444
   88SAPS   H2Y 8448   5.917   1.341  10.188 -1.8202  1.0837 -1.0988
   88SAPS   C23 8449   6.279   1.216  10.401 -0.1691 -0.1469  0.3189
   88SAPS   H3R 8450   6.224   1.129  10.442 -0.5933  0.0453  0.1633
   88SAPS   H3S 8451   6.376   1.173  10.366 -2.2075 -3.7993 -1.3617
   88SAPS   C24 8452   6.227   1.266  10.263 -0.3403  0.3048 -0.1204
   88SAPS   H4R 8453   6.122   1.297  10.285 -0.1159  0.9613  0.0520
   88SAPS   H4S 8454   6.231   1.180  10.193 -1.4367  0.9917 -1.0602
   88SAPS   C25 8455   6.310   1.385  10.198 -0.5566  0.7643  0.0736
   88SAPS   H5R 8456   6.411   1.393  10.241 -0.1150 -0.0703 -0.7837
   88SAPS   C26 8457   6.276   1.455  10.092  0.3681 -0.2212  0.2377
   88SAPS   H6R 8458   6.341   1.536  10.057  1.0341 -1.7252 -2.2450
   88SAPS   C27 8459   6.147   1.444  10.003 -0.2350  0.4143 -0.5624
   88SAPS   H7R 8460   6.088   1.539  10.009  0.8317  1.0819 -0.3331
   88SAPS   H7S 8461   6.072   1.379  10.052  1.4231  1.1975  3.4275
   88SAPS   C28 8462   6.186   1.406   9.862  0.7371  0.3673  0.4116
   88SAPS   H8R 8463   6.213   1.301   9.843  1.1229  0.3189  1.1663
   88SAPS   C29 8464   6.203   1.492   9.757  0.3228  0.6290  0.1320
   88SAPS   H9R 8465   6.229   1.448   9.660 -0.9609  2.8516 -1.2904
   88SAPS  C210 8466   6.181   1.643   9.740 -0.5969  0.3130  0.0207
   88SAPS  H10R 8467   6.262   1.683   9.675 -0.2972 -0.5462 -0.1398
   88SAPS  H10S 8468   6.197   1.696   9.837 -0.3869 -1.2250  0.8516
   88SAPS  C211 8469   6.043   1.686   9.692 -0.6949 -0.0120  0.6807
   88SAPS  H11R 8470   5.977   1.672   9.779 -2.0825  4.4783  0.5651
   88SAPS  C212 8471   5.992   1.748   9.588  0.4103  0.6160  0.4971
   88SAPS  H12R 8472   5.883   1.760   9.593  0.1817 -0.9942  0.0503
   88SAPS  C213 8473   6.057   1.801   9.460 -0.3281  0.6084 -0.3242
   88SAPS  H13R 8474   6.147   1.740   9.441 -3.0114 -3.2439 -1.9518
   88SAPS  H13S 8475   6.088   1.907   9.468  0.4038  0.2794  2.4828
   88SAPS  C214 8476   5.961   1.783   9.340 -0.1967  0.1689  0.6987
   88SAPS  H14R 8477   5.906   1.688   9.337 -1.1188  0.7199 -0.8673
   88SAPS  C215 8478   5.932   1.872   9.243 -0.1776 -0.7499  0.3949
   88SAPS  H15R 8479   5.861   1.844   9.163  0.4560  1.9461 -1.2128
   88SAPS  C216 8480   5.990   2.007   9.241 -0.3151 -0.0547 -0.2431
   88SAPS  H16R 8481   6.101   2.011   9.242 -0.2356 -0.8920  2.7834
   88SAPS  H16S 8482   5.948   2.069   9.323  2.5372 -3.1075  3.9461
   88SAPS  C217 8483   5.963   2.066   9.097  0.3829  0.0358 -1.3914
   88SAPS  H17R 8484   5.998   2.171   9.088 -2.0053  1.0000 -0.4271
   88SAPS  H17S 8485   5.854   2.063   9.075  0.2090  4.2003 -2.0056
   88SAPS  C218 8486   6.032   2.004   8.974  0.1149  0.6713  0.3279
   88SAPS  H18R 8487   6.010   1.895   8.970  1.3681  0.3724  1.1332
   88SAPS  H18S 8488   6.142   2.010   8.985  0.5822 -2.4435 -1.4224
   88SAPS  C219 8489   5.997   2.079   8.839 -0.3176  0.0923 -0.2715
   88SAPS  H19R 8490   6.091   2.087   8.780  1.6659  3.1213  2.9314
   88SAPS  H19S 8491   5.976   2.187   8.859  0.1201  0.3584 -1.1982
   88SAPS  C220 8492   5.883   2.024   8.748 -0.2164  0.5104  0.6752
   88SAPS  H20R 8493   5.885   1.914   8.730 -0.9686  0.7374 -1.0096
   88SAPS  H20S 8494   5.893   2.065   8.646 -0.0151 -0.6678  0.2008
   88SAPS  H20T 8495   5.780   2.042   8.784 -1.0288 -0.6184 -0.9632
   88SAPS   C33 8496   5.703   1.327  10.232 -0.2024 -0.2176 -0.1725
   88SAPS   H3X 8497   5.623   1.341  10.307 -0.5661  0.2024 -0.6348
   88SAPS   H3Y 8498   5.702   1.218  10.213 -1.0067 -0.1377 -0.6375
   88SAPS   C34 8499   5.652   1.409  10.107  0.5362  0.0163 -0.0386
   88SAPS   H4X 8500   5.636   1.515  10.136 -0.9759 -0.1988 -0.0391
   88SAPS   H4Y 8501   5.552   1.365  10.086  1.2669 -1.2379 -1.0148
   88SAPS   C35 8502   5.734   1.378   9.981  0.1165  0.5541  1.0850
   88SAPS   H5X 8503   5.761   1.271   9.978 -0.0480  0.4487  2.6784
   88SAPS   H5Y 8504   5.824   1.444   9.978 -0.1331  0.9112  1.2836
   88SAPS   C36 8505   5.647   1.399   9.854 -1.1192 -0.3434  0.6186
   88SAPS   H6X 8506   5.587   1.491   9.868 -0.7717 -0.2048  1.2060
   88SAPS   H6Y 8507   5.581   1.312   9.833 -1.2066 -0.0662 -0.3196
   88SAPS   C37 8508   5.737   1.424   9.724 -0.4491 -0.6055  0.2961
   88SAPS   H7X 8509   5.785   1.328   9.694  0.8350  0.2078 -0.3769
   88SAPS   H7Y 8510   5.808   1.502   9.758  0.0472 -0.4535 -1.0180
   88SAPS   C38 8511   5.644   1.472   9.608  0.6965 -0.4359 -0.5241
   88SAPS   H8X 8512   5.579   1.555   9.644  2.2304  0.7567 -0.3513
   88SAPS   H8Y 8513   5.575   1.386   9.597 -0.6705  0.5287  0.1635
   88SAPS   C39 8514   5.720   1.513   9.485  0.6099  0.0891  0.0136
   88SAPS   H9X 8515   5.794   1.439   9.448 -1.2646 -1.0449 -1.6631
   88SAPS   H9Y 8516   5.773   1.610   9.498 -0.8858  0.7647  1.3442
   88SAPS  C310 8517   5.623   1.535   9.368  0.1832  0.8564  0.3451
   88SAPS  H10X 8518   5.690   1.559   9.282  0.3814  0.8827  0.5041
   88SAPS  H10Y 8519   5.564   1.625   9.394 -2.5915 -1.4621  2.7598
   88SAPS  C311 8520   5.532   1.407   9.344  0.0054 -0.2829 -0.5759
   88SAPS  H11X 8521   5.453   1.408   9.422 -0.0875  0.3547 -0.6711
   88SAPS  H11Y 8522   5.590   1.315   9.364  0.9727  0.5022  0.3782
   88SAPS  C312 8523   5.475   1.393   9.204 -0.1202 -0.1967 -0.1909
   88SAPS  H12X 8524   5.435   1.493   9.176  2.3097  0.9318  0.1065
   88SAPS  H12Y 8525   5.395   1.317   9.208  2.4906 -3.1810 -0.9169
   88SAPS  C313 8526   5.581   1.350   9.103 -0.0996 -0.5677  0.1661
   88SAPS  H13X 8527   5.630   1.251   9.119  3.2994  0.3634 -3.1314
   88SAPS  H13Y 8528   5.670   1.414   9.119 -1.4937  1.5270 -0.0623
   88SAPS  C314 8529   5.529   1.360   8.960 -0.3982  0.0598  0.1186
   88SAPS  H14X 8530   5.469   1.453   8.955 -1.8125 -0.8465 -0.4900
   88SAPS  H14Y 8531   5.475   1.266   8.932 -0.3133  0.5228 -1.7444
   88SAPS  C315 8532   5.645   1.369   8.860 -0.2655  0.3785 -1.5054
   88SAPS  H15X 8533   5.713   1.282   8.867 -0.9999 -0.2794 -2.3272
   88SAPS  H15Y 8534   5.700   1.455   8.903  0.5949 -0.6724 -0.4304
   88SAPS  C316 8535   5.611   1.395   8.715  0.1789 -0.2930  0.0385
   88SAPS  H16X 8536   5.683   1.469   8.674 -1.3078  1.4452  0.4183
   88SAPS  H16Y 8537   5.507   1.435   8.714 -0.1471 -1.1194  0.3902
   88SAPS  C317 8538   5.587   1.272   8.622 -0.4598 -0.0800 -0.1314
   88SAPS  H17X 8539   5.543   1.320   8.532  1.2938  1.4196 -0.2425
   88SAPS  H17Y 8540   5.513   1.205   8.671 -1.5698  0.1689 -1.4268
   88SAPS  C318 8541   5.701   1.179   8.572 -0.6297  0.2601 -0.3517
   88SAPS  H18X 8542   5.778   1.234   8.513  1.1620 -1.1830  0.5374
   88SAPS  H18Y 8543   5.659   1.100   8.507  0.2595 -0.8239  0.3512
   88SAPS  H18Z 8544   5.760   1.127   8.650  0.1510  0.1974 -0.9701
   89SAPS     N 8545   0.371   3.352  10.899  0.3635 -0.4863  0.1566
   89SAPS   HN1 8546   0.274   3.314  10.890 -0.3298  1.0829  0.6377
   89SAPS   HN2 8547   0.403   3.390  10.808  0.0865  0.5801  0.4950
   89SAPS   HN3 8548   0.437   3.274  10.916  0.2118 -0.7700 -0.5137
   89SAPS   C12 8549   0.382   3.452  11.007 -0.7679  0.3772 -0.1715
   89SAPS  H12A 8550   0.303   3.525  10.998 -0.2636  0.7212 -2.2557
   89SAPS   C13 8551   0.368   3.387  11.146 -0.2173 -0.0191 -0.1726
   89SAPS  O13A 8552   0.334   3.267  11.167 -0.3922 -0.1615 -0.2283
   89SAPS  O13B 8553   0.354   3.470  11.242  0.2844 -0.8231  0.1215
   89SAPS   C11 8554   0.524   3.517  11.001  0.5322 -0.4506 -0.1411
   89SAPS  H11A 8555   0.594   3.436  11.032 -1.4922 -2.0134  0.5468
   89SAPS  H11B 8556   0.518   3.592  11.083  3.5299 -1.1076  0.8453
   89SAPS     P 8557   0.649   3.701  10.863  0.5665  0.1605 -0.1037
   89SAPS   O13 8558   0.588   3.808  10.948  0.0425  0.4696 -0.3924
   89SAPS   O14 8559   0.792   3.669  10.899  0.3919 -0.2013 -0.0397
   89SAPS   O12 8560   0.558   3.571  10.872  0.0262 -0.3602  0.7562
   89SAPS   O11 8561   0.648   3.741  10.715 -0.8576  0.2517 -0.1296
   89SAPS    C1 8562   0.548   3.681  10.628 -0.3095  0.8774  0.6101
   89SAPS    HA 8563   0.459   3.641  10.680 -0.0618 -2.2157 -1.1020
   89SAPS    HB 8564   0.520   3.752  10.547  0.9979  1.5901  0.7589
   89SAPS    C2 8565   0.614   3.559  10.558  0.0469 -0.0235 -0.8431
   89SAPS    HS 8566   0.667   3.490  10.627 -2.0544 -0.7360  0.1432
   89SAPS   O21 8567   0.702   3.604  10.458 -0.0915  0.0829  0.0718
   89SAPS   C21 8568   0.792   3.521  10.411  0.6860 -0.0757  0.3014
   89SAPS   O22 8569   0.785   3.400  10.431 -0.4958  0.0109 -0.4311
   89SAPS   C22 8570   0.893   3.584  10.318  0.1426 -0.2965 -0.2537
   89SAPS   H2R 8571   0.879   3.549  10.213 -1.1309 -0.4189 -0.0593
   89SAPS   H2S 8572   0.892   3.693  10.339 -1.4281 -0.1493 -0.9569
   89SAPS    C3 8573   0.499   3.473  10.488 -0.0342  0.2026  0.0302
   89SAPS    HX 8574   0.410   3.481  10.553  0.2345  1.4186  0.2697
   89SAPS    HY 8575   0.534   3.367  10.493  0.7721  0.4722  0.1748
   89SAPS   O31 8576   0.474   3.516  10.351 -0.3074  0.2863  0.4656
   89SAPS   C31 8577   0.362   3.582  10.329  0.3487  0.7903 -0.3784
   89SAPS   O32 8578   0.267   3.604  10.404 -0.2215 -0.1404 -0.2833
   89SAPS   C32 8579   0.368   3.621  10.179 -0.1684  1.0232 -0.8539
   89SAPS   H2X 8580   0.410   3.544  10.111  0.3262  1.1639 -0.7130
   89SAPS   H2Y 8581   0.434   3.711  10.179  0.3246  0.6782  0.3458
   89SAPS   C23 8582   1.036   3.538  10.360  0.3735 -0.1438 -0.3474
   89SAPS   H3R 8583   1.037   3.430  10.335 -1.3501 -0.1063 -0.7097
   89SAPS   H3S 8584   1.044   3.558  10.469 -0.4522  3.2666 -0.7800
   89SAPS   C24 8585   1.152   3.605  10.281  0.1211 -0.2870  0.1151
   89SAPS   H4R 8586   1.143   3.715  10.295 -1.6583 -0.5142  1.0176
   89SAPS   H4S 8587   1.127   3.574  10.177 -0.7817 -0.0487  0.2492
   89SAPS   C25 8588   1.284   3.543  10.331  0.0989 -0.6720 -1.3742
   89SAPS   H5R 8589   1.295   3.546  10.441  0.9409  0.3554 -1.4677
   89SAPS   C26 8590   1.372   3.464  10.267  0.9136  0.3060  0.4928
   89SAPS   H6R 8591   1.460   3.450  10.331  0.0695 -0.2753  1.5620
   89SAPS   C27 8592   1.374   3.436  10.126  1.0898 -0.3951 -0.3219
   89SAPS   H7R 8593   1.474   3.422  10.080  0.7850  2.9185 -2.3712
   89SAPS   H7S 8594   1.328   3.522  10.073  0.6462 -1.6001 -1.9452
   89SAPS   C28 8595   1.300   3.306  10.098  0.1096  0.0801  0.1099
   89SAPS   H8R 8596   1.262   3.256  10.188  2.4904  0.9335  1.6948
   89SAPS   C29 8597   1.276   3.252   9.976 -0.6429  0.3192 -0.8184
   89SAPS   H9R 8598   1.224   3.155   9.977 -1.3565  0.6641 -1.9673
   89SAPS  C210 8599   1.316   3.302   9.843  0.1048 -0.2599  0.0909
   89SAPS  H10R 8600   1.364   3.401   9.859  2.4769 -1.4270  0.6409
   89SAPS  H10S 8601   1.224   3.314   9.782  0.2701  2.3805  0.2548
   89SAPS  C211 8602   1.416   3.209   9.780 -0.0822 -0.7161  0.0003
   89SAPS  H11R 8603   1.495   3.187   9.853  0.3370 -0.4049 -0.3544
   89SAPS  C212 8604   1.423   3.154   9.656 -0.4060 -0.5761 -0.4515
   89SAPS  H12R 8605   1.521   3.108   9.637  0.3619  1.2186 -1.0631
   89SAPS  C213 8606   1.328   3.163   9.533  0.3765 -0.1401  0.2678
   89SAPS  H13R 8607   1.222   3.150   9.566  1.0859 -0.3325  2.7221
   89SAPS  H13S 8608   1.346   3.080   9.462  2.9844  1.0386 -0.5451
   89SAPS  C214 8609   1.317   3.291   9.466 -0.3612 -0.4734  0.4456
   89SAPS  H14R 8610   1.343   3.384   9.518 -3.0423  0.2419  0.6588
   89SAPS  C215 8611   1.282   3.304   9.337  0.4221 -0.5602  0.2594
   89SAPS  H15R 8612   1.272   3.405   9.294 -0.2524 -1.6159 -2.2487
   89SAPS  C216 8613   1.256   3.190   9.241  1.0778 -0.2076  0.6359
   89SAPS  H16R 8614   1.214   3.098   9.287 -0.6612 -1.2557 -2.6727
   89SAPS  H16S 8615   1.341   3.160   9.174  1.2250  0.5180  0.4957
   89SAPS  C217 8616   1.141   3.239   9.141 -0.5610  0.1058  0.0261
   89SAPS  H17R 8617   1.061   3.289   9.199 -0.7459 -1.2315  0.9695
   89SAPS  H17S 8618   1.088   3.145   9.115 -0.0637 -0.3566  0.6322
   89SAPS  C218 8619   1.179   3.321   9.019 -0.1203 -0.5388  0.6107
   89SAPS  H18R 8620   1.280   3.288   8.988 -0.4723  1.0705 -2.6854
   89SAPS  H18S 8621   1.221   3.419   9.051  0.4331 -0.4720 -0.2937
   89SAPS  C219 8622   1.068   3.317   8.911 -0.3066  0.8222 -0.0820
   89SAPS  H19R 8623   0.973   3.361   8.946 -1.5728 -2.2512  0.6568
   89SAPS  H19S 8624   1.055   3.207   8.896  1.1497  0.7149 -0.7177
   89SAPS  C220 8625   1.098   3.396   8.785  0.3910 -0.1589 -0.5297
   89SAPS  H20R 8626   1.192   3.362   8.736 -0.2569  0.6004 -2.3954
   89SAPS  H20S 8627   1.094   3.505   8.809 -0.7370 -0.6474  1.8424
   89SAPS  H20T 8628   1.026   3.380   8.702 -2.5177 -2.4105  2.1676
   89SAPS   C33 8629   0.239   3.670  10.111 -0.0708  0.4752 -0.9745
   89SAPS   H3X 8630   0.199   3.753  10.173  4.5174  1.1517  1.4771
   89SAPS   H3Y 8631   0.154   3.598  10.112  1.2686 -1.1413  0.4011
   89SAPS   C34 8632   0.263   3.728   9.971  0.8000  0.3066  0.9114
   89SAPS   H4X 8633   0.334   3.812   9.989  0.8779 -0.0414  2.3916
   89SAPS   H4Y 8634   0.165   3.763   9.933  0.8902 -0.8697 -0.5058
   89SAPS   C35 8635   0.320   3.623   9.870  0.3369 -0.6356 -0.5415
   89SAPS   H5X 8636   0.414   3.586   9.916 -0.7286 -1.4171  1.1052
   89SAPS   H5Y 8637   0.333   3.673   9.771  0.5832  0.7388  0.1549
   89SAPS   C36 8638   0.230   3.502   9.861  0.0473 -0.0227  0.6893
   89SAPS   H6X 8639   0.136   3.541   9.818  1.9577  1.9783 -2.0024
   89SAPS   H6Y 8640   0.217   3.458   9.962  2.3749 -0.8162  0.7094
   89SAPS   C37 8641   0.294   3.392   9.775 -0.1003  0.0182 -0.5154
   89SAPS   H7X 8642   0.280   3.296   9.830  1.1194 -0.5799 -1.2086
   89SAPS   H7Y 8643   0.402   3.419   9.776 -0.5931  2.1108 -0.7128
   89SAPS   C38 8644   0.241   3.381   9.629  0.4243  0.4613  0.2285
   89SAPS   H8X 8645   0.130   3.389   9.624  0.2108  0.4871  3.3902
   89SAPS   H8Y 8646   0.273   3.281   9.591 -0.4721  0.2149  0.0839
   89SAPS   C39 8647   0.297   3.493   9.541  0.5578 -0.7895 -0.2136
   89SAPS   H9X 8648   0.406   3.499   9.561  0.5506 -0.5476 -0.2431
   89SAPS   H9Y 8649   0.254   3.593   9.566  1.7685 -0.0787 -0.8763
   89SAPS  C310 8650   0.258   3.472   9.391  0.4564  0.4457  0.1705
   89SAPS  H10X 8651   0.150   3.499   9.382 -0.1297 -2.1091 -1.4652
   89SAPS  H10Y 8652   0.266   3.363   9.376 -0.6430  0.2784  0.6905
   89SAPS  C311 8653   0.357   3.549   9.305 -0.7110 -0.0790  0.2295
   89SAPS  H11X 8654   0.347   3.519   9.198 -1.5316 -2.4374  0.9050
   89SAPS  H11Y 8655   0.460   3.524   9.338  0.2232  0.4278 -2.1309
   89SAPS  C312 8656   0.340   3.709   9.314  0.7690  0.8052 -0.4546
   89SAPS  H12X 8657   0.381   3.745   9.411 -0.5514  0.5511  0.2286
   89SAPS  H12Y 8658   0.233   3.734   9.332  0.4893  2.1319 -3.4349
   89SAPS  C313 8659   0.371   3.777   9.184  0.4840 -0.0510 -0.7441
   89SAPS  H13X 8660   0.328   3.726   9.095  0.2238  0.4915 -0.9292
   89SAPS  H13Y 8661   0.480   3.758   9.170  0.1568 -2.2273 -0.7468
   89SAPS  C314 8662   0.329   3.920   9.193 -0.2100 -0.2231 -0.2563
   89SAPS  H14X 8663   0.336   3.948   9.301  0.3310 -1.0650 -0.0626
   89SAPS  H14Y 8664   0.221   3.940   9.175  0.0354  1.5729  0.0690
   89SAPS  C315 8665   0.424   4.020   9.118 -0.0546 -0.4009 -0.2215
   89SAPS  H15X 8666   0.424   3.996   9.009  0.4719  1.0913 -0.5826
   89SAPS  H15Y 8667   0.533   4.018   9.138  0.3888 -1.1056 -2.4029
   89SAPS  C316 8668   0.359   4.166   9.122  0.3921  0.1968 -0.5295
   89SAPS  H16X 8669   0.343   4.206   9.225 -0.0070 -1.9899  0.3113
   89SAPS  H16Y 8670   0.254   4.150   9.088  0.7356 -0.5679 -1.2508
   89SAPS  C317 8671   0.430   4.261   9.017 -0.3443  0.1958 -0.1456
   89SAPS  H17X 8672   0.533   4.289   9.047  1.3651 -0.3192 -4.6616
   89SAPS  H17Y 8673   0.364   4.350   9.015 -2.9175 -1.5917  0.5841
   89SAPS  C318 8674   0.445   4.215   8.870 -0.0158  0.2635  0.3185
   89SAPS  H18X 8675   0.491   4.114   8.863 -0.6613 -0.0605  0.7362
   89SAPS  H18Y 8676   0.505   4.279   8.801  1.4145 -1.5357 -0.1901
   89SAPS  H18Z 8677   0.344   4.188   8.835  0.4310 -1.5945  0.3485
   90SAPS     N 8678   4.001   3.120  10.962  0.9592  0.0250  0.3923
   90SAPS   HN1 8679   3.909   3.107  10.915  0.3973  1.0303  1.1767
   90SAPS   HN2 8680   4.005   3.076  11.056  0.7972 -0.1917  0.3001
   90SAPS   HN3 8681   4.021   3.222  10.971  2.6083 -0.3949  2.1368
   90SAPS   C12 8682   4.112   3.084  10.868  0.6337 -0.2561 -0.0608
   90SAPS  H12A 8683   4.104   3.140  10.776  0.4161  1.7026  1.0819
   90SAPS   C13 8684   4.245   3.120  10.937 -0.3995  0.6434  0.6075
   90SAPS  O13A 8685   4.250   3.210  11.023 -0.3560  0.0076  0.0445
   90SAPS  O13B 8686   4.347   3.102  10.862 -0.0162  0.6890 -0.4601
   90SAPS   C11 8687   4.118   2.928  10.835  0.3981 -0.4703  0.5074
   90SAPS  H11A 8688   4.128   2.869  10.928  2.0357  0.7465  1.1293
   90SAPS  H11B 8689   4.207   2.910  10.770  0.5568  2.9807 -0.4306
   90SAPS     P 8690   3.973   2.739  10.726  0.1734 -0.0892  0.5203
   90SAPS   O13 8691   4.096   2.662  10.711 -0.7598 -0.1079 -0.6015
   90SAPS   O14 8692   3.875   2.684  10.822  0.5327 -0.0867 -0.3923
   90SAPS   O12 8693   4.004   2.892  10.755 -0.2503 -0.2485  0.1691
   90SAPS   O11 8694   3.905   2.742  10.583  0.4918 -0.8595 -0.3798
   90SAPS    C1 8695   3.936   2.848  10.491 -0.1072 -0.5523 -0.0697
   90SAPS    HA 8696   4.045   2.869  10.498 -0.1604 -0.7674  2.3784
   90SAPS    HB 8697   3.922   2.806  10.389 -0.2389 -0.3542 -0.1345
   90SAPS    C2 8698   3.841   2.971  10.503 -0.3340  0.3752 -0.7794
   90SAPS    HS 8699   3.868   3.012  10.604 -1.1217 -0.2265 -0.3172
   90SAPS   O21 8700   3.708   2.927  10.486 -0.5488  0.3143 -0.1251
   90SAPS   C21 8701   3.615   2.977  10.570 -0.2100  0.0134  0.0907
   90SAPS   O22 8702   3.633   3.025  10.682 -0.8307  0.1808  0.6269
   90SAPS   C22 8703   3.477   2.928  10.506 -0.1670  0.2935 -0.0001
   90SAPS   H2R 8704   3.476   2.918  10.395  0.6338  0.8458 -0.0696
   90SAPS   H2S 8705   3.459   2.831  10.556  0.0387  0.0740 -0.3469
   90SAPS    C3 8706   3.874   3.084  10.393 -0.3769 -0.2953 -0.5604
   90SAPS    HX 8707   3.983   3.102  10.404 -0.0403 -2.3342 -0.1609
   90SAPS    HY 8708   3.825   3.177  10.428  0.9205  0.0392  0.4718
   90SAPS   O31 8709   3.831   3.050  10.255  0.5247  0.3132  0.5567
   90SAPS   C31 8710   3.925   3.026  10.164  0.3664 -0.1608 -0.1345
   90SAPS   O32 8711   4.044   3.022  10.181 -0.0793  0.4841 -0.3479
   90SAPS   C32 8712   3.857   3.016  10.035  0.4046 -0.9776  0.2704
   90SAPS   H2X 8713   3.788   3.102  10.018  1.4481 -0.7307 -3.7856
   90SAPS   H2Y 8714   3.795   2.924  10.024  1.1432 -1.4505  0.0151
   90SAPS   C23 8715   3.360   3.021  10.545  0.3260  0.2039 -0.1347
   90SAPS   H3R 8716   3.361   3.113  10.483  0.4688 -0.7017 -1.5107
   90SAPS   H3S 8717   3.383   3.051  10.650 -0.9999 -1.9118  0.8508
   90SAPS   C24 8718   3.215   2.960  10.536 -0.5441  0.3041  0.6627
   90SAPS   H4R 8719   3.226   2.868  10.598  0.9778  0.3718  0.5367
   90SAPS   H4S 8720   3.199   2.931  10.430  2.2996 -2.1721  0.7615
   90SAPS   C25 8721   3.108   3.062  10.583 -0.5250 -0.0376  0.5331
   90SAPS   H5R 8722   3.057   3.039  10.678  0.5281 -3.1102  0.4546
   90SAPS   C26 8723   3.071   3.169  10.513  0.1925 -0.8653  0.1139
   90SAPS   H6R 8724   2.995   3.229  10.566 -0.1365 -0.4266 -0.8387
   90SAPS   C27 8725   3.122   3.223  10.383  0.0625  0.5059  0.4058
   90SAPS   H7R 8726   3.101   3.144  10.309  1.6311  1.6783 -1.3626
   90SAPS   H7S 8727   3.232   3.231  10.379  0.2942 -2.0812  0.3113
   90SAPS   C28 8728   3.068   3.352  10.328  0.8338 -0.1214 -1.0679
   90SAPS   H8R 8729   3.034   3.420  10.407  2.5132 -0.2645 -0.1775
   90SAPS   C29 8730   3.064   3.397  10.200  0.2506  0.0000  0.1240
   90SAPS   H9R 8731   3.008   3.491  10.184 -1.6641 -0.9075  1.0645
   90SAPS  C210 8732   3.121   3.308  10.088  0.3645  0.3482 -0.0572
   90SAPS  H10R 8733   3.036   3.246  10.055  1.0176 -0.2784 -0.6023
   90SAPS  H10S 8734   3.203   3.243  10.126  0.0288 -0.0583 -0.0244
   90SAPS  C211 8735   3.190   3.401   9.984 -0.2832 -0.5825 -0.5072
   90SAPS  H11R 8736   3.287   3.442  10.017  0.7527 -1.9254 -1.7809
   90SAPS  C212 8737   3.146   3.429   9.862 -0.3859  0.1165  0.4870
   90SAPS  H12R 8738   3.213   3.498   9.808 -0.5337 -0.8367 -0.9608
   90SAPS  C213 8739   3.015   3.387   9.794 -0.0303 -0.3298  0.0896
   90SAPS  H13R 8740   2.991   3.280   9.813  1.3937 -0.5049  1.0979
   90SAPS  H13S 8741   3.038   3.387   9.685 -3.7889  1.3436 -0.8503
   90SAPS  C214 8742   2.900   3.485   9.830 -0.1001 -0.3082 -0.0848
   90SAPS  H14R 8743   2.865   3.446   9.927 -0.0497 -3.3027 -1.1668
   90SAPS  C215 8744   2.848   3.587   9.761  0.4899 -0.4836  0.2388
   90SAPS  H15R 8745   2.762   3.636   9.809  0.7134  1.4043 -1.1756
   90SAPS  C216 8746   2.897   3.627   9.619  0.5075 -0.0107  0.3591
   90SAPS  H16R 8747   2.950   3.545   9.567  2.5000  1.8735 -0.7266
   90SAPS  H16S 8748   2.966   3.714   9.624 -1.0455  1.2100  2.3803
   90SAPS  C217 8749   2.787   3.682   9.527  0.0253  0.1720  0.4147
   90SAPS  H17R 8750   2.731   3.762   9.580 -5.2443 -2.4434 -0.4741
   90SAPS  H17S 8751   2.703   3.610   9.514  0.1573 -0.1280  1.1991
   90SAPS  C218 8752   2.823   3.713   9.381  0.2927  0.2854  0.3078
   90SAPS  H18R 8753   2.923   3.760   9.369  1.2318 -1.5453  0.6079
   90SAPS  H18S 8754   2.750   3.782   9.335  1.6564  0.6746 -1.3660
   90SAPS  C219 8755   2.809   3.584   9.300 -0.1153  0.0090  0.0931
   90SAPS  H19R 8756   2.706   3.544   9.311  0.3220 -0.9222  0.9561
   90SAPS  H19S 8757   2.882   3.511   9.342  0.9129  0.0794 -1.4776
   90SAPS  C220 8758   2.849   3.601   9.154  0.4118 -0.7596 -0.0876
   90SAPS  H20R 8759   2.834   3.510   9.091  2.4130  0.5851 -2.6622
   90SAPS  H20S 8760   2.958   3.621   9.151  0.0410  1.4133 -0.5325
   90SAPS  H20T 8761   2.794   3.681   9.101  1.2906 -0.0130  0.1184
   90SAPS   C33 8762   3.965   3.042   9.931 -0.2650 -0.3805  0.0754
   90SAPS   H3X 8763   4.032   2.954   9.928 -1.3311 -1.2535  1.0062
   90SAPS   H3Y 8764   4.032   3.126   9.960 -0.6336  0.8791 -2.4456
   90SAPS   C34 8765   3.908   3.070   9.793 -0.2093  0.2746 -0.2746
   90SAPS   H4X 8766   3.855   2.981   9.754  0.4681 -0.6480  0.8394
   90SAPS   H4Y 8767   3.994   3.089   9.725  1.5537  2.6682  2.3570
   90SAPS   C35 8768   3.819   3.198   9.783 -0.4920 -0.6239  0.0835
   90SAPS   H5X 8769   3.877   3.288   9.813 -0.2516 -1.0692  1.0089
   90SAPS   H5Y 8770   3.736   3.181   9.855 -0.0165  0.6858  0.9857
   90SAPS   C36 8771   3.767   3.229   9.640 -0.0784  0.8306  0.4901
   90SAPS   H6X 8772   3.704   3.152   9.591 -0.0514  1.3590 -0.3891
   90SAPS   H6Y 8773   3.859   3.234   9.579  1.2975 -2.3095  2.0836
   90SAPS   C37 8774   3.691   3.359   9.647  0.6164  0.3236  0.5927
   90SAPS   H7X 8775   3.753   3.439   9.691  0.7887  1.1468 -1.0793
   90SAPS   H7Y 8776   3.602   3.347   9.712 -0.9461 -0.6313 -1.5842
   90SAPS   C38 8777   3.624   3.385   9.514  0.3244 -0.1073 -0.6109
   90SAPS   H8X 8778   3.546   3.464   9.520  1.8328  1.3158  1.5602
   90SAPS   H8Y 8779   3.572   3.295   9.473 -1.1031  0.1111  0.6432
   90SAPS   C39 8780   3.731   3.421   9.412 -0.1068  0.1751  0.1566
   90SAPS   H9X 8781   3.804   3.339   9.392 -0.8155 -0.4013 -0.1147
   90SAPS   H9Y 8782   3.790   3.507   9.449  0.1162  1.2977 -2.5722
   90SAPS  C310 8783   3.674   3.451   9.274 -0.1367  0.4431 -0.1044
   90SAPS  H10X 8784   3.622   3.549   9.265 -2.5730 -0.7860  0.0370
   90SAPS  H10Y 8785   3.598   3.374   9.250 -1.4846  1.7097 -0.0807
   90SAPS  C311 8786   3.776   3.440   9.161 -0.2181 -0.1631 -0.1065
   90SAPS  H11X 8787   3.838   3.348   9.171 -1.9118 -1.4659 -1.0098
   90SAPS  H11Y 8788   3.835   3.534   9.165 -0.7275  0.1330  2.3773
   90SAPS  C312 8789   3.709   3.438   9.022 -0.0354  0.1625 -0.0203
   90SAPS  H12X 8790   3.615   3.498   9.028 -0.4302 -0.4619  0.0869
   90SAPS  H12Y 8791   3.675   3.335   9.002  1.5451 -0.5955  1.0309
   90SAPS  C313 8792   3.800   3.472   8.906 -0.2235  0.4873 -0.1243
   90SAPS  H13X 8793   3.842   3.570   8.936 -0.3114  0.3304  0.5247
   90SAPS  H13Y 8794   3.730   3.474   8.819  0.4297  0.7404 -0.6516
   90SAPS  C314 8795   3.920   3.371   8.881  0.2834 -0.3248  0.3955
   90SAPS  H14X 8796   3.887   3.265   8.869 -1.5022  0.1863  0.5085
   90SAPS  H14Y 8797   3.967   3.382   8.981  1.9563  0.1484 -0.4111
   90SAPS  C315 8798   4.028   3.404   8.775 -0.1480 -0.0989  0.5026
   90SAPS  H15X 8799   4.069   3.502   8.807  1.7886 -1.2015  1.5901
   90SAPS  H15Y 8800   3.986   3.426   8.675  2.3047  0.4978 -0.4710
   90SAPS  C316 8801   4.129   3.292   8.755  0.3661  0.1171  0.3485
   90SAPS  H16X 8802   4.072   3.208   8.709 -0.3656 -0.4292  2.1564
   90SAPS  H16Y 8803   4.162   3.257   8.855 -0.8553  0.8219  1.0178
   90SAPS  C317 8804   4.243   3.326   8.665  0.0940 -0.0910 -0.0478
   90SAPS  H17X 8805   4.279   3.430   8.683 -0.6038 -0.1746  2.0527
   90SAPS  H17Y 8806   4.199   3.339   8.564 -1.5931  1.7415  0.8568
   90SAPS  C318 8807   4.361   3.224   8.674  0.4629 -1.2151  0.0140
   90SAPS  H18X 8808   4.418   3.207   8.580  0.1716 -0.4549 -0.3160
   90SAPS  H18Y 8809   4.317   3.125   8.698 -0.0143 -1.0814 -0.2872
   90SAPS  H18Z 8810   4.430   3.252   8.756 -0.6337  0.9752  0.2870
   91SAPS     N 8811   6.405   0.825   5.782  0.5760  0.2451  0.2499
   91SAPS   HN1 8812   6.427   0.851   5.684 -0.4184 -3.8652 -1.2770
   91SAPS   HN2 8813   6.374   0.726   5.787 -0.4307  0.5696  0.7942
   91SAPS   HN3 8814   6.326   0.880   5.822  0.2780 -0.3764  0.5443
   91SAPS   C12 8815   6.515   0.860   5.875  0.6186 -0.0712 -0.5511
   91SAPS  H12A 8816   6.593   0.792   5.844  0.3147 -2.6851  3.6633
   91SAPS   C13 8817   6.558   1.003   5.843 -0.2255 -0.4757  0.0607
   91SAPS  O13A 8818   6.493   1.070   5.760  0.9236  0.9295 -0.7882
   91SAPS  O13B 8819   6.668   1.035   5.892  0.2511 -0.0298 -0.0921
   91SAPS   C11 8820   6.470   0.851   6.030 -0.0470 -0.0277 -1.1200
   91SAPS  H11A 8821   6.558   0.838   6.097  0.5540  2.7691 -1.2592
   91SAPS  H11B 8822   6.407   0.760   6.032 -0.7059  0.4101 -1.6357
   91SAPS     P 8823   6.233   0.977   6.074  0.1080  0.2653  0.0312
   91SAPS   O13 8824   6.198   1.115   6.114 -0.1503  0.2053 -0.2474
   91SAPS   O14 8825   6.196   0.924   5.939 -0.6290  0.3697 -0.0565
   91SAPS   O12 8826   6.390   0.955   6.083 -0.0403  0.3667  0.5195
   91SAPS   O11 8827   6.194   0.873   6.185  0.1282  0.1314  0.7157
   91SAPS    C1 8828   6.263   0.868   6.311 -0.3801 -0.5506  0.0001
   91SAPS    HA 8829   6.244   0.762   6.339  0.1827 -0.3933  1.0347
   91SAPS    HB 8830   6.372   0.880   6.296 -0.4470 -0.5702 -0.5208
   91SAPS    C2 8831   6.207   0.955   6.424 -0.2985  0.2805  0.1829
   91SAPS    HS 8832   6.256   1.054   6.416  3.3679 -1.4880 -1.2591
   91SAPS   O21 8833   6.226   0.887   6.547 -0.1057  0.0186 -0.1064
   91SAPS   C21 8834   6.236   0.967   6.654  0.2570  0.7920 -0.4575
   91SAPS   O22 8835   6.248   1.090   6.651 -0.0992 -0.2567  0.0516
   91SAPS   C22 8836   6.252   0.888   6.783 -0.3901 -0.6316 -0.0300
   91SAPS   H2R 8837   6.161   0.826   6.799 -2.4567  1.9686 -0.9576
   91SAPS   H2S 8838   6.340   0.822   6.769 -0.8278 -0.9968 -1.1498
   91SAPS    C3 8839   6.047   0.972   6.419  0.0096  0.4843 -0.0486
   91SAPS    HX 8840   6.009   0.868   6.431  0.1240  0.5883  1.3658
   91SAPS    HY 8841   6.029   1.012   6.317  0.2622 -0.1595 -0.3447
   91SAPS   O31 8842   5.988   1.059   6.525 -0.1250 -0.0318  0.2002
   91SAPS   C31 8843   6.014   1.193   6.507 -0.0440  0.5131  0.0880
   91SAPS   O32 8844   6.086   1.242   6.421 -0.0846 -0.1918  0.1256
   91SAPS   C32 8845   5.934   1.280   6.612  0.5167 -0.3488  0.3721
   91SAPS   H2X 8846   5.826   1.289   6.588  0.6451 -0.8845 -0.4505
   91SAPS   H2Y 8847   5.979   1.381   6.601 -0.6665  0.1730  0.2117
   91SAPS   C23 8848   6.275   0.968   6.916  0.3310 -0.3894 -0.9188
   91SAPS   H3R 8849   6.194   1.040   6.942  0.9228 -0.2744  0.7575
   91SAPS   H3S 8850   6.362   1.033   6.894  0.6129 -0.4325  0.0343
   91SAPS   C24 8851   6.301   0.882   7.044 -0.2147  0.3810 -0.3052
   91SAPS   H4R 8852   6.384   0.816   7.011 -1.7976 -1.5463 -0.5800
   91SAPS   H4S 8853   6.217   0.813   7.063  2.0179 -1.9629  1.8827
   91SAPS   C25 8854   6.349   0.976   7.157 -0.0439  0.3314  0.3741
   91SAPS   H5R 8855   6.451   1.012   7.139 -0.5562  1.3927 -0.5219
   91SAPS   C26 8856   6.286   1.017   7.271 -0.6289  0.3856  0.7502
   91SAPS   H6R 8857   6.331   1.096   7.332  1.9581 -0.7007  0.3620
   91SAPS   C27 8858   6.148   0.975   7.310  0.3542 -0.0190 -0.6433
   91SAPS   H7R 8859   6.158   0.916   7.403  3.1509 -1.1773 -1.5506
   91SAPS   H7S 8860   6.099   0.906   7.238 -0.8568  0.6449 -0.4870
   91SAPS   C28 8861   6.056   1.094   7.315 -0.3925 -0.0747 -0.6002
   91SAPS   H8R 8862   6.007   1.125   7.222 -0.6882 -0.8121 -0.6921
   91SAPS   C29 8863   6.027   1.153   7.431  0.4046 -0.0463 -0.0887
   91SAPS   H9R 8864   5.956   1.236   7.429  1.7233  1.1292  0.3071
   91SAPS  C210 8865   6.079   1.117   7.573  0.1252 -0.5013 -0.0009
   91SAPS  H10R 8866   6.171   1.054   7.570 -0.6098 -1.6511  0.6901
   91SAPS  H10S 8867   6.003   1.060   7.631 -0.0878  0.0336  0.2584
   91SAPS  C211 8868   6.113   1.240   7.651  0.4641 -0.5369  0.4538
   91SAPS  H11R 8869   6.219   1.269   7.650  0.4772 -0.5832  0.2792
   91SAPS  C212 8870   6.028   1.304   7.728  0.1371 -0.8558  0.4925
   91SAPS  H12R 8871   6.072   1.395   7.772  0.1193 -0.3717 -0.4508
   91SAPS  C213 8872   5.879   1.278   7.746 -0.0003  0.3960 -0.8216
   91SAPS  H13R 8873   5.847   1.172   7.752  1.1461 -0.0550 -2.0837
   91SAPS  H13S 8874   5.826   1.314   7.655  1.2855  2.3625 -0.8672
   91SAPS  C214 8875   5.830   1.364   7.862 -0.0925 -0.7240  0.4856
   91SAPS  H14R 8876   5.794   1.466   7.843  0.5317 -0.3892  1.0523
   91SAPS  C215 8877   5.827   1.333   7.991  0.2380  0.5123 -0.1149
   91SAPS  H15R 8878   5.782   1.406   8.060 -0.3213 -0.2311  0.3203
   91SAPS  C216 8879   5.879   1.206   8.045 -0.1102  0.3973 -0.5045
   91SAPS  H16R 8880   5.958   1.172   7.974 -0.2749  3.1433 -2.1292
   91SAPS  H16S 8881   5.799   1.131   8.062 -1.6025  2.0356 -0.0229
   91SAPS  C217 8882   5.962   1.222   8.179  0.0051  0.0478  0.2769
   91SAPS  H17R 8883   6.061   1.263   8.150  0.5791 -0.5376  1.3724
   91SAPS  H17S 8884   5.982   1.121   8.221  0.0079 -1.0678 -2.2039
   91SAPS  C218 8885   5.901   1.301   8.294 -0.1803  0.3251 -0.1097
   91SAPS  H18R 8886   5.960   1.255   8.377 -0.9867  0.1121  0.3562
   91SAPS  H18S 8887   5.793   1.277   8.304 -0.3422  0.7510 -0.7410
   91SAPS  C219 8888   5.925   1.450   8.300 -0.4803  0.9360  0.3372
   91SAPS  H19R 8889   5.854   1.490   8.224 -0.4978 -0.2881 -0.3278
   91SAPS  H19S 8890   6.023   1.467   8.250  0.6133 -2.9652  0.7988
   91SAPS  C220 8891   5.906   1.521   8.426 -0.1727 -0.7836 -0.3393
   91SAPS  H20R 8892   5.969   1.487   8.510 -2.7752  0.8074  2.4550
   91SAPS  H20S 8893   5.801   1.520   8.464  0.1350 -1.4220  0.5161
   91SAPS  H20T 8894   5.926   1.630   8.426 -1.2587 -0.5344  1.6921
   91SAPS   C33 8895   5.965   1.230   6.757 -0.2136 -0.0464  0.0858
   91SAPS   H3X 8896   6.074   1.210   6.765  0.7763  4.3362  0.0773
   91SAPS   H3Y 8897   5.905   1.139   6.779 -2.2208  1.5197  1.5547
   91SAPS   C34 8898   5.952   1.335   6.861  0.3655 -0.6370 -0.3129
   91SAPS   H4X 8899   6.023   1.418   6.843  0.7393 -0.3621  2.0713
   91SAPS   H4Y 8900   5.987   1.280   6.951  2.6967  1.6347  0.2988
   91SAPS   C35 8901   5.806   1.381   6.881 -0.3026 -0.1323 -0.2468
   91SAPS   H5X 8902   5.738   1.300   6.916 -2.3556  0.4498 -2.5957
   91SAPS   H5Y 8903   5.761   1.418   6.787 -0.8760  1.9512  0.7814
   91SAPS   C36 8904   5.797   1.492   6.989 -0.0073  0.5972 -0.4145
   91SAPS   H6X 8905   5.690   1.520   7.001 -0.1109  0.3157 -0.6597
   91SAPS   H6Y 8906   5.849   1.579   6.945  0.5072  0.1327 -0.7404
   91SAPS   C37 8907   5.841   1.453   7.137 -0.0833 -0.6748  0.8389
   91SAPS   H7X 8908   5.946   1.416   7.128  0.5496  1.3187 -0.4913
   91SAPS   H7Y 8909   5.778   1.369   7.174 -1.8730 -0.9597 -2.4873
   91SAPS   C38 8910   5.847   1.573   7.230  0.2703 -0.4837  0.3005
   91SAPS   H8X 8911   5.749   1.623   7.249  1.5385  2.2581  0.1527
   91SAPS   H8Y 8912   5.904   1.654   7.180 -1.4489  0.8555  0.3955
   91SAPS   C39 8913   5.909   1.546   7.371 -0.0548  0.5138 -0.3022
   91SAPS   H9X 8914   6.004   1.495   7.344 -0.2366 -0.3825  0.6830
   91SAPS   H9Y 8915   5.845   1.469   7.419 -1.0808  1.6082  0.1305
   91SAPS  C310 8916   5.916   1.673   7.461  0.3324  0.3329  0.3867
   91SAPS  H10X 8917   5.817   1.712   7.491  0.7936  0.2734  2.0747
   91SAPS  H10Y 8918   5.973   1.756   7.413  1.6392 -0.7963 -0.0900
   91SAPS  C311 8919   5.993   1.643   7.592  0.8421  0.3553  0.6856
   91SAPS  H11X 8920   6.098   1.616   7.568 -0.0554 -1.2637 -1.9512
   91SAPS  H11Y 8921   5.945   1.551   7.632 -3.3714  1.7539 -0.5702
   91SAPS  C312 8922   5.993   1.773   7.684  0.7834 -0.2773 -0.7758
   91SAPS  H12X 8923   5.990   1.864   7.620 -0.0158 -1.1415 -1.9956
   91SAPS  H12Y 8924   6.089   1.773   7.740  0.6206 -1.7593 -0.4592
   91SAPS  C313 8925   5.875   1.778   7.774 -0.6468 -0.3071 -0.5415
   91SAPS  H13X 8926   5.880   1.690   7.842 -1.5577  0.9432  1.1972
   91SAPS  H13Y 8927   5.782   1.764   7.714 -0.0050 -1.7174 -1.2723
   91SAPS  C314 8928   5.876   1.897   7.869 -0.0502 -0.8174 -0.3819
   91SAPS  H14X 8929   5.833   1.987   7.819  3.6826  0.0730 -2.3780
   91SAPS  H14Y 8930   5.983   1.919   7.889 -0.2127  1.0970 -1.3322
   91SAPS  C315 8931   5.811   1.857   7.996 -0.1235  0.2826  0.3592
   91SAPS  H15X 8932   5.858   1.765   8.036 -0.1683  1.2194  2.7020
   91SAPS  H15Y 8933   5.707   1.837   7.960  0.2570 -0.3116 -0.4448
   91SAPS  C316 8934   5.815   1.959   8.109  0.2681 -0.8843 -0.2691
   91SAPS  H16X 8935   5.728   1.933   8.172  0.4395  0.8648  0.7616
   91SAPS  H16Y 8936   5.798   2.063   8.073  0.4437 -0.2076  1.4886
   91SAPS  C317 8937   5.945   1.941   8.197  0.0360 -0.2161  0.0634
   91SAPS  H17X 8938   6.030   1.916   8.129  0.1699  0.7064 -0.1211
   91SAPS  H17Y 8939   5.921   1.855   8.263 -2.5995 -0.6777 -1.3794
   91SAPS  C318 8940   5.960   2.059   8.298  0.1494  0.4626 -0.1676
   91SAPS  H18X 8941   5.867   2.077   8.356  1.4867  0.4628  2.1005
   91SAPS  H18Y 8942   5.986   2.153   8.245  1.4781 -1.0193 -2.3201
   91SAPS  H18Z 8943   6.046   2.036   8.364 -0.1026  0.5964  0.2126
   92SAPS     N 8944   0.716   4.460   6.710  0.0836  0.1456  0.4219
   92SAPS   HN1 8945   0.700   4.373   6.764  1.6620  0.3819  1.3342
   92SAPS   HN2 8946   0.817   4.478   6.691  0.1557 -0.2336  0.4444
   92SAPS   HN3 8947   0.669   4.545   6.747 -2.1580 -0.9329  0.2306
   92SAPS   C12 8948   0.654   4.429   6.577  0.3039 -0.2401  0.2490
   92SAPS  H12A 8949   0.585   4.507   6.548 -0.3089 -0.9776 -0.2991
   92SAPS   C13 8950   0.756   4.424   6.462  0.0855  0.1190  0.3166
   92SAPS  O13A 8951   0.867   4.471   6.465 -0.4391 -0.0111  0.1126
   92SAPS  O13B 8952   0.708   4.373   6.354  0.8172 -0.1254  0.0594
   92SAPS   C11 8953   0.585   4.291   6.595 -0.4353  0.1059 -0.8414
   92SAPS  H11A 8954   0.665   4.218   6.618  0.0909  0.6849 -0.8020
   92SAPS  H11B 8955   0.533   4.270   6.499 -0.3561 -2.4590 -0.3995
   92SAPS     P 8956   0.391   4.199   6.748 -0.3212 -0.1461 -0.0298
   92SAPS   O13 8957   0.286   4.219   6.648  0.5154 -0.3493  0.6325
   92SAPS   O14 8958   0.454   4.067   6.782  0.7274 -0.1168  0.0775
   92SAPS   O12 8959   0.496   4.302   6.708  0.0004  0.0796 -0.8728
   92SAPS   O11 8960   0.350   4.265   6.884  0.2537 -0.5383 -0.5237
   92SAPS    C1 8961   0.217   4.242   6.938  0.5105  0.9356 -0.3119
   92SAPS    HA 8962   0.184   4.143   6.900  1.3497  0.4154  0.2728
   92SAPS    HB 8963   0.226   4.229   7.048  1.2607  0.3663 -0.4281
   92SAPS    C2 8964   0.098   4.344   6.916 -0.4725  0.3162  0.1886
   92SAPS    HS 8965   0.068   4.351   6.809 -0.1479 -1.4785 -0.0432
   92SAPS   O21 8966   0.124   4.471   6.980 -0.3209 -0.5951 -0.0358
   92SAPS   C21 8967   0.183   4.561   6.898 -0.2959  0.2369 -0.1673
   92SAPS   O22 8968   0.208   4.544   6.781 -0.4341 -0.3960 -0.1607
   92SAPS   C22 8969   0.193   4.703   6.961  0.0865  0.1041 -0.2720
   92SAPS   H2R 8970   0.198   4.781   6.882 -0.2681  0.0200 -0.3816
   92SAPS   H2S 8971   0.100   4.730   7.015 -1.0490 -0.1944 -1.9676
   92SAPS    C3 8972  -0.022   4.283   6.989  0.9281  0.3817  0.0886
   92SAPS    HX 8973  -0.038   4.189   6.931  0.2101  0.4293  0.1957
   92SAPS    HY 8974  -0.113   4.346   6.976  1.2451  1.5018  2.6964
   92SAPS   O31 8975   0.005   4.229   7.125  0.1691  0.1876  0.9848
   92SAPS   C31 8976  -0.034   4.318   7.216 -0.7048  0.1158  0.3558
   92SAPS   O32 8977  -0.086   4.425   7.194  0.4231  0.0181 -0.2767
   92SAPS   C32 8978  -0.003   4.266   7.353  0.6101  0.2117  0.0040
   92SAPS   H2X 8979   0.069   4.182   7.342 -1.2551 -1.2403 -2.1576
   92SAPS   H2Y 8980  -0.098   4.224   7.392  0.4347 -0.1167 -0.7460
   92SAPS   C23 8981   0.309   4.710   7.062 -0.6654  0.1506 -0.1480
   92SAPS   H3R 8982   0.319   4.816   7.093 -1.2730  0.0314  0.4753
   92SAPS   H3S 8983   0.406   4.675   7.019 -0.8987 -1.9000  0.8814
   92SAPS   C24 8984   0.287   4.626   7.187  0.1744 -0.8638  0.2453
   92SAPS   H4R 8985   0.267   4.521   7.159  1.6292 -0.9577 -0.5723
   92SAPS   H4S 8986   0.195   4.658   7.239 -0.0740 -0.2777 -0.5311
   92SAPS   C25 8987   0.409   4.635   7.276  0.0873  0.2547 -0.1049
   92SAPS   H5R 8988   0.491   4.566   7.253  0.4875  0.4570  0.6979
   92SAPS   C26 8989   0.428   4.714   7.376  1.0260 -0.4103  0.6882
   92SAPS   H6R 8990   0.526   4.714   7.425  0.8959 -1.2769  0.9770
   92SAPS   C27 8991   0.330   4.817   7.430 -0.0158 -0.2306  0.2326
   92SAPS   H7R 8992   0.295   4.868   7.337  0.1365 -0.2783  0.1478
   92SAPS   H7S 8993   0.384   4.894   7.489  0.1135 -0.8279  0.9067
   92SAPS   C28 8994   0.218   4.755   7.500  0.0266 -0.9595  0.4281
   92SAPS   H8R 8995   0.131   4.720   7.442 -0.7436  1.2768  0.1482
   92SAPS   C29 8996   0.210   4.741   7.633 -0.4500 -0.6576 -0.5836
   92SAPS   H9R 8997   0.118   4.697   7.674 -0.9163 -1.3234 -2.2278
   92SAPS  C210 8998   0.320   4.778   7.731  0.1107 -0.2478  0.1814
   92SAPS  H10R 8999   0.418   4.802   7.686 -0.2666  0.1915 -0.4247
   92SAPS  H10S 9000   0.333   4.691   7.799  0.1329  0.6744  1.3803
   92SAPS  C211 9001   0.272   4.895   7.809  0.0862 -0.5610 -0.0390
   92SAPS  H11R 9002   0.263   4.988   7.752 -0.0034 -0.9886 -0.7383
   92SAPS  C212 9003   0.262   4.892   7.943 -0.3864 -0.4374  0.2426
   92SAPS  H12R 9004   0.222   4.984   7.989 -1.8204  0.1260 -1.9497
   92SAPS  C213 9005   0.292   4.782   8.048  0.1704  0.4973 -0.0094
   92SAPS  H13R 9006   0.306   4.681   8.005  2.4883  0.1478  1.4217
   92SAPS  H13S 9007   0.213   4.771   8.125 -0.2442  0.6413 -0.4100
   92SAPS  C214 9008   0.417   4.829   8.119 -0.0930 -0.6950 -0.0275
   92SAPS  H14R 9009   0.498   4.831   8.045  0.9795  0.9502  1.1093
   92SAPS  C215 9010   0.429   4.879   8.244  0.0854 -0.0035 -0.3063
   92SAPS  H15R 9011   0.527   4.906   8.287 -0.6905  1.5598  0.5506
   92SAPS  C216 9012   0.325   4.899   8.349  0.3418 -0.0769 -0.5591
   92SAPS  H16R 9013   0.220   4.895   8.313  0.7813 -0.5550 -1.8221
   92SAPS  H16S 9014   0.350   5.004   8.378  0.1068  0.3477 -1.8625
   92SAPS  C217 9015   0.367   4.808   8.467  0.2106  0.7087 -0.0171
   92SAPS  H17R 9016   0.309   4.837   8.557 -3.5868 -2.1959 -1.2634
   92SAPS  H17S 9017   0.475   4.826   8.487  0.5753 -0.1856 -1.0605
   92SAPS  C218 9018   0.352   4.656   8.447 -0.0013  1.0665 -0.3927
   92SAPS  H18R 9019   0.417   4.624   8.363 -1.6167  0.3612 -1.4158
   92SAPS  H18S 9020   0.249   4.642   8.408  0.1247  1.5218 -0.9179
   92SAPS  C219 9021   0.370   4.563   8.571 -0.3668 -0.3736  0.7074
   92SAPS  H19R 9022   0.291   4.590   8.645  0.5650 -1.0065  1.9755
   92SAPS  H19S 9023   0.469   4.583   8.616  0.9596  0.0326 -2.1964
   92SAPS  C220 9024   0.354   4.412   8.544 -0.2529 -0.1017  0.3282
   92SAPS  H20R 9025   0.448   4.373   8.499 -0.1147  1.9298 -1.3190
   92SAPS  H20S 9026   0.279   4.384   8.467  0.3967 -3.1079  0.6730
   92SAPS  H20T 9027   0.327   4.350   8.632 -2.3376 -0.4590 -0.5222
   92SAPS   C33 9028   0.037   4.387   7.447 -0.3293 -0.0059 -0.5245
   92SAPS   H3X 9029  -0.049   4.457   7.447  0.8347  1.4741  0.0499
   92SAPS   H3Y 9030   0.125   4.442   7.407 -0.3135  0.2936 -0.0898
   92SAPS   C34 9031   0.060   4.321   7.587 -0.5002  0.3972 -0.3469
   92SAPS   H4X 9032   0.146   4.251   7.592 -0.4399  0.5198  0.5778
   92SAPS   H4Y 9033  -0.033   4.267   7.613 -0.6807  1.2205  0.7696
   92SAPS   C35 9034   0.084   4.420   7.700 -0.0131 -0.4151  0.0268
   92SAPS   H5X 9035   0.005   4.498   7.698 -0.8921 -1.1959  2.0792
   92SAPS   H5Y 9036   0.182   4.470   7.682 -1.2898  1.6610 -1.6096
   92SAPS   C36 9037   0.092   4.360   7.838  0.5578  0.2366  1.5152
   92SAPS   H6X 9038   0.166   4.277   7.832  0.7314  0.4842 -0.4073
   92SAPS   H6Y 9039  -0.005   4.308   7.852  0.4456  0.3425  1.1357
   92SAPS   C37 9040   0.123   4.460   7.951  0.5570 -0.1955 -0.2809
   92SAPS   H7X 9041   0.053   4.546   7.961  1.1914  0.4499 -1.2372
   92SAPS   H7Y 9042   0.218   4.510   7.921  0.9689 -1.7027 -1.6517
   92SAPS   C38 9043   0.158   4.395   8.079 -0.4589 -0.0232  0.5963
   92SAPS   H8X 9044   0.202   4.475   8.142 -1.1636  2.9080 -2.3399
   92SAPS   H8Y 9045   0.246   4.330   8.062 -0.2416  0.7847 -1.6379
   92SAPS   C39 9046   0.035   4.325   8.147  0.7041 -0.3369  0.4434
   92SAPS   H9X 9047  -0.008   4.253   8.074 -0.1812  0.9332 -0.3212
   92SAPS   H9Y 9048  -0.038   4.406   8.168  1.1109  0.0218  0.4874
   92SAPS  C310 9049   0.068   4.251   8.281 -0.3796  0.0016  0.7309
   92SAPS  H10X 9050  -0.011   4.177   8.306 -2.4579  2.3911  1.6209
   92SAPS  H10Y 9051   0.068   4.332   8.357  1.4462  0.7820 -0.0366
   92SAPS  C311 9052   0.197   4.175   8.262 -0.1810  0.2223 -1.0582
   92SAPS  H11X 9053   0.287   4.237   8.283 -0.2876 -0.0192  0.1965
   92SAPS  H11Y 9054   0.193   4.135   8.159  0.7528 -1.7156 -0.3976
   92SAPS  C312 9055   0.211   4.048   8.352  0.4724 -0.1996 -0.1289
   92SAPS  H12X 9056   0.116   3.993   8.334 -0.6125  1.9979 -1.6340
   92SAPS  H12Y 9057   0.213   4.070   8.461  0.7498 -0.1596 -0.1420
   92SAPS  C313 9058   0.325   3.953   8.332 -0.4875  0.3952 -0.3386
   92SAPS  H13X 9059   0.415   4.016   8.351 -0.8663  0.4252  1.5296
   92SAPS  H13Y 9060   0.328   3.908   8.230  0.4124 -0.6253  0.1190
   92SAPS  C314 9061   0.332   3.833   8.431  0.0940 -0.5493 -0.1469
   92SAPS  H14X 9062   0.429   3.779   8.435  1.8572  2.1492 -2.4275
   92SAPS  H14Y 9063   0.253   3.763   8.397 -0.1423 -2.0499  3.0423
   92SAPS  C315 9064   0.305   3.875   8.577  0.3836  0.3462  0.3162
   92SAPS  H15X 9065   0.197   3.902   8.581  0.2403 -0.2591  0.5675
   92SAPS  H15Y 9066   0.351   3.973   8.604  1.9396 -0.1525 -0.3747
   92SAPS  C316 9067   0.329   3.772   8.692 -0.2055 -0.4020 -0.4095
   92SAPS  H16X 9068   0.293   3.818   8.787 -1.0508  0.5747 -1.1799
   92SAPS  H16Y 9069   0.436   3.743   8.694 -0.5419 -1.7579 -1.0805
   92SAPS  C317 9070   0.255   3.642   8.678 -0.9697  0.2721  0.6309
   92SAPS  H17X 9071   0.276   3.598   8.578  1.4528  1.3777  0.5919
   92SAPS  H17Y 9072   0.146   3.664   8.673 -0.7305  1.3470 -0.7767
   92SAPS  C318 9073   0.285   3.536   8.793 -0.5486  0.4058 -0.2405
   92SAPS  H18X 9074   0.391   3.540   8.828 -0.2498  3.8036 -1.2195
   92SAPS  H18Y 9075   0.261   3.432   8.761  0.3024  0.5351 -1.3705
   92SAPS  H18Z 9076   0.228   3.561   8.884  1.3642  3.0123  0.3517
   93SAPS     N 9077   1.109   4.554   6.421 -0.2198  0.3860 -0.0632
   93SAPS   HN1 9078   1.161   4.465   6.409 -1.1999  0.1262 -3.6940
   93SAPS   HN2 9079   1.029   4.520   6.478 -1.7227 -1.0059 -2.8061
   93SAPS   HN3 9080   1.065   4.580   6.330 -2.1566  1.9711  1.2259
   93SAPS   C12 9081   1.190   4.663   6.479 -0.4703  0.2351 -0.0345
   93SAPS  H12A 9082   1.253   4.623   6.556  0.1561  0.2370 -0.5373
   93SAPS   C13 9083   1.296   4.713   6.384 -0.2379 -0.0245  0.4829
   93SAPS  O13A 9084   1.313   4.663   6.266 -0.2118 -0.3514  0.1548
   93SAPS  O13B 9085   1.397   4.776   6.431 -0.1200  0.5053  0.1437
   93SAPS   C11 9086   1.103   4.780   6.527 -0.5911 -0.1688 -0.1949
   93SAPS  H11A 9087   1.061   4.826   6.435 -0.4976  0.1116 -0.0965
   93SAPS  H11B 9088   1.147   4.866   6.582 -1.3276  0.7242 -0.9595
   93SAPS     P 9089   0.845   4.802   6.602 -0.0240 -0.0094  0.3060
   93SAPS   O13 9090   0.780   4.790   6.465 -0.3007 -0.2844 -0.3942
   93SAPS   O14 9091   0.767   4.757   6.719  0.5849 -0.2265 -0.6545
   93SAPS   O12 9092   0.995   4.733   6.608  0.7692 -0.3968 -0.2379
   93SAPS   O11 9093   0.895   4.954   6.621  0.2351  0.5202  0.3382
   93SAPS    C1 9094   0.949   4.996   6.742 -0.2491  0.0408 -0.3184
   93SAPS    HA 9095   0.964   4.911   6.813 -0.1859 -0.8402 -1.3669
   93SAPS    HB 9096   1.048   5.040   6.719 -0.8889  1.1867 -0.9682
   93SAPS    C2 9097   0.864   5.111   6.818 -0.2461  0.5187  0.4314
   93SAPS    HS 9098   0.866   5.208   6.764 -1.2536  0.5768  0.4810
   93SAPS   O21 9099   0.921   5.121   6.955  1.1165 -0.4536  0.1432
   93SAPS   C21 9100   1.025   5.197   6.953  0.3289  0.3363  0.3978
   93SAPS   O22 9101   1.077   5.245   6.857 -0.0836 -0.0332  0.0636
   93SAPS   C22 9102   1.078   5.223   7.094  0.4684 -0.6912  0.2600
   93SAPS   H2R 9103   1.164   5.153   7.102  0.1327 -1.3132 -1.1099
   93SAPS   H2S 9104   1.115   5.327   7.083 -2.7645  0.6925  1.3545
   93SAPS    C3 9105   0.722   5.059   6.836 -0.6404 -0.1915  0.2429
   93SAPS    HX 9106   0.741   4.962   6.885  1.3918 -1.0066 -1.9631
   93SAPS    HY 9107   0.677   5.055   6.734  0.8070  2.4347 -0.6097
   93SAPS   O31 9108   0.644   5.145   6.926  0.1209  0.0219  0.1849
   93SAPS   C31 9109   0.551   5.079   6.990 -0.0064 -0.2177  0.6622
   93SAPS   O32 9110   0.519   4.966   6.956  0.6616 -0.5732  0.1425
   93SAPS   C32 9111   0.503   5.159   7.112 -0.0966  0.5865  0.6518
   93SAPS   H2X 9112   0.453   5.254   7.084  0.8217  1.3600  1.5241
   93SAPS   H2Y 9113   0.590   5.190   7.174 -0.3328  1.0948  0.7317
   93SAPS   C23 9114   0.986   5.208   7.214  0.4013  0.1321 -0.4946
   93SAPS   H3R 9115   0.941   5.109   7.234 -0.7971  0.6771 -0.3520
   93SAPS   H3S 9116   0.894   5.266   7.190  0.4974  0.7934  0.6480
   93SAPS   C24 9117   1.046   5.267   7.342  0.1417 -0.3785 -0.1575
   93SAPS   H4R 9118   1.090   5.367   7.327  1.5440 -0.7329  1.3169
   93SAPS   H4S 9119   1.139   5.209   7.357 -0.1222 -0.7430  0.1191
   93SAPS   C25 9120   0.954   5.261   7.460  0.1394  0.6316  0.3174
   93SAPS   H5R 9121   0.851   5.300   7.457  0.5994  2.7590  4.5583
   93SAPS   C26 9122   0.986   5.212   7.581  0.1791 -0.5135 -0.4034
   93SAPS   H6R 9123   0.908   5.217   7.658  0.6936  0.7999  0.0547
   93SAPS   C27 9124   1.119   5.163   7.625  0.7597  0.5751 -0.4377
   93SAPS   H7R 9125   1.141   5.178   7.732 -0.9583  0.1466  0.0069
   93SAPS   H7S 9126   1.188   5.237   7.577  0.2072  1.9660  0.8269
   93SAPS   C28 9127   1.149   5.016   7.587  0.0286  0.1918 -0.0021
   93SAPS   H8R 9128   1.091   4.967   7.508  2.0651  0.6314 -1.8797
   93SAPS   C29 9129   1.258   4.956   7.636 -0.5116 -0.2148 -0.4051
   93SAPS   H9R 9130   1.272   4.850   7.610 -1.6091 -0.1555 -1.3210
   93SAPS  C210 9131   1.371   5.016   7.722 -0.0099 -0.5490  0.4922
   93SAPS  H10R 9132   1.408   5.112   7.681 -3.5789  1.4780  1.5759
   93SAPS  H10S 9133   1.460   4.953   7.703 -0.7339 -1.2385 -0.8078
   93SAPS  C211 9134   1.337   5.012   7.867  0.2550 -0.2136 -0.2436
   93SAPS  H11R 9135   1.229   5.020   7.885  0.1599  2.5668 -1.4923
   93SAPS  C212 9136   1.421   5.000   7.976 -0.2640 -0.5248 -0.3535
   93SAPS  H12R 9137   1.380   4.999   8.079  0.5210 -1.3137 -0.0396
   93SAPS  C213 9138   1.568   4.991   7.954 -0.4446 -1.0032 -0.0527
   93SAPS  H13R 9139   1.595   5.018   7.849 -2.1795 -1.6622 -0.7040
   93SAPS  H13S 9140   1.598   4.884   7.954 -0.5826 -1.0568 -1.3584
   93SAPS  C214 9141   1.647   5.055   8.066  0.0795  0.0567 -0.1745
   93SAPS  H14R 9142   1.596   5.051   8.163 -0.5428  1.2487 -0.4353
   93SAPS  C215 9143   1.765   5.117   8.056 -0.1778  0.2637 -0.6507
   93SAPS  H15R 9144   1.811   5.157   8.148 -0.4350 -1.1131  0.1140
   93SAPS  C216 9145   1.857   5.142   7.945 -0.2367  0.5053 -0.2990
   93SAPS  H16R 9146   1.826   5.092   7.850 -1.6651  2.0264 -0.6762
   93SAPS  H16S 9147   1.962   5.118   7.972  0.1228 -1.0154 -2.7251
   93SAPS  C217 9148   1.852   5.291   7.911 -0.0984 -0.2097  0.3879
   93SAPS  H17R 9149   1.893   5.357   7.991 -1.5931  0.9155  0.2660
   93SAPS  H17S 9150   1.749   5.319   7.882 -0.0502 -2.8440 -2.9106
   93SAPS  C218 9151   1.933   5.322   7.790  0.3060 -0.6541 -0.0020
   93SAPS  H18R 9152   1.929   5.250   7.705  2.2736 -1.9575  0.9157
   93SAPS  H18S 9153   2.037   5.307   7.827 -0.9335 -4.1440  2.6422
   93SAPS  C219 9154   1.926   5.470   7.737  0.1515  0.5188 -0.1861
   93SAPS  H19R 9155   1.935   5.543   7.820  1.6604 -2.2110  2.2480
   93SAPS  H19S 9156   1.826   5.479   7.691  0.2574 -2.0996 -1.1379
   93SAPS  C220 9157   2.027   5.499   7.628 -0.5790  0.4068 -0.2071
   93SAPS  H20R 9158   2.013   5.442   7.533  4.4271 -0.8592 -0.4929
   93SAPS  H20S 9159   2.126   5.473   7.670 -1.3289  1.1547  2.1406
   93SAPS  H20T 9160   2.017   5.606   7.602 -1.2970  0.4714  0.3317
   93SAPS   C33 9161   0.404   5.089   7.202  0.3936  0.2456 -0.3384
   93SAPS   H3X 9162   0.450   4.991   7.228 -1.2580 -0.1257  1.4257
   93SAPS   H3Y 9163   0.314   5.076   7.137 -0.2900 -0.5985  0.7418
   93SAPS   C34 9164   0.367   5.158   7.334  1.1619  0.1933 -0.2323
   93SAPS   H4X 9165   0.291   5.090   7.378 -2.2724  2.0931 -2.6954
   93SAPS   H4Y 9166   0.324   5.260   7.325 -1.0004 -0.7376 -1.4512
   93SAPS   C35 9167   0.490   5.165   7.429  0.7722  0.7339  0.3664
   93SAPS   H5X 9168   0.561   5.244   7.397  0.8925  0.8005  0.7885
   93SAPS   H5Y 9169   0.539   5.065   7.423 -0.8384 -0.0253 -0.9219
   93SAPS   C36 9170   0.434   5.191   7.568 -0.0006  0.0535  0.2047
   93SAPS   H6X 9171   0.357   5.116   7.597  1.7380 -1.0450  2.2040
   93SAPS   H6Y 9172   0.396   5.296   7.568  0.4177  0.2988 -2.5555
   93SAPS   C37 9173   0.533   5.171   7.681  0.1366 -0.4655 -0.1452
   93SAPS   H7X 9174   0.636   5.209   7.665  0.5419 -1.3185  0.3861
   93SAPS   H7Y 9175   0.554   5.063   7.688 -0.1725 -0.6533 -1.8070
   93SAPS   C38 9176   0.471   5.240   7.811 -0.2739 -0.5767  0.0788
   93SAPS   H8X 9177   0.367   5.207   7.832  0.1859 -1.1094  1.6588
   93SAPS   H8Y 9178   0.462   5.349   7.789  0.3447 -0.5718 -0.1737
   93SAPS   C39 9179   0.556   5.214   7.936  0.1525 -0.3425 -0.2321
   93SAPS   H9X 9180   0.659   5.256   7.927  1.6814 -3.9082 -1.4334
   93SAPS   H9Y 9181   0.575   5.104   7.943 -1.1354 -0.6078 -0.5569
   93SAPS  C310 9182   0.484   5.278   8.059 -0.8821 -0.7072  0.5900
   93SAPS  H10X 9183   0.387   5.227   8.043  0.3272 -2.2030 -2.8494
   93SAPS  H10Y 9184   0.473   5.384   8.026 -0.9191 -1.0576 -0.5507
   93SAPS  C311 9185   0.544   5.237   8.191  0.1561 -0.3911 -0.0610
   93SAPS  H11X 9186   0.534   5.127   8.195 -1.2671 -0.3069 -0.5570
   93SAPS  H11Y 9187   0.479   5.284   8.268  0.9539  1.0593 -0.2226
   93SAPS  C312 9188   0.682   5.278   8.226  0.5013  0.3105  0.0651
   93SAPS  H12X 9189   0.685   5.386   8.201 -2.0139  0.9209  1.9829
   93SAPS  H12Y 9190   0.755   5.217   8.169  2.8835  1.6327  1.5443
   93SAPS  C313 9191   0.717   5.272   8.376  0.4250  0.2705 -0.2229
   93SAPS  H13X 9192   0.667   5.353   8.432 -2.2207 -1.1035 -0.4397
   93SAPS  H13Y 9193   0.826   5.293   8.377  0.4154  0.3498  1.0329
   93SAPS  C314 9194   0.688   5.135   8.449  0.2489  0.6205 -0.1913
   93SAPS  H14X 9195   0.733   5.055   8.387 -3.0366  0.1004 -2.1181
   93SAPS  H14Y 9196   0.582   5.104   8.467  0.8836 -0.7115  1.6255
   93SAPS  C315 9197   0.742   5.128   8.590 -0.5202  0.3904  0.2578
   93SAPS  H15X 9198   0.683   5.184   8.665 -0.8729 -2.0602  1.8977
   93SAPS  H15Y 9199   0.848   5.161   8.581  0.7682 -3.0762  1.0400
   93SAPS  C316 9200   0.755   4.985   8.641  0.0581 -0.3734  0.0334
   93SAPS  H16X 9201   0.812   4.919   8.572 -0.0712  0.4690 -0.9094
   93SAPS  H16Y 9202   0.657   4.939   8.668 -0.6940  1.1211 -0.0273
   93SAPS  C317 9203   0.845   4.990   8.768  0.3111  0.5745  0.2334
   93SAPS  H17X 9204   0.774   5.037   8.840 -2.3454  0.2449 -1.9941
   93SAPS  H17Y 9205   0.935   5.055   8.766  2.9390 -2.7674 -2.1208
   93SAPS  C318 9206   0.892   4.857   8.818  0.5281 -0.2928 -0.4668
   93SAPS  H18X 9207   0.814   4.778   8.827  0.8178 -0.4082  1.2984
   93SAPS  H18Y 9208   0.948   4.870   8.913  0.9660  1.2815 -0.9125
   93SAPS  H18Z 9209   0.971   4.824   8.747  1.2610 -1.0504  0.6766
   94SAPS     N 9210   0.081   1.541   5.843 -0.5588  0.4533  0.7154
   94SAPS   HN1 9211   0.031   1.462   5.798  1.4171  0.2318 -1.2160
   94SAPS   HN2 9212   0.158   1.494   5.894 -0.8133 -0.2854  0.4369
   94SAPS   HN3 9213   0.036   1.580   5.929 -0.8588 -2.6216  2.0789
   94SAPS   C12 9214   0.134   1.638   5.748 -0.5649 -0.9696 -0.6812
   94SAPS  H12A 9215   0.201   1.587   5.680  0.8939  0.8854 -0.7031
   94SAPS   C13 9216   0.024   1.698   5.658 -0.0238  0.2220  0.3142
   94SAPS  O13A 9217  -0.100   1.660   5.671 -0.0565  0.2340  0.1837
   94SAPS  O13B 9218   0.055   1.771   5.561 -0.0282 -0.3089 -0.4139
   94SAPS   C11 9219   0.218   1.742   5.831 -0.1756  0.3935 -0.0569
   94SAPS  H11A 9220   0.264   1.809   5.755  1.0752 -0.7017 -0.2908
   94SAPS  H11B 9221   0.295   1.680   5.881 -1.4395 -2.1725 -1.1470
   94SAPS     P 9222   0.162   1.973   5.952  0.1149  0.0039 -0.0399
   94SAPS   O13 9223   0.187   2.056   5.831  0.7188  0.5346 -0.1292
   94SAPS   O14 9224   0.048   2.019   6.033 -0.5970  0.0856  0.1845
   94SAPS   O12 9225   0.130   1.822   5.915  0.1100  0.4376 -0.5306
   94SAPS   O11 9226   0.298   1.953   6.024  0.4606 -0.4452 -0.3123
   94SAPS    C1 9227   0.322   1.860   6.128 -0.0456 -0.0206  0.1294
   94SAPS    HA 9228   0.268   1.765   6.111  1.3796 -0.5301 -1.9330
   94SAPS    HB 9229   0.429   1.830   6.123  0.2960  1.2575 -0.6222
   94SAPS    C2 9230   0.315   1.909   6.276  0.2471 -0.0451 -0.8914
   94SAPS    HS 9231   0.358   1.829   6.340 -0.7022  0.4276  0.3555
   94SAPS   O21 9232   0.178   1.946   6.322  0.0323  0.3473  0.9543
   94SAPS   C21 9233   0.089   1.847   6.309  0.2634 -0.2145 -0.4476
   94SAPS   O22 9234   0.122   1.733   6.291  0.2715  0.8396 -0.3871
   94SAPS   C22 9235  -0.048   1.906   6.343  0.2870  0.7194  0.6726
   94SAPS   H2R 9236  -0.047   2.017   6.347  0.6142  0.8814 -2.0595
   94SAPS   H2S 9237  -0.122   1.864   6.272 -0.5018 -2.0245  2.9561
   94SAPS    C3 9238   0.408   2.028   6.316  0.4784 -1.2544  0.5646
   94SAPS    HX 9239   0.378   2.116   6.256 -0.8521 -0.7659  1.9029
   94SAPS    HY 9240   0.503   1.998   6.267  1.0954  1.7578 -0.3110
   94SAPS   O31 9241   0.436   2.044   6.452 -0.4290  0.0976 -0.3386
   94SAPS   C31 9242   0.391   2.143   6.528 -0.0886  0.8224  0.7060
   94SAPS   O32 9243   0.307   2.227   6.496  0.0164 -0.6862  0.0221
   94SAPS   C32 9244   0.467   2.140   6.660 -0.1518 -0.1564  0.0284
   94SAPS   H2X 9245   0.543   2.221   6.651 -0.4653  0.5466  2.9019
   94SAPS   H2Y 9246   0.516   2.042   6.678 -0.2802  0.2623  3.1190
   94SAPS   C23 9247  -0.073   1.858   6.485  0.4259  0.9438 -0.6299
   94SAPS   H3R 9248  -0.040   1.752   6.480 -1.5653  0.2784 -0.5511
   94SAPS   H3S 9249  -0.181   1.868   6.510  0.3806 -0.6786 -0.0852
   94SAPS   C24 9250   0.004   1.932   6.602 -0.0434 -0.0731  0.6977
   94SAPS   H4R 9251  -0.025   2.039   6.610  1.0181  0.2196  0.7846
   94SAPS   H4S 9252   0.113   1.939   6.581  0.1428 -1.7863  0.9881
   94SAPS   C25 9253  -0.011   1.860   6.734  0.1240 -0.0988 -0.4664
   94SAPS   H5R 9254  -0.107   1.882   6.784 -0.6573  0.5675 -2.1697
   94SAPS   C26 9255   0.088   1.792   6.796  0.0675  0.2232  0.1840
   94SAPS   H6R 9256   0.078   1.729   6.885  0.2087  0.5231  0.4130
   94SAPS   C27 9257   0.233   1.765   6.749  0.0904 -0.2138 -0.2028
   94SAPS   H7R 9258   0.295   1.774   6.841 -1.5125  1.5816  0.7665
   94SAPS   H7S 9259   0.271   1.838   6.674 -0.6418  0.1756 -0.1962
   94SAPS   C28 9260   0.240   1.630   6.679  0.0363 -0.5046 -0.2107
   94SAPS   H8R 9261   0.175   1.615   6.591  0.7071 -4.7736 -0.1950
   94SAPS   C29 9262   0.301   1.515   6.718 -0.1161 -0.5919  0.1073
   94SAPS   H9R 9263   0.292   1.423   6.659 -1.0622 -0.0701 -0.5850
   94SAPS  C210 9264   0.374   1.506   6.856  0.3948  0.2213  0.0451
   94SAPS  H10R 9265   0.394   1.601   6.909 -1.0199  1.3478 -1.3688
   94SAPS  H10S 9266   0.471   1.456   6.837  0.5320  0.8485 -0.9737
   94SAPS  C211 9267   0.298   1.422   6.957  0.1483 -0.5130 -0.4227
   94SAPS  H11R 9268   0.278   1.318   6.926  2.7579 -1.2846  0.2521
   94SAPS  C212 9269   0.254   1.461   7.077  0.2756  0.2423 -0.3540
   94SAPS  H12R 9270   0.197   1.387   7.135 -0.4866 -0.1362 -1.5320
   94SAPS  C213 9271   0.267   1.602   7.135  0.1897  0.2732  0.4243
   94SAPS  H13R 9272   0.167   1.615   7.181 -1.2867 -1.2128 -2.1418
   94SAPS  H13S 9273   0.254   1.675   7.052 -1.9816  0.6702  1.0456
   94SAPS  C214 9274   0.387   1.636   7.217 -0.5254  0.4694 -0.1382
   94SAPS  H14R 9275   0.469   1.684   7.162 -1.7898  0.2842 -2.2714
   94SAPS  C215 9276   0.402   1.630   7.354  0.0513  0.6580 -0.6912
   94SAPS  H15R 9277   0.503   1.634   7.397  0.5472  1.9326 -1.8794
   94SAPS  C216 9278   0.291   1.589   7.455 -0.1052  0.8994  0.2917
   94SAPS  H16R 9279   0.337   1.518   7.528 -1.4617 -0.4661 -0.1145
   94SAPS  H16S 9280   0.206   1.544   7.401  1.7304 -0.9914 -1.2116
   94SAPS  C217 9281   0.238   1.711   7.526  0.2186 -0.2832  0.7475
   94SAPS  H17R 9282   0.206   1.789   7.453 -0.4123 -2.6415 -1.6947
   94SAPS  H17S 9283   0.325   1.751   7.582 -0.6166  0.7235  1.3441
   94SAPS  C218 9284   0.132   1.678   7.625  0.2361 -0.0180 -0.1587
   94SAPS  H18R 9285   0.062   1.604   7.580 -1.4500  1.2424  0.2782
   94SAPS  H18S 9286   0.088   1.773   7.661 -0.1797 -0.9406  1.9110
   94SAPS  C219 9287   0.184   1.607   7.752 -0.7145  0.1876 -0.3150
   94SAPS  H19R 9288   0.267   1.672   7.787  0.4690 -2.6292  2.5198
   94SAPS  H19S 9289   0.216   1.502   7.737 -1.8080  0.0170 -1.6788
   94SAPS  C220 9290   0.086   1.606   7.863 -0.0790 -0.4064 -0.5706
   94SAPS  H20R 9291  -0.004   1.671   7.851  0.4800  0.1177 -2.1887
   94SAPS  H20S 9292   0.132   1.636   7.960  0.1825  1.8883 -1.3235
   94SAPS  H20T 9293   0.041   1.506   7.881 -0.9668  0.0762  0.0163
   94SAPS   C33 9294   0.364   2.167   6.770  0.3464  0.0733 -0.0065
   94SAPS   H3X 9295   0.283   2.092   6.768  0.8060 -0.4238 -0.0408
   94SAPS   H3Y 9296   0.319   2.268   6.758  1.7966  0.8568  0.8676
   94SAPS   C34 9297   0.430   2.162   6.903 -0.2375  0.0522  0.5230
   94SAPS   H4X 9298   0.352   2.216   6.961  0.9592  3.1036 -0.5263
   94SAPS   H4Y 9299   0.521   2.226   6.899  1.0379 -1.7426 -0.8577
   94SAPS   C35 9300   0.472   2.026   6.946  0.2678 -0.3554 -0.6013
   94SAPS   H5X 9301   0.548   1.972   6.886  1.2670 -1.3887  1.4833
   94SAPS   H5Y 9302   0.379   1.965   6.938 -0.1102  0.3280 -1.5410
   94SAPS   C36 9303   0.536   2.030   7.086 -0.3961  0.3316  0.7462
   94SAPS   H6X 9304   0.601   2.121   7.083  0.8478 -0.4924 -2.8527
   94SAPS   H6Y 9305   0.599   1.942   7.112 -1.9073 -0.7659  0.8367
   94SAPS   C37 9306   0.444   2.033   7.207 -0.0777 -0.2579  0.0337
   94SAPS   H7X 9307   0.383   1.941   7.214 -1.5513  0.5382 -1.6436
   94SAPS   H7Y 9308   0.366   2.110   7.191 -1.3621 -2.1085 -3.7354
   94SAPS   C38 9309   0.510   2.047   7.343 -0.7996 -0.0662  0.6784
   94SAPS   H8X 9310   0.555   2.148   7.333 -2.7145  0.7360 -0.4404
   94SAPS   H8Y 9311   0.583   1.966   7.364 -1.4808 -1.0034 -0.4176
   94SAPS   C39 9312   0.401   2.054   7.452  0.3003 -0.3607 -0.8263
   94SAPS   H9X 9313   0.333   1.972   7.422  0.8103 -1.2139  0.2664
   94SAPS   H9Y 9314   0.356   2.155   7.450  1.9915  0.4580 -0.0291
   94SAPS  C310 9315   0.468   2.045   7.595  0.2538  0.3464 -0.2941
   94SAPS  H10X 9316   0.537   2.132   7.594  1.5709 -0.6694 -1.1040
   94SAPS  H10Y 9317   0.526   1.952   7.581 -1.1298 -0.5627 -0.2036
   94SAPS  C311 9318   0.361   2.052   7.708  0.0175 -0.0880  0.1668
   94SAPS  H11X 9319   0.294   1.963   7.705 -1.6227  0.9277  2.8814
   94SAPS  H11Y 9320   0.290   2.137   7.695 -1.3547 -1.2191 -0.0277
   94SAPS  C312 9321   0.418   2.058   7.851 -0.5535  0.5091 -0.0290
   94SAPS  H12X 9322   0.449   2.163   7.870  0.8302  0.3531 -1.3126
   94SAPS  H12Y 9323   0.508   1.995   7.862 -0.8372  0.0207 -0.4420
   94SAPS  C313 9324   0.318   2.007   7.970  0.4304  0.0488  0.2988
   94SAPS  H13X 9325   0.289   1.904   7.938  0.1827  0.5454 -1.1632
   94SAPS  H13Y 9326   0.225   2.065   7.952  0.2584 -0.3923 -0.2664
   94SAPS  C314 9327   0.371   2.010   8.109 -0.0465  0.3814 -0.1769
   94SAPS  H14X 9328   0.382   2.118   8.130 -0.0648 -0.0746  2.5268
   94SAPS  H14Y 9329   0.471   1.962   8.109  0.6525  1.7862  0.5802
   94SAPS  C315 9330   0.267   1.950   8.209  0.0940 -0.9724  0.4739
   94SAPS  H15X 9331   0.172   2.005   8.190  1.2848  1.0064  0.0642
   94SAPS  H15Y 9332   0.301   1.986   8.309 -0.0166  3.1551 -0.7889
   94SAPS  C316 9333   0.241   1.799   8.194 -0.0859 -0.6447 -1.0122
   94SAPS  H16X 9334   0.203   1.788   8.090 -0.2253 -2.0604 -0.8358
   94SAPS  H16Y 9335   0.166   1.766   8.269 -0.1675 -0.5959 -1.0725
   94SAPS  C317 9336   0.368   1.721   8.217  0.1697  0.8375  0.7214
   94SAPS  H17X 9337   0.448   1.747   8.144  0.1348  1.1856  0.8050
   94SAPS  H17Y 9338   0.351   1.611   8.209 -2.7745  1.3434 -1.4272
   94SAPS  C318 9339   0.418   1.732   8.359 -0.0738 -0.3837 -0.0557
   94SAPS  H18X 9340   0.331   1.740   8.429 -1.8600  2.2381 -2.3592
   94SAPS  H18Y 9341   0.484   1.821   8.369 -0.8550  0.2221 -0.1504
   94SAPS  H18Z 9342   0.479   1.646   8.393 -0.0644 -0.0372  0.8357
   95SAPS     N 9343   3.242   5.895   6.314  0.5006  0.1106  0.5462
   95SAPS   HN1 9344   3.155   5.842   6.297  0.4856  0.5214 -0.7449
   95SAPS   HN2 9345   3.317   5.832   6.279  0.1809 -0.6523  1.1931
   95SAPS   HN3 9346   3.245   5.912   6.417 -0.4149  2.8664  0.1780
   95SAPS   C12 9347   3.245   6.030   6.249  0.0523 -0.5227  0.0407
   95SAPS  H12A 9348   3.304   6.031   6.158 -0.1812  0.8278 -0.1152
   95SAPS   C13 9349   3.101   6.065   6.193 -0.0491 -1.1876 -0.2841
   95SAPS  O13A 9350   3.001   5.992   6.224  0.1355  0.4088  0.0748
   95SAPS  O13B 9351   3.079   6.178   6.141 -0.1244  0.2768 -0.2973
   95SAPS   C11 9352   3.312   6.142   6.329  0.4078 -0.2443  0.1651
   95SAPS  H11A 9353   3.258   6.147   6.426 -0.8334  0.0725 -0.5147
   95SAPS  H11B 9354   3.293   6.243   6.285  0.1287 -0.6669 -0.7094
   95SAPS     P 9355   3.566   6.210   6.331 -0.0922  0.2531 -0.0640
   95SAPS   O13 9356   3.696   6.141   6.352  0.3354 -0.9711  0.1908
   95SAPS   O14 9357   3.559   6.301   6.222 -0.8394 -0.0512  0.6229
   95SAPS   O12 9358   3.444   6.102   6.336 -0.8754 -1.1866  0.2770
   95SAPS   O11 9359   3.530   6.292   6.462  0.1322 -0.3677 -0.4200
   95SAPS    C1 9360   3.515   6.223   6.583  0.3244  0.0007  0.6366
   95SAPS    HA 9361   3.441   6.140   6.577 -1.1059  1.2562  0.2327
   95SAPS    HB 9362   3.609   6.169   6.606 -1.3166 -3.0776  0.6656
   95SAPS    C2 9363   3.479   6.315   6.695  1.1199 -0.5941 -0.2231
   95SAPS    HS 9364   3.467   6.255   6.788 -0.1928 -0.1781 -0.0897
   95SAPS   O21 9365   3.356   6.386   6.678 -0.1266  0.2323  0.5907
   95SAPS   C21 9366   3.243   6.315   6.657  0.0392 -0.0305 -0.8534
   95SAPS   O22 9367   3.237   6.192   6.667  0.6767  0.0512  0.8411
   95SAPS   C22 9368   3.115   6.400   6.646 -0.8359 -0.6169  0.1050
   95SAPS   H2R 9369   3.103   6.436   6.541 -1.1589 -2.3030 -0.4600
   95SAPS   H2S 9370   3.031   6.338   6.685  0.1090  0.1750  3.7621
   95SAPS    C3 9371   3.588   6.417   6.729  0.4073 -0.2190 -0.4512
   95SAPS    HX 9372   3.576   6.493   6.649  2.1262  0.1650 -0.3768
   95SAPS    HY 9373   3.690   6.380   6.704  1.1802 -0.9662  3.2838
   95SAPS   O31 9374   3.580   6.466   6.871 -0.0066  0.1035  0.7101
   95SAPS   C31 9375   3.664   6.396   6.949 -0.4492 -0.4377 -0.2356
   95SAPS   O32 9376   3.749   6.315   6.915  0.4254 -0.7813 -0.2696
   95SAPS   C32 9377   3.634   6.425   7.101  0.8820  0.5732  0.4157
   95SAPS   H2X 9378   3.537   6.374   7.116  1.0257 -0.6784 -2.3635
   95SAPS   H2Y 9379   3.611   6.533   7.114  1.2663  0.6012  0.9403
   95SAPS   C23 9380   3.130   6.523   6.732  0.4035 -0.0197 -0.3230
   95SAPS   H3R 9381   3.041   6.586   6.712  0.0474 -0.8957 -1.6220
   95SAPS   H3S 9382   3.214   6.587   6.698 -0.3566  1.0840 -0.2138
   95SAPS   C24 9383   3.153   6.503   6.882  0.5472 -0.2399 -0.2198
   95SAPS   H4R 9384   3.169   6.601   6.932 -1.9385  1.2774 -2.1957
   95SAPS   H4S 9385   3.247   6.444   6.880  1.2184  0.8049  0.0431
   95SAPS   C25 9386   3.049   6.418   6.952 -0.5119  0.0631  0.0219
   95SAPS   H5R 9387   2.954   6.401   6.900 -0.4440 -1.9992  0.4786
   95SAPS   C26 9388   3.085   6.346   7.058  0.5756  0.0469 -0.5646
   95SAPS   H6R 9389   3.006   6.294   7.114  0.5505 -0.7601 -1.3357
   95SAPS   C27 9390   3.214   6.354   7.128  0.4099  0.3256  0.6248
   95SAPS   H7R 9391   3.297   6.348   7.054 -0.7490  1.4796 -0.8457
   95SAPS   H7S 9392   3.236   6.261   7.185  2.7195  1.0513  1.0147
   95SAPS   C28 9393   3.253   6.480   7.207 -0.6052  0.5413  0.6832
   95SAPS   H8R 9394   3.253   6.571   7.145  2.5941 -0.0084 -0.2972
   95SAPS   C29 9395   3.289   6.472   7.333 -0.0551 -0.2564 -0.1351
   95SAPS   H9R 9396   3.315   6.563   7.388  0.3027 -0.4788  0.0720
   95SAPS  C210 9397   3.292   6.346   7.414 -0.0113 -0.0287 -0.4470
   95SAPS  H10R 9398   3.357   6.363   7.503 -0.9287  1.3118 -0.0018
   95SAPS  H10S 9399   3.350   6.266   7.362 -0.5282 -1.3705  0.9533
   95SAPS  C211 9400   3.154   6.297   7.459  0.0143 -0.4443 -0.3862
   95SAPS  H11R 9401   3.108   6.231   7.384  3.3625 -3.7830  0.1684
   95SAPS  C212 9402   3.110   6.295   7.590  0.2712  0.1017  0.1467
   95SAPS  H12R 9403   3.015   6.244   7.610 -0.0654  1.1899  1.5169
   95SAPS  C213 9404   3.182   6.337   7.711  0.1065  0.0311  0.1120
   95SAPS  H13R 9405   3.109   6.355   7.793  0.6396  0.8264  0.4264
   95SAPS  H13S 9406   3.234   6.432   7.686  2.1501 -1.2910 -0.9165
   95SAPS  C214 9407   3.296   6.240   7.751  0.4971 -0.1731  1.1875
   95SAPS  H14R 9408   3.397   6.246   7.708 -0.2314 -2.4012 -1.0263
   95SAPS  C215 9409   3.272   6.140   7.836  0.6948  0.4587 -0.8352
   95SAPS  H15R 9410   3.358   6.073   7.853  0.4113  0.3721  0.2859
   95SAPS  C216 9411   3.137   6.109   7.894  0.1079  0.6707  0.0202
   95SAPS  H16R 9412   3.120   6.000   7.884  0.2741  0.8413 -3.4159
   95SAPS  H16S 9413   3.042   6.154   7.857 -0.6909 -0.6597  0.3763
   95SAPS  C217 9414   3.137   6.137   8.046  0.4031  0.1415  0.1481
   95SAPS  H17R 9415   3.184   6.238   8.055  2.8702 -0.9462  0.3672
   95SAPS  H17S 9416   3.207   6.072   8.103 -1.8041 -2.4702  0.0604
   95SAPS  C218 9417   2.998   6.106   8.093  0.0503  0.0678 -0.2493
   95SAPS  H18R 9418   2.986   5.998   8.071  1.9046 -0.2237 -0.0251
   95SAPS  H18S 9419   2.926   6.169   8.037 -1.1236 -1.3593 -0.4021
   95SAPS  C219 9420   2.979   6.117   8.245 -0.1516  0.4781 -0.2341
   95SAPS  H19R 9421   3.080   6.113   8.291 -0.4667  1.5398  0.5968
   95SAPS  H19S 9422   2.923   6.028   8.278  0.4624  0.2075  0.0972
   95SAPS  C220 9423   2.913   6.248   8.290 -0.0568  0.3183 -0.0102
   95SAPS  H20R 9424   2.817   6.272   8.239 -0.6845 -0.4960  0.7745
   95SAPS  H20S 9425   2.980   6.335   8.273 -1.3419  2.1552  3.3803
   95SAPS  H20T 9426   2.884   6.250   8.397 -2.3944  0.1982 -0.5838
   95SAPS   C33 9427   3.743   6.379   7.201 -0.6594  0.0283  0.1260
   95SAPS   H3X 9428   3.828   6.451   7.204 -2.4952  2.3247  2.6964
   95SAPS   H3Y 9429   3.774   6.276   7.176 -2.0801 -0.0866 -1.3249
   95SAPS   C34 9430   3.684   6.359   7.339 -0.4123  0.9762  0.2112
   95SAPS   H4X 9431   3.751   6.301   7.406 -0.8018 -0.1705 -0.3497
   95SAPS   H4Y 9432   3.588   6.303   7.331  1.2379 -2.4175  2.1002
   95SAPS   C35 9433   3.665   6.483   7.414 -0.3966 -0.6539 -0.3354
   95SAPS   H5X 9434   3.582   6.537   7.365  1.7248  1.2465 -2.0114
   95SAPS   H5Y 9435   3.753   6.547   7.395 -1.1978  0.6779  0.2901
   95SAPS   C36 9436   3.643   6.461   7.566  0.0723  0.0925 -0.0626
   95SAPS   H6X 9437   3.721   6.409   7.625  0.6053  1.1614  0.2086
   95SAPS   H6Y 9438   3.551   6.401   7.578  0.9837 -1.0526  1.5006
   95SAPS   C37 9439   3.624   6.598   7.631 -0.0054 -0.1830  0.2608
   95SAPS   H7X 9440   3.534   6.650   7.591  0.0395  0.2172  0.6732
   95SAPS   H7Y 9441   3.714   6.656   7.603 -0.0216  1.1150  2.6406
   95SAPS   C38 9442   3.621   6.601   7.783 -0.5858 -0.0081 -0.7934
   95SAPS   H8X 9443   3.624   6.707   7.815 -0.6733 -0.4199  0.6562
   95SAPS   H8Y 9444   3.712   6.550   7.822 -0.7437  0.9303  0.9088
   95SAPS   C39 9445   3.492   6.532   7.835  0.0461  0.0317  0.2748
   95SAPS   H9X 9446   3.498   6.424   7.812 -0.8267 -0.3131  1.5586
   95SAPS   H9Y 9447   3.408   6.587   7.786 -1.0444 -0.2910  1.7037
   95SAPS  C310 9448   3.474   6.542   7.985  0.5993  0.5696 -0.8384
   95SAPS  H10X 9449   3.472   6.646   8.022 -2.8588  1.0359 -2.0091
   95SAPS  H10Y 9450   3.548   6.488   8.048 -0.7926  0.2490  0.5924
   95SAPS  C311 9451   3.339   6.480   8.024  0.4031 -0.2369  0.3361
   95SAPS  H11X 9452   3.348   6.374   7.994  2.0122  0.5280 -2.2268
   95SAPS  H11Y 9453   3.254   6.532   7.974 -0.9269 -2.1714  0.5115
   95SAPS  C312 9454   3.313   6.495   8.178 -0.0785 -0.4708  0.3445
   95SAPS  H12X 9455   3.403   6.463   8.236  0.4082  0.7192  0.2628
   95SAPS  H12Y 9456   3.229   6.428   8.206 -2.7785  2.2058 -0.9258
   95SAPS  C313 9457   3.283   6.638   8.234  0.3318 -0.3202  1.2496
   95SAPS  H13X 9458   3.174   6.659   8.244  0.4760  0.7913  0.6919
   95SAPS  H13Y 9459   3.333   6.718   8.175 -0.1041  1.4959  3.1833
   95SAPS  C314 9460   3.335   6.645   8.378  0.2655  0.1640 -0.0115
   95SAPS  H14X 9461   3.304   6.747   8.410 -1.6241  0.1806 -1.7173
   95SAPS  H14Y 9462   3.445   6.636   8.361  0.1782  1.0072 -1.1098
   95SAPS  C315 9463   3.294   6.524   8.470  0.5506  0.0774  0.2478
   95SAPS  H15X 9464   3.366   6.514   8.554 -0.7404  2.3970  1.7304
   95SAPS  H15Y 9465   3.278   6.423   8.426  0.1503 -0.0515  0.6809
   95SAPS  C316 9466   3.163   6.538   8.538  0.9044  0.2646 -0.0900
   95SAPS  H16X 9467   3.085   6.566   8.463 -0.4372 -0.1423  1.1034
   95SAPS  H16Y 9468   3.156   6.610   8.623 -1.8982  1.2084 -1.0017
   95SAPS  C317 9469   3.094   6.407   8.585 -0.1763 -0.7982 -0.0189
   95SAPS  H17X 9470   3.085   6.343   8.494 -0.0171 -0.7122 -0.0969
   95SAPS  H17Y 9471   2.996   6.441   8.623  0.5152 -1.0648  2.1305
   95SAPS  C318 9472   3.164   6.335   8.703 -0.4631  0.0447  0.3202
   95SAPS  H18X 9473   3.185   6.411   8.781  0.3745 -1.0768  1.2037
   95SAPS  H18Y 9474   3.264   6.291   8.687 -1.4171 -1.6897 -1.3317
   95SAPS  H18Z 9475   3.096   6.260   8.749 -0.7190 -0.0160 -0.1453
   96SAPS     N 9476   3.414   0.602   6.108  0.3814  0.6394 -0.3254
   96SAPS   HN1 9477   3.450   0.514   6.065 -0.6324  1.3653 -2.8762
   96SAPS   HN2 9478   3.365   0.659   6.035 -0.0504  1.6208  0.7092
   96SAPS   HN3 9479   3.495   0.651   6.151 -0.6965  3.0560 -0.8812
   96SAPS   C12 9480   3.308   0.562   6.203 -0.1956 -0.0061 -0.2966
   96SAPS  H12A 9481   3.218   0.556   6.143  0.5861 -0.5724 -1.4621
   96SAPS   C13 9482   3.313   0.413   6.262  0.1694 -0.3625 -0.4456
   96SAPS  O13A 9483   3.399   0.331   6.220 -0.5449  0.1807 -0.3773
   96SAPS  O13B 9484   3.257   0.394   6.371  0.2880  0.1022  0.6561
   96SAPS   C11 9485   3.293   0.671   6.323  0.0732  0.5703  0.3770
   96SAPS  H11A 9486   3.381   0.656   6.388 -0.3826 -2.5176  0.4308
   96SAPS  H11B 9487   3.193   0.662   6.371 -1.4400 -0.3059 -2.6642
   96SAPS     P 9488   3.183   0.886   6.214  0.4714  0.1589 -0.3474
   96SAPS   O13 9489   3.230   0.993   6.126  0.6456  0.1870 -0.1862
   96SAPS   O14 9490   3.069   0.796   6.176  0.4068  0.6896  0.4748
   96SAPS   O12 9491   3.311   0.804   6.261  0.8635  0.0689  0.5730
   96SAPS   O11 9492   3.126   0.944   6.353 -0.3079  0.0234 -0.1493
   96SAPS    C1 9493   3.204   1.011   6.447  0.2979  0.1910 -0.3035
   96SAPS    HA 9494   3.291   1.065   6.404 -0.2789  1.4517  0.0360
   96SAPS    HB 9495   3.139   1.088   6.496  0.0183 -0.0829 -0.2399
   96SAPS    C2 9496   3.246   0.916   6.567  0.6537 -0.1569  0.0618
   96SAPS    HS 9497   3.300   0.832   6.518 -0.0377 -1.6039  1.7019
   96SAPS   O21 9498   3.123   0.871   6.640 -0.0286  0.0070  0.1151
   96SAPS   C21 9499   3.138   0.755   6.710 -0.2675  0.0363  0.4389
   96SAPS   O22 9500   3.240   0.690   6.701  0.2136  0.9948 -0.2739
   96SAPS   C22 9501   3.017   0.708   6.783  1.3121 -0.3977  0.0614
   96SAPS   H2R 9502   2.993   0.785   6.860  1.4811 -2.8134  2.7268
   96SAPS   H2S 9503   2.927   0.684   6.722  1.6531 -2.9579  0.4500
   96SAPS    C3 9504   3.345   0.969   6.675  0.2947 -0.1629 -0.1721
   96SAPS    HX 9505   3.440   0.986   6.620 -0.4977 -2.4175 -2.4794
   96SAPS    HY 9506   3.359   0.901   6.761 -1.4838  0.7366  0.8904
   96SAPS   O31 9507   3.302   1.103   6.714  0.6586  0.4745  0.6158
   96SAPS   C31 9508   3.206   1.104   6.818 -0.5441  0.7485 -0.2384
   96SAPS   O32 9509   3.154   1.012   6.870 -0.1538 -0.0247 -0.4824
   96SAPS   C32 9510   3.165   1.250   6.843 -0.7667  0.0195 -0.4716
   96SAPS   H2X 9511   3.068   1.246   6.897  0.0242 -0.0249  0.9875
   96SAPS   H2Y 9512   3.151   1.303   6.746  1.6534  0.3761 -0.6948
   96SAPS   C23 9513   3.047   0.584   6.870 -0.1875  0.4050 -1.0843
   96SAPS   H3R 9514   3.141   0.591   6.930 -0.0489 -2.1149 -0.9055
   96SAPS   H3S 9515   3.062   0.498   6.801 -1.3871 -0.6340 -0.1166
   96SAPS   C24 9516   2.925   0.556   6.963  0.8583  0.0108  0.6135
   96SAPS   H4R 9517   2.938   0.449   6.989 -1.5410 -0.3398  0.5548
   96SAPS   H4S 9518   2.830   0.554   6.906  1.1074  2.0715  0.0260
   96SAPS   C25 9519   2.900   0.660   7.076 -0.0878 -0.5797  0.6704
   96SAPS   H5R 9520   2.901   0.764   7.042  1.8383 -1.2071 -1.4310
   96SAPS   C26 9521   2.890   0.625   7.205  0.2499 -0.0082 -0.2883
   96SAPS   H6R 9522   2.894   0.713   7.272  1.6855  1.1193 -1.7709
   96SAPS   C27 9523   2.889   0.490   7.279 -0.4886  0.0255  0.2943
   96SAPS   H7R 9524   2.927   0.406   7.216  3.1869  2.2312 -0.7624
   96SAPS   H7S 9525   2.786   0.466   7.313  0.2517 -5.1436 -0.2657
   96SAPS   C28 9526   2.973   0.489   7.405  0.5652 -0.1897  0.2799
   96SAPS   H8R 9527   3.081   0.472   7.399  0.3415 -1.0785 -2.4363
   96SAPS   C29 9528   2.928   0.534   7.524 -0.3047  0.0500 -0.7731
   96SAPS   H9R 9529   3.002   0.528   7.605 -2.3526 -1.2075  1.0964
   96SAPS  C210 9530   2.799   0.598   7.565 -0.8494 -0.9229 -0.4639
   96SAPS  H10R 9531   2.731   0.525   7.615 -1.5338  1.1489  1.8247
   96SAPS  H10S 9532   2.742   0.627   7.474 -0.0888 -0.6112 -0.8473
   96SAPS  C211 9533   2.825   0.719   7.659  1.0467  0.7446  0.1015
   96SAPS  H11R 9534   2.916   0.721   7.720  2.8327 -2.0571 -2.2208
   96SAPS  C212 9535   2.742   0.819   7.660  0.0437  0.0091  0.2649
   96SAPS  H12R 9536   2.749   0.894   7.740 -1.0508 -1.3814  1.7525
   96SAPS  C213 9537   2.610   0.840   7.582  0.1241 -0.3066 -0.5275
   96SAPS  H13R 9538   2.544   0.753   7.601  0.4096 -0.2899  0.6059
   96SAPS  H13S 9539   2.649   0.833   7.478 -0.2240  0.7641 -0.7415
   96SAPS  C214 9540   2.549   0.974   7.601 -0.3935  0.9725 -0.1502
   96SAPS  H14R 9541   2.565   1.044   7.518  0.6465  1.0592  0.1116
   96SAPS  C215 9542   2.478   1.028   7.705 -0.4105 -0.4942  0.9202
   96SAPS  H15R 9543   2.433   1.124   7.679  0.9819  0.2820  1.2703
   96SAPS  C216 9544   2.456   0.957   7.837  0.1916 -0.2085  0.0139
   96SAPS  H16R 9545   2.529   0.876   7.857 -2.3494 -2.8305 -0.6754
   96SAPS  H16S 9546   2.367   0.891   7.828  0.7375 -0.9767  0.1813
   96SAPS  C217 9547   2.443   1.054   7.959 -0.8464 -0.2208  0.1244
   96SAPS  H17R 9548   2.361   1.122   7.926  0.3638 -0.1955 -3.2643
   96SAPS  H17S 9549   2.539   1.108   7.972 -0.3959 -1.3212  1.7105
   96SAPS  C218 9550   2.406   0.980   8.083 -0.2528 -0.1843 -0.1932
   96SAPS  H18R 9551   2.425   1.022   8.184  0.3128 -1.3902  0.2134
   96SAPS  H18S 9552   2.462   0.884   8.087  0.6381  0.3481  0.3274
   96SAPS  C219 9553   2.254   0.952   8.097  0.2627  0.0930 -0.7085
   96SAPS  H19R 9554   2.238   0.880   8.014 -0.0294 -1.6917  0.8418
   96SAPS  H19S 9555   2.197   1.047   8.082  0.1108 -0.0328 -0.9258
   96SAPS  C220 9556   2.224   0.881   8.230 -0.9447  0.2479  0.0940
   96SAPS  H20R 9557   2.233   0.956   8.312 -0.0904 -0.6042  0.7981
   96SAPS  H20S 9558   2.304   0.806   8.245  0.2924  1.5214  0.0971
   96SAPS  H20T 9559   2.123   0.835   8.232 -0.3265 -1.2802 -1.5176
   96SAPS   C33 9560   3.264   1.312   6.954 -0.4365  0.8076  0.0198
   96SAPS   H3X 9561   3.261   1.422   6.942 -0.4693  0.7837 -0.1873
   96SAPS   H3Y 9562   3.370   1.293   6.924 -0.5520  1.4127 -0.7923
   96SAPS   C34 9563   3.240   1.269   7.101  0.0423 -0.0394  0.3762
   96SAPS   H4X 9564   3.240   1.158   7.106 -3.7665 -0.1550  0.4491
   96SAPS   H4Y 9565   3.138   1.295   7.137 -1.2938 -2.4823 -1.3659
   96SAPS   C35 9566   3.353   1.326   7.188 -0.0810  0.9852  0.4042
   96SAPS   H5X 9567   3.345   1.434   7.162 -1.7306  0.3613 -2.0559
   96SAPS   H5Y 9568   3.451   1.291   7.149 -0.3684 -0.0579  0.5915
   96SAPS   C36 9569   3.328   1.322   7.334  0.4537 -0.1151  0.1814
   96SAPS   H6X 9570   3.352   1.217   7.364 -1.4079 -1.0217 -1.2675
   96SAPS   H6Y 9571   3.219   1.327   7.358  0.1773  0.7246 -1.1745
   96SAPS   C37 9572   3.419   1.415   7.411 -0.2692  0.5432  0.2418
   96SAPS   H7X 9573   3.397   1.519   7.380  0.8868  0.2995 -1.5885
   96SAPS   H7Y 9574   3.527   1.400   7.388 -0.3288 -0.3033  0.4679
   96SAPS   C38 9575   3.392   1.405   7.564 -0.0658 -0.5650  0.2445
   96SAPS   H8X 9576   3.284   1.427   7.578  0.0596  0.8391 -0.7565
   96SAPS   H8Y 9577   3.452   1.485   7.613  0.6001 -0.5130 -0.6340
   96SAPS   C39 9578   3.422   1.271   7.617  0.3076  0.2554 -0.0117
   96SAPS   H9X 9579   3.498   1.222   7.553 -1.1536 -0.7763 -1.0184
   96SAPS   H9Y 9580   3.329   1.211   7.605  1.0871 -0.9252 -0.2467
   96SAPS  C310 9581   3.448   1.260   7.764  0.2087 -0.6711  0.1170
   96SAPS  H10X 9582   3.544   1.312   7.783 -0.2977 -0.1520  1.4718
   96SAPS  H10Y 9583   3.462   1.152   7.786  0.0921 -0.1555  3.2440
   96SAPS  C311 9584   3.336   1.312   7.857 -0.4963  0.0415 -0.0303
   96SAPS  H11X 9585   3.239   1.260   7.846 -0.4528  0.3473 -2.4833
   96SAPS  H11Y 9586   3.312   1.419   7.838  0.4662  0.6279  1.7749
   96SAPS  C312 9587   3.381   1.299   8.009  0.1748  0.3586  0.2423
   96SAPS  H12X 9588   3.442   1.392   8.021  2.1183 -0.8221 -0.0341
   96SAPS  H12Y 9589   3.439   1.206   8.025 -1.6423 -0.6710  1.0358
   96SAPS  C313 9590   3.266   1.290   8.106  0.0946  0.4672  0.3014
   96SAPS  H13X 9591   3.214   1.194   8.084 -2.3582  1.4951  1.2447
   96SAPS  H13Y 9592   3.195   1.374   8.094  0.5479  0.7112 -0.8350
   96SAPS  C314 9593   3.317   1.289   8.246  0.6078  0.0390 -0.3136
   96SAPS  H14X 9594   3.332   1.396   8.274 -2.0647  1.2243 -2.7826
   96SAPS  H14Y 9595   3.414   1.236   8.247 -0.2667 -1.6893 -1.4166
   96SAPS  C315 9596   3.215   1.229   8.341  0.4799 -0.0272 -0.0947
   96SAPS  H15X 9597   3.256   1.204   8.441 -2.5764 -3.8551  0.4730
   96SAPS  H15Y 9598   3.183   1.127   8.310 -0.1550 -0.0641  0.6477
   96SAPS  C316 9599   3.091   1.317   8.356  0.1370 -0.2874  0.0948
   96SAPS  H16X 9600   3.047   1.325   8.254  1.9485 -3.3142 -1.0674
   96SAPS  H16Y 9601   3.112   1.420   8.392  1.1486 -0.1982 -0.7058
   96SAPS  C317 9602   2.975   1.268   8.445  0.4517 -0.2914  0.4853
   96SAPS  H17X 9603   3.015   1.241   8.545  1.4689 -1.0815 -0.1168
   96SAPS  H17Y 9604   2.953   1.167   8.404 -1.6478  0.2903  0.0711
   96SAPS  C318 9605   2.864   1.369   8.451 -0.2464  0.3932 -0.3073
   96SAPS  H18X 9606   2.886   1.465   8.503  0.3323 -0.1655  0.5050
   96SAPS  H18Y 9607   2.781   1.321   8.507  0.2643  0.5319  0.5889
   96SAPS  H18Z 9608   2.822   1.398   8.352 -2.2119  0.5861  0.5399
   97SAPS     N 9609   3.148   3.577   6.237  0.3820 -0.4869 -0.4121
   97SAPS   HN1 9610   3.190   3.665   6.202  0.6516 -0.1832  0.6418
   97SAPS   HN2 9611   3.160   3.508   6.160  2.9225  0.6692 -1.1391
   97SAPS   HN3 9612   3.048   3.593   6.259  0.3554 -0.3191 -0.6592
   97SAPS   C12 9613   3.226   3.517   6.348 -0.5383  0.8092 -0.0308
   97SAPS  H12A 9614   3.165   3.433   6.377  0.1585  0.2430 -0.1808
   97SAPS   C13 9615   3.357   3.449   6.292 -0.6681  0.0368  0.0781
   97SAPS  O13A 9616   3.378   3.469   6.166  0.7722  0.4677 -0.1047
   97SAPS  O13B 9617   3.416   3.363   6.354  0.1032  0.4087  0.4893
   97SAPS   C11 9618   3.272   3.616   6.450  0.0176 -0.6463 -0.2325
   97SAPS  H11A 9619   3.330   3.573   6.535 -2.9546 -0.6265  1.9637
   97SAPS  H11B 9620   3.185   3.665   6.498 -0.5028 -1.7642 -0.0125
   97SAPS     P 9621   3.450   3.810   6.454  0.2597  0.4605 -0.0302
   97SAPS   O13 9622   3.561   3.831   6.352  0.1531  0.3419 -0.2153
   97SAPS   O14 9623   3.386   3.929   6.525  0.2789 -0.1243  0.3464
   97SAPS   O12 9624   3.342   3.723   6.386  0.3096  0.3028  0.7787
   97SAPS   O11 9625   3.508   3.711   6.557 -0.9970 -0.5422 -0.5409
   97SAPS    C1 9626   3.629   3.751   6.631  0.5742 -0.0535  0.7015
   97SAPS    HA 9627   3.717   3.697   6.593 -0.0269 -0.0669 -0.7369
   97SAPS    HB 9628   3.644   3.861   6.629 -0.2153  0.0594  0.3840
   97SAPS    C2 9629   3.616   3.702   6.778  0.7193  0.4044  0.1168
   97SAPS    HS 9630   3.678   3.771   6.840 -0.5875  1.0216  0.7896
   97SAPS   O21 9631   3.659   3.564   6.793  0.3333  0.1887 -0.3952
   97SAPS   C21 9632   3.788   3.552   6.839  0.8839  0.0850  1.3140
   97SAPS   O22 9633   3.861   3.647   6.871  0.1769 -0.4191  0.6239
   97SAPS   C22 9634   3.818   3.408   6.854  0.0238  0.4056  0.1687
   97SAPS   H2R 9635   3.725   3.350   6.831  0.0532  0.5817 -0.3991
   97SAPS   H2S 9636   3.901   3.389   6.783  1.1607  2.2807  0.9276
   97SAPS    C3 9637   3.475   3.715   6.840  0.2488 -0.1366 -0.1288
   97SAPS    HX 9638   3.400   3.667   6.773 -0.4417  3.8098 -2.4870
   97SAPS    HY 9639   3.444   3.821   6.828  1.5886  0.5937  2.3080
   97SAPS   O31 9640   3.475   3.681   6.980  1.1266 -0.5867  0.0641
   97SAPS   C31 9641   3.359   3.642   7.031 -0.2937 -0.0139 -0.5683
   97SAPS   O32 9642   3.253   3.637   6.968 -0.5058  0.1428 -0.1976
   97SAPS   C32 9643   3.382   3.606   7.176  0.2829 -0.0552 -0.9082
   97SAPS   H2X 9644   3.455   3.681   7.213  0.4253  0.4585 -2.1824
   97SAPS   H2Y 9645   3.436   3.509   7.179 -0.9073 -0.8085  3.1645
   97SAPS   C23 9646   3.850   3.357   6.997  0.3817  0.2684 -0.5772
   97SAPS   H3R 9647   3.946   3.387   7.044 -0.2693  0.0771  0.9542
   97SAPS   H3S 9648   3.850   3.247   6.977 -0.2131 -0.5636  3.1848
   97SAPS   C24 9649   3.720   3.370   7.094 -0.8005  0.2641  0.5322
   97SAPS   H4R 9650   3.644   3.304   7.049 -0.4019 -0.2230  0.5653
   97SAPS   H4S 9651   3.695   3.477   7.075  0.3378  0.2643 -1.2469
   97SAPS   C25 9652   3.761   3.332   7.232  0.0542  0.3995  0.4727
   97SAPS   H5R 9653   3.769   3.223   7.236  0.5440  0.3712 -0.8209
   97SAPS   C26 9654   3.792   3.411   7.334 -0.1536 -0.4515 -0.5769
   97SAPS   H6R 9655   3.809   3.363   7.432 -0.7967  2.1452  0.9089
   97SAPS   C27 9656   3.781   3.567   7.330 -0.2287 -0.2611 -0.4578
   97SAPS   H7R 9657   3.738   3.601   7.426 -1.6629 -0.2515 -1.0769
   97SAPS   H7S 9658   3.713   3.599   7.248 -0.0973 -0.8631 -0.8075
   97SAPS   C28 9659   3.917   3.623   7.300  0.5542 -0.1520 -0.2908
   97SAPS   H8R 9660   3.961   3.578   7.210 -1.4688 -1.1598 -0.8334
   97SAPS   C29 9661   3.982   3.723   7.360 -0.1437  0.1869  0.6025
   97SAPS   H9R 9662   4.064   3.771   7.306 -0.5854  0.7606  0.4307
   97SAPS  C210 9663   3.925   3.811   7.466  0.1054 -0.0388  0.4194
   97SAPS  H10R 9664   3.977   3.783   7.560  3.3680  0.2096 -1.1716
   97SAPS  H10S 9665   3.817   3.792   7.487 -0.4698  1.1312 -1.2697
   97SAPS  C211 9666   3.931   3.959   7.438 -0.7332  0.0607  0.5429
   97SAPS  H11R 9667   3.871   3.992   7.352  3.3085 -0.1347 -2.6728
   97SAPS  C212 9668   4.001   4.042   7.513 -0.0890  0.0187  0.1880
   97SAPS  H12R 9669   4.009   4.147   7.481  2.7020 -0.6617 -1.7171
   97SAPS  C213 9670   4.086   4.005   7.633  0.3742  0.0436  0.0879
   97SAPS  H13R 9671   4.079   3.902   7.674  0.6339 -0.0517 -0.1067
   97SAPS  H13S 9672   4.059   4.073   7.717  0.6580  1.2999 -0.8018
   97SAPS  C214 9673   4.233   4.030   7.599  0.0258 -0.1459  0.3354
   97SAPS  H14R 9674   4.252   4.118   7.536 -1.4199 -1.1097 -1.5420
   97SAPS  C215 9675   4.339   3.952   7.619 -0.0805  0.0416 -0.0404
   97SAPS  H15R 9676   4.441   3.972   7.583  0.3569 -1.0074  0.5340
   97SAPS  C216 9677   4.332   3.823   7.690  0.7317 -0.4894 -0.7135
   97SAPS  H16R 9678   4.244   3.759   7.670  1.1677 -2.2359  2.3046
   97SAPS  H16S 9679   4.326   3.850   7.798 -0.2843 -0.2193 -0.8242
   97SAPS  C217 9680   4.456   3.738   7.653  1.4436  0.5510 -0.3156
   97SAPS  H17R 9681   4.447   3.637   7.699  4.2168  1.0662  1.6013
   97SAPS  H17S 9682   4.554   3.783   7.681  1.5256  0.3922 -0.3477
   97SAPS  C218 9683   4.467   3.711   7.500  0.0776  0.0276 -0.4256
   97SAPS  H18R 9684   4.493   3.800   7.439 -0.4212 -0.0417 -0.7498
   97SAPS  H18S 9685   4.370   3.673   7.460 -0.4378  0.0563  0.7531
   97SAPS  C219 9686   4.583   3.607   7.465  0.3670  0.2268 -0.5630
   97SAPS  H19R 9687   4.681   3.636   7.509 -0.3718 -0.1870  1.5047
   97SAPS  H19S 9688   4.590   3.593   7.355 -0.3967 -0.9781 -0.4748
   97SAPS  C220 9689   4.561   3.466   7.513  0.6324 -0.3506  0.0243
   97SAPS  H20R 9690   4.463   3.430   7.474  0.0243  0.8598  0.3827
   97SAPS  H20S 9691   4.572   3.451   7.623 -0.3927  0.9489  0.3330
   97SAPS  H20T 9692   4.634   3.396   7.467 -0.0210 -1.5954  0.8083
   97SAPS   C33 9693   3.249   3.596   7.259 -0.5528 -0.3659  0.3254
   97SAPS   H3X 9694   3.191   3.508   7.227  0.7273 -0.7538 -1.0567
   97SAPS   H3Y 9695   3.187   3.685   7.236 -2.2421 -1.1861  1.4491
   97SAPS   C34 9696   3.265   3.583   7.413 -0.0364 -0.6200  0.1945
   97SAPS   H4X 9697   3.171   3.578   7.471 -0.2562  0.6699 -0.0130
   97SAPS   H4Y 9698   3.302   3.683   7.443 -1.1918  0.7333 -2.5196
   97SAPS   C35 9699   3.355   3.475   7.464 -0.6076 -0.4659 -0.0769
   97SAPS   H5X 9700   3.458   3.477   7.422 -1.0529  2.5915 -1.2958
   97SAPS   H5Y 9701   3.303   3.379   7.443  0.8250 -1.0901 -0.8792
   97SAPS   C36 9702   3.376   3.476   7.618  0.4620 -0.2254  0.3015
   97SAPS   H6X 9703   3.395   3.376   7.663  1.5799  0.4311  1.3482
   97SAPS   H6Y 9704   3.287   3.532   7.654  0.5839  0.0053  0.2442
   97SAPS   C37 9705   3.491   3.567   7.645  0.4325  0.0752  0.6558
   97SAPS   H7X 9706   3.474   3.663   7.591 -1.0493 -1.5599 -2.0056
   97SAPS   H7Y 9707   3.582   3.522   7.600  1.6594  0.3544  2.7278
   97SAPS   C38 9708   3.520   3.585   7.797  1.0656 -0.8811 -0.8452
   97SAPS   H8X 9709   3.506   3.491   7.854  1.2991 -2.0550 -2.6509
   97SAPS   H8Y 9710   3.447   3.661   7.833 -0.4412 -2.0126 -1.3762
   97SAPS   C39 9711   3.667   3.631   7.816 -0.5616 -0.4042 -0.9020
   97SAPS   H9X 9712   3.680   3.716   7.746  0.2435  0.5350  0.3608
   97SAPS   H9Y 9713   3.745   3.561   7.780  1.2728  0.2482  1.5362
   97SAPS  C310 9714   3.707   3.673   7.953 -0.2558  0.3330 -0.2485
   97SAPS  H10X 9715   3.675   3.594   8.024 -2.2664 -0.5447 -2.0281
   97SAPS  H10Y 9716   3.650   3.761   7.989  0.6326  1.7104 -2.0261
   97SAPS  C311 9717   3.858   3.696   7.960 -0.7095  0.1395 -0.1483
   97SAPS  H11X 9718   3.882   3.742   7.862 -1.7290  1.7384  0.3273
   97SAPS  H11Y 9719   3.907   3.596   7.961 -0.9711 -0.0068  1.9557
   97SAPS  C312 9720   3.913   3.780   8.074  0.6421  0.6402 -0.3690
   97SAPS  H12X 9721   3.895   3.724   8.168 -1.6019  1.1983 -0.4079
   97SAPS  H12Y 9722   3.855   3.875   8.065  0.4452  0.4965 -0.6370
   97SAPS  C313 9723   4.062   3.808   8.051 -0.1904 -0.1984 -0.2929
   97SAPS  H13X 9724   4.075   3.902   8.109 -0.1198  0.9793 -2.1510
   97SAPS  H13Y 9725   4.080   3.825   7.943 -0.0486  1.2855 -0.0523
   97SAPS  C314 9726   4.162   3.713   8.107 -0.0210 -0.4332 -0.3274
   97SAPS  H14X 9727   4.182   3.635   8.031  3.3466  2.0707 -2.3389
   97SAPS  H14Y 9728   4.125   3.667   8.201  0.0094  2.4627  1.2091
   97SAPS  C315 9729   4.294   3.791   8.133  0.2518 -0.1783  0.6399
   97SAPS  H15X 9730   4.255   3.870   8.200  3.2671  1.3413  0.8066
   97SAPS  H15Y 9731   4.346   3.828   8.042 -0.6335  0.9730  0.5883
   97SAPS  C316 9732   4.387   3.705   8.214  0.3366 -0.0557 -0.1305
   97SAPS  H16X 9733   4.351   3.611   8.259  0.4504 -1.6536 -3.1054
   97SAPS  H16Y 9734   4.434   3.767   8.294  0.7711 -0.2375 -0.2407
   97SAPS  C317 9735   4.506   3.658   8.126  0.9174 -0.0407  0.5281
   97SAPS  H17X 9736   4.571   3.745   8.102  1.3951 -0.6696 -0.4810
   97SAPS  H17Y 9737   4.471   3.629   8.025 -0.2857  2.0368  0.2760
   97SAPS  C318 9738   4.593   3.561   8.188 -0.6688  0.2458 -0.3858
   97SAPS  H18X 9739   4.549   3.460   8.201  1.1459 -0.7408 -1.4022
   97SAPS  H18Y 9740   4.628   3.593   8.289 -0.9318  2.2514 -0.8963
   97SAPS  H18Z 9741   4.682   3.550   8.122  0.6487 -1.0216  1.4787
   98SAPS     N 9742   3.539   5.250   6.297  0.4349 -0.1248  0.5104
   98SAPS   HN1 9743   3.489   5.332   6.337 -1.1623 -0.9549  0.3080
   98SAPS   HN2 9744   3.472   5.171   6.312  2.5833 -1.7530  2.2797
   98SAPS   HN3 9745   3.624   5.216   6.346 -0.4160 -2.8630  0.3145
   98SAPS   C12 9746   3.575   5.280   6.162  0.4026  0.3448 -0.1986
   98SAPS  H12A 9747   3.675   5.321   6.169  0.0904  1.1866 -0.5078
   98SAPS   C13 9748   3.562   5.163   6.065  0.2091 -0.7432  0.4022
   98SAPS  O13A 9749   3.533   5.048   6.101 -0.3963  0.2497 -0.1857
   98SAPS  O13B 9750   3.599   5.190   5.949  0.1852 -0.4995 -0.2101
   98SAPS   C11 9751   3.485   5.396   6.114 -1.1092  0.3708 -0.3740
   98SAPS  H11A 9752   3.379   5.363   6.122 -1.6454  1.8616 -0.8980
   98SAPS  H11B 9753   3.521   5.417   6.011 -1.1506 -1.6635 -0.8461
   98SAPS     P 9754   3.437   5.642   6.139  0.3342  0.4688 -0.1898
   98SAPS   O13 9755   3.529   5.693   6.037 -0.7275 -0.5059 -0.3780
   98SAPS   O14 9756   3.295   5.614   6.101  0.1060 -0.3838 -0.4734
   98SAPS   O12 9757   3.499   5.508   6.200 -0.6990  0.2601  0.2918
   98SAPS   O11 9758   3.436   5.738   6.262  0.1420 -0.1752 -0.0219
   98SAPS    C1 9759   3.560   5.773   6.324 -0.2366  0.2684 -0.6582
   98SAPS    HA 9760   3.643   5.762   6.251 -0.0271  0.3354 -0.4337
   98SAPS    HB 9761   3.551   5.879   6.356  0.0431 -0.1586  0.9275
   98SAPS    C2 9762   3.578   5.680   6.446  0.7568  0.0184  0.4186
   98SAPS    HS 9763   3.609   5.578   6.414 -3.0804 -1.7457  1.7151
   98SAPS   O21 9764   3.450   5.665   6.519  0.5667  0.2454  0.1167
   98SAPS   C21 9765   3.404   5.546   6.546  0.3853  1.3435 -0.2497
   98SAPS   O22 9766   3.464   5.441   6.524 -0.2774  0.2540  0.0589
   98SAPS   C22 9767   3.256   5.559   6.579 -0.2933 -0.3846 -0.5956
   98SAPS   H2R 9768   3.218   5.663   6.571 -0.3281 -0.5210 -2.7216
   98SAPS   H2S 9769   3.199   5.501   6.503  1.8823 -1.4518 -1.4874
   98SAPS    C3 9770   3.690   5.732   6.545 -0.2588  0.9249 -0.4729
   98SAPS    HX 9771   3.768   5.779   6.482  1.3887 -1.3538 -0.2907
   98SAPS    HY 9772   3.734   5.642   6.594 -1.6472  0.6295  0.2911
   98SAPS   O31 9773   3.644   5.835   6.632  0.4671 -0.5546  0.0136
   98SAPS   C31 9774   3.633   5.808   6.761  0.1175 -0.0573 -0.2445
   98SAPS   O32 9775   3.672   5.712   6.817 -0.3434 -0.2924 -0.0779
   98SAPS   C32 9776   3.546   5.919   6.822  0.9838  0.1352 -0.0128
   98SAPS   H2X 9777   3.445   5.877   6.805  1.4496 -1.2210  0.4318
   98SAPS   H2Y 9778   3.546   6.013   6.764  1.1717  0.4316  0.4560
   98SAPS   C23 9779   3.206   5.477   6.698  0.0070 -0.2994  0.5429
   98SAPS   H3R 9780   3.246   5.374   6.691  0.2797 -0.0745 -2.1839
   98SAPS   H3S 9781   3.096   5.468   6.708  0.1458 -3.2313  0.1605
   98SAPS   C24 9782   3.265   5.533   6.830 -0.7447  0.3770 -0.4866
   98SAPS   H4R 9783   3.375   5.549   6.825 -0.3449 -1.1901  1.7310
   98SAPS   H4S 9784   3.254   5.445   6.897  2.1359  1.2562  1.3037
   98SAPS   C25 9785   3.197   5.664   6.866  0.8935  0.7172  0.3023
   98SAPS   H5R 9786   3.198   5.746   6.792  0.0273  2.2090  1.8873
   98SAPS   C26 9787   3.148   5.697   6.986 -0.6787  0.0527  0.4252
   98SAPS   H6R 9788   3.112   5.800   6.999 -0.1423  0.4547 -1.0068
   98SAPS   C27 9789   3.140   5.608   7.108 -0.4682  0.0104 -0.2904
   98SAPS   H7R 9790   3.087   5.515   7.079  0.5848 -1.0210  0.9936
   98SAPS   H7S 9791   3.066   5.657   7.175  0.4196 -1.6737  2.0627
   98SAPS   C28 9792   3.272   5.590   7.184  0.4387 -0.2493  0.5601
   98SAPS   H8R 9793   3.352   5.569   7.112 -0.9053  3.4224 -2.3440
   98SAPS   C29 9794   3.296   5.597   7.315 -0.0113  0.7768 -0.0861
   98SAPS   H9R 9795   3.398   5.581   7.353 -0.5200  0.4990  1.2328
   98SAPS  C210 9796   3.194   5.622   7.427  0.2866  0.8388  0.4435
   98SAPS  H10R 9797   3.096   5.648   7.382 -0.5772  0.0559  1.8101
   98SAPS  H10S 9798   3.222   5.713   7.484 -2.0283  1.2739  0.9973
   98SAPS  C211 9799   3.183   5.505   7.520 -0.2191  0.4202 -0.6554
   98SAPS  H11R 9800   3.156   5.410   7.472 -0.3859 -2.5280  4.5199
   98SAPS  C212 9801   3.194   5.507   7.654  0.4042  0.3522  0.7515
   98SAPS  H12R 9802   3.178   5.419   7.717  2.7415  0.5822  1.7802
   98SAPS  C213 9803   3.229   5.625   7.738  0.0367  0.7827 -0.6409
   98SAPS  H13R 9804   3.166   5.621   7.830  1.0461 -0.6684  0.0228
   98SAPS  H13S 9805   3.207   5.717   7.679 -1.0351  1.4033  0.6725
   98SAPS  C214 9806   3.374   5.612   7.780  0.3344  0.4168 -0.6395
   98SAPS  H14R 9807   3.438   5.565   7.703 -1.8317 -2.8843 -0.6347
   98SAPS  C215 9808   3.431   5.630   7.902  0.1820  0.2319  0.5438
   98SAPS  H15R 9809   3.541   5.624   7.908  0.2211  0.4686  0.0974
   98SAPS  C216 9810   3.352   5.680   8.022  0.5603 -0.1223  0.3162
   98SAPS  H16R 9811   3.379   5.623   8.114 -0.3804  3.0861  2.7547
   98SAPS  H16S 9812   3.241   5.678   8.011  0.4704 -6.3804 -2.2425
   98SAPS  C217 9813   3.394   5.822   8.060 -0.7794  0.0761  0.1722
   98SAPS  H17R 9814   3.304   5.878   8.094 -0.9182  0.9296 -1.5135
   98SAPS  H17S 9815   3.426   5.890   7.979  2.3661  0.9394  1.9601
   98SAPS  C218 9816   3.502   5.822   8.174 -0.7436 -0.7680 -0.1614
   98SAPS  H18R 9817   3.592   5.770   8.135  2.4579  1.4870  3.6260
   98SAPS  H18S 9818   3.477   5.768   8.268  1.9439  1.5381  2.0273
   98SAPS  C219 9819   3.522   5.967   8.212 -0.0931  0.0532 -0.7007
   98SAPS  H19R 9820   3.436   5.981   8.281  2.4331  0.8738  2.5179
   98SAPS  H19S 9821   3.511   6.031   8.121  1.0836 -1.0589 -1.6639
   98SAPS  C220 9822   3.660   5.982   8.277 -0.0559 -0.4669  0.2386
   98SAPS  H20R 9823   3.671   5.911   8.361  0.6693 -1.0314 -0.3234
   98SAPS  H20S 9824   3.679   6.083   8.319 -1.9236  0.0603 -0.0894
   98SAPS  H20T 9825   3.730   5.948   8.198  0.6005  1.5323 -0.1151
   98SAPS   C33 9826   3.571   5.935   6.980 -0.1584 -0.7834 -0.1708
   98SAPS   H3X 9827   3.656   6.006   6.993 -1.1548  0.8434 -1.9702
   98SAPS   H3Y 9828   3.571   5.834   7.027  0.1074 -1.1016 -0.8459
   98SAPS   C34 9829   3.450   6.019   7.033 -0.1511  0.3228  0.3572
   98SAPS   H4X 9830   3.362   5.959   7.002 -0.9307  1.9128 -0.6415
   98SAPS   H4Y 9831   3.445   6.110   6.969  0.0596 -1.2662 -2.0436
   98SAPS   C35 9832   3.463   6.054   7.182  0.2488  0.8675 -0.0770
   98SAPS   H5X 9833   3.423   6.156   7.199  1.7006  1.4065  0.2724
   98SAPS   H5Y 9834   3.566   6.055   7.224 -0.2759 -1.9742  1.4850
   98SAPS   C36 9835   3.391   5.946   7.265 -0.9212 -0.4247 -0.4178
   98SAPS   H6X 9836   3.421   5.849   7.218 -0.7257 -1.2108  1.2430
   98SAPS   H6Y 9837   3.282   5.950   7.246 -0.9340 -0.5756 -0.3819
   98SAPS   C37 9838   3.417   5.951   7.409  0.1162 -0.1336 -0.0496
   98SAPS   H7X 9839   3.350   5.883   7.466  1.5315 -0.1137  1.7328
   98SAPS   H7Y 9840   3.409   6.056   7.444  3.0509 -0.1199  0.8752
   98SAPS   C38 9841   3.555   5.894   7.448  0.0371 -0.1153 -0.0414
   98SAPS   H8X 9842   3.633   5.952   7.394  1.0066 -1.7400 -0.4378
   98SAPS   H8Y 9843   3.565   5.795   7.399 -0.1375  1.4223 -3.4923
   98SAPS   C39 9844   3.593   5.888   7.591 -0.1938 -0.9135  0.5626
   98SAPS   H9X 9845   3.498   5.892   7.649 -0.5179  2.1536 -0.0158
   98SAPS   H9Y 9846   3.656   5.972   7.627 -0.3458 -0.3472 -0.4535
   98SAPS  C310 9847   3.688   5.774   7.627  0.5138 -0.1702 -0.1429
   98SAPS  H10X 9848   3.764   5.787   7.547 -0.2810  1.6948 -0.6404
   98SAPS  H10Y 9849   3.635   5.681   7.598 -1.3226  0.0618  2.1527
   98SAPS  C311 9850   3.741   5.780   7.768 -0.2785 -0.1217 -0.6650
   98SAPS  H11X 9851   3.656   5.794   7.838  0.5343 -2.9174  1.0367
   98SAPS  H11Y 9852   3.812   5.863   7.782  1.1503 -1.4482  0.2542
   98SAPS  C312 9853   3.813   5.654   7.807  0.5152 -0.0305 -0.3403
   98SAPS  H12X 9854   3.902   5.627   7.747  0.5767  1.1667 -0.8006
   98SAPS  H12Y 9855   3.752   5.561   7.807  0.3057  0.0854  0.8594
   98SAPS  C313 9856   3.865   5.665   7.950  0.1724 -0.0488 -0.0315
   98SAPS  H13X 9857   3.789   5.663   8.031  1.1639  1.0100  0.9604
   98SAPS  H13Y 9858   3.924   5.755   7.977  2.4455 -1.9413  1.7950
   98SAPS  C314 9859   3.954   5.550   7.992  0.0796  0.0827  0.3965
   98SAPS  H14X 9860   4.044   5.564   7.928 -0.2534  2.1518  0.3258
   98SAPS  H14Y 9861   3.898   5.455   7.974 -0.8818  1.0892 -2.6050
   98SAPS  C315 9862   4.009   5.577   8.135 -0.8305  0.0826  0.7148
   98SAPS  H15X 9863   4.055   5.677   8.150 -0.5784  0.0215  0.3786
   98SAPS  H15Y 9864   4.093   5.505   8.147 -0.8513 -0.6501 -2.5518
   98SAPS  C316 9865   3.903   5.551   8.241 -0.2018  0.0900 -0.0344
   98SAPS  H16X 9866   3.851   5.459   8.206 -0.5491  0.0990  0.4378
   98SAPS  H16Y 9867   3.833   5.637   8.248  1.1901  1.2320  0.2858
   98SAPS  C317 9868   3.949   5.515   8.382  0.0226  0.4816 -1.0488
   98SAPS  H17X 9869   4.013   5.598   8.421  0.9445 -1.0788  0.9298
   98SAPS  H17Y 9870   4.013   5.424   8.383  1.2227  1.2943 -0.5081
   98SAPS  C318 9871   3.834   5.493   8.480  0.2782 -0.6239  0.1220
   98SAPS  H18X 9872   3.881   5.442   8.567  1.9353 -1.7412 -1.3540
   98SAPS  H18Y 9873   3.750   5.439   8.433 -2.8618  2.5857  1.5986
   98SAPS  H18Z 9874   3.781   5.588   8.501  0.4101 -0.0470 -1.9035
   99SAPS     N 9875   2.770   3.355   6.043 -0.3143 -0.2075 -0.2082
   99SAPS   HN1 9876   2.817   3.444   6.020 -1.0753  0.3341  0.2706
   99SAPS   HN2 9877   2.673   3.351   6.007 -1.9634 -0.8134  3.7561
   99SAPS   HN3 9878   2.768   3.357   6.147  1.8953 -0.8400 -0.1073
   99SAPS   C12 9879   2.858   3.244   5.998 -0.0230  0.3683  0.1143
   99SAPS  H12A 9880   2.841   3.231   5.892 -4.2383  0.5738  0.6128
   99SAPS   C13 9881   3.008   3.260   6.032 -0.1636 -0.0786  0.8304
   99SAPS  O13A 9882   3.051   3.325   6.124  0.4051 -0.1136  0.1468
   99SAPS  O13B 9883   3.084   3.175   5.979  0.3238  0.0601 -0.2674
   99SAPS   C11 9884   2.803   3.116   6.064 -0.1972  0.1440 -0.4195
   99SAPS  H11A 9885   2.831   3.110   6.171  2.1312  1.2132 -0.8850
   99SAPS  H11B 9886   2.858   3.032   6.016  0.5393  1.7728 -2.6036
   99SAPS     P 9887   2.600   2.963   6.125 -0.1001 -0.3336  0.4017
   99SAPS   O13 9888   2.454   2.962   6.109 -0.0708  0.2582  0.2345
   99SAPS   O14 9889   2.681   2.848   6.079 -0.1881  0.0201  0.1982
   99SAPS   O12 9890   2.657   3.098   6.055 -0.0128 -0.2487  0.1702
   99SAPS   O11 9891   2.645   2.985   6.271  0.8777 -0.3616  0.3382
   99SAPS    C1 9892   2.592   3.099   6.336 -0.2298 -0.2306  0.7321
   99SAPS    HA 9893   2.611   3.188   6.272 -0.3389 -0.1279  0.8430
   99SAPS    HB 9894   2.482   3.085   6.338 -0.1217 -1.4618 -0.4736
   99SAPS    C2 9895   2.628   3.128   6.483 -0.5939 -0.0982  0.1486
   99SAPS    HS 9896   2.737   3.147   6.477 -0.7950  1.0128 -0.1327
   99SAPS   O21 9897   2.584   3.015   6.563 -0.4241  0.3660  0.1858
   99SAPS   C21 9898   2.684   2.936   6.606 -0.3864 -0.2628 -0.3210
   99SAPS   O22 9899   2.799   2.949   6.574  0.0453 -0.5059  0.8348
   99SAPS   C22 9900   2.620   2.824   6.692 -0.4210 -0.2378  0.2059
   99SAPS   H2R 9901   2.532   2.873   6.740 -0.4236 -0.6234  0.6011
   99SAPS   H2S 9902   2.581   2.747   6.623  0.2878 -2.0821  1.7831
   99SAPS    C3 9903   2.566   3.258   6.530 -0.5719 -0.0039 -0.4687
   99SAPS    HX 9904   2.464   3.254   6.488 -0.4679  0.6282 -0.7934
   99SAPS    HY 9905   2.615   3.337   6.469  0.2887 -1.0631 -1.1901
   99SAPS   O31 9906   2.581   3.285   6.676 -0.9478  0.5384 -0.0138
   99SAPS   C31 9907   2.467   3.271   6.746 -0.4672 -0.5743 -0.2858
   99SAPS   O32 9908   2.357   3.271   6.697 -0.0874 -0.0482 -0.4399
   99SAPS   C32 9909   2.496   3.257   6.896  0.2288  0.0532 -0.0720
   99SAPS   H2X 9910   2.516   3.353   6.947  1.1823 -1.4099  2.5085
   99SAPS   H2Y 9911   2.584   3.190   6.904  0.6753  0.6227 -0.1870
   99SAPS   C23 9912   2.725   2.772   6.791  0.2790 -0.0248  0.8583
   99SAPS   H3R 9913   2.823   2.753   6.742  0.7671  1.7424  1.1002
   99SAPS   H3S 9914   2.681   2.686   6.846 -1.9471  0.1659 -0.5140
   99SAPS   C24 9915   2.748   2.880   6.902 -0.1001 -0.1930  0.2333
   99SAPS   H4R 9916   2.652   2.899   6.955  0.9034 -0.5566  2.2971
   99SAPS   H4S 9917   2.777   2.975   6.853  1.1000  0.4101  2.0181
   99SAPS   C25 9918   2.853   2.854   7.010  0.6055  0.8943  0.1686
   99SAPS   H5R 9919   2.954   2.888   6.985  0.4440  0.4403 -1.1920
   99SAPS   C26 9920   2.833   2.804   7.135 -0.5254  0.1750  0.0066
   99SAPS   H6R 9921   2.920   2.793   7.200  0.4017  0.4027 -1.1627
   99SAPS   C27 9922   2.706   2.758   7.203 -0.0576 -0.1471 -0.7204
   99SAPS   H7R 9923   2.689   2.648   7.200 -0.1075 -0.1712  0.1824
   99SAPS   H7S 9924   2.621   2.806   7.150 -1.5106 -0.2419  1.3833
   99SAPS   C28 9925   2.697   2.802   7.350 -0.6973 -0.5908 -1.2645
   99SAPS   H8R 9926   2.653   2.902   7.363  0.2996 -0.0352 -1.9800
   99SAPS   C29 9927   2.727   2.726   7.457 -0.5808 -0.2526 -0.7158
   99SAPS   H9R 9928   2.742   2.774   7.555  2.9178  0.2299 -1.3570
   99SAPS  C210 9929   2.777   2.583   7.458 -0.3147 -0.3873 -0.3195
   99SAPS  H10R 9930   2.877   2.583   7.505 -1.6282 -2.3675  2.8562
   99SAPS  H10S 9931   2.788   2.539   7.356  1.0224 -3.5238  1.0355
   99SAPS  C211 9932   2.694   2.492   7.544 -0.4346  0.6011  0.1394
   99SAPS  H11R 9933   2.629   2.430   7.482  0.0625  0.1881  0.0223
   99SAPS  C212 9934   2.697   2.485   7.680 -0.0046 -0.1393 -0.0509
   99SAPS  H12R 9935   2.626   2.416   7.729 -0.4520  0.5769  0.3147
   99SAPS  C213 9936   2.778   2.569   7.772  0.4469 -0.4032  0.3353
   99SAPS  H13R 9937   2.868   2.603   7.716 -0.1497 -0.3230 -0.5894
   99SAPS  H13S 9938   2.817   2.510   7.857  1.9264  1.2859  0.8959
   99SAPS  C214 9939   2.694   2.692   7.816 -0.3735 -0.0452 -0.6981
   99SAPS  H14R 9940   2.623   2.744   7.750  1.1569  0.6847 -1.8195
   99SAPS  C215 9941   2.690   2.734   7.942  0.4275 -0.2352  0.1351
   99SAPS  H15R 9942   2.623   2.819   7.958 -1.1077 -0.7881 -2.7495
   99SAPS  C216 9943   2.769   2.687   8.064 -0.1129 -0.4391 -0.0621
   99SAPS  H16R 9944   2.795   2.772   8.130 -0.3379 -0.6010  0.2341
   99SAPS  H16S 9945   2.859   2.626   8.040 -0.7539 -0.7674 -1.8321
   99SAPS  C217 9946   2.697   2.579   8.148 -0.6723 -0.4697  0.3482
   99SAPS  H17R 9947   2.771   2.535   8.219  1.9690 -1.6543 -2.9138
   99SAPS  H17S 9948   2.656   2.500   8.082 -0.8208  0.6858 -0.9887
   99SAPS  C218 9949   2.586   2.633   8.236 -0.7662 -1.0229  0.2402
   99SAPS  H18R 9950   2.526   2.703   8.174 -0.3519 -3.1762 -2.8373
   99SAPS  H18S 9951   2.621   2.686   8.326 -1.4278  0.0069 -0.0870
   99SAPS  C219 9952   2.485   2.524   8.277 -0.1988 -0.9871  0.3247
   99SAPS  H19R 9953   2.479   2.458   8.187  3.9695  0.2325 -1.1016
   99SAPS  H19S 9954   2.394   2.580   8.307  1.1649  0.7760  1.3620
   99SAPS  C220 9955   2.530   2.440   8.391 -0.1659  0.9040 -0.2885
   99SAPS  H20R 9956   2.622   2.381   8.369 -0.6536 -0.1799  0.5258
   99SAPS  H20S 9957   2.452   2.366   8.416 -0.1654  1.1047  0.3303
   99SAPS  H20T 9958   2.547   2.511   8.475 -0.4363  0.8953 -0.2275
   99SAPS   C33 9959   2.377   3.196   6.965 -0.6547 -0.5820 -0.2180
   99SAPS   H3X 9960   2.378   3.092   6.924  2.4976 -0.2269 -1.3381
   99SAPS   H3Y 9961   2.274   3.235   6.955 -0.5580 -0.6727 -1.7672
   99SAPS   C34 9962   2.396   3.195   7.120 -0.0332 -0.1283 -0.2885
   99SAPS   H4X 9963   2.373   3.297   7.159 -3.0003 -1.0768  0.7365
   99SAPS   H4Y 9964   2.500   3.173   7.154 -0.4502  0.1031  1.2402
   99SAPS   C35 9965   2.318   3.096   7.204 -0.3119  0.5739  0.3592
   99SAPS   H5X 9966   2.356   2.996   7.175  0.6287  0.9672  0.2283
   99SAPS   H5Y 9967   2.213   3.103   7.166 -0.3934 -2.6091 -0.2384
   99SAPS   C36 9968   2.320   3.122   7.361 -0.0676 -0.3143  0.7306
   99SAPS   H6X 9969   2.315   3.231   7.383  0.4077 -0.2429  0.5178
   99SAPS   H6Y 9970   2.424   3.095   7.391  0.2877 -1.2976 -1.2244
   99SAPS   C37 9971   2.212   3.054   7.433  0.8596  0.1689  0.3618
   99SAPS   H7X 9972   2.184   2.960   7.381  0.9082  1.3760 -1.9314
   99SAPS   H7Y 9973   2.121   3.114   7.456 -0.2161 -1.6629  1.1500
   99SAPS   C38 9974   2.267   2.999   7.568 -0.2241  0.0770 -0.0934
   99SAPS   H8X 9975   2.358   2.941   7.543 -0.0690  0.2032  0.1711
   99SAPS   H8Y 9976   2.196   2.922   7.605 -0.3012 -0.1406 -0.6981
   99SAPS   C39 9977   2.294   3.105   7.670 -0.3538  0.4831 -0.2439
   99SAPS   H9X 9978   2.207   3.172   7.683 -0.0740  0.8676 -0.3368
   99SAPS   H9Y 9979   2.377   3.167   7.630 -0.8665 -0.4161 -2.9271
   99SAPS  C310 9980   2.340   3.047   7.803  0.5499 -0.1857  0.4180
   99SAPS  H10X 9981   2.436   2.997   7.779  1.1858  2.1389 -2.5473
   99SAPS  H10Y 9982   2.265   2.972   7.836 -0.1190 -0.5402 -1.7793
   99SAPS  C311 9983   2.361   3.152   7.916  0.4445 -0.0561  1.1404
   99SAPS  H11X 9984   2.259   3.185   7.944 -0.2349  0.1493 -1.2876
   99SAPS  H11Y 9985   2.423   3.233   7.871 -0.5865  0.1467  0.0131
   99SAPS  C312 9986   2.433   3.100   8.040  0.3162 -0.1470 -0.5557
   99SAPS  H12X 9987   2.457   3.182   8.111 -0.3834 -1.0665  0.7877
   99SAPS  H12Y 9988   2.519   3.038   8.006 -1.3075 -1.5239 -2.2735
   99SAPS  C313 9989   2.372   2.991   8.123  0.0087 -0.3549  0.2550
   99SAPS  H13X 9990   2.354   2.895   8.070  1.2061 -0.1949 -0.4786
   99SAPS  H13Y 9991   2.276   3.029   8.163 -0.0843 -0.0414 -0.2573
   99SAPS  C314 9992   2.454   2.956   8.245 -0.0486 -0.1295  0.3351
   99SAPS  H14X 9993   2.560   2.959   8.214 -0.4286  1.0809 -0.9336
   99SAPS  H14Y 9994   2.427   2.856   8.286  0.0868  0.5444  2.1731
   99SAPS  C315 9995   2.429   3.053   8.365 -0.4011  0.3493 -0.2257
   99SAPS  H15X 9996   2.341   3.117   8.341  0.7223  2.1221  0.1949
   99SAPS  H15Y 9997   2.521   3.115   8.366  1.0857 -1.7609  0.6661
   99SAPS  C316 9998   2.403   2.969   8.493  0.4626 -0.2372  0.1563
   99SAPS  H16X 9999   2.487   2.900   8.515  1.1491  0.5892  0.1828
   99SAPS  H16Y10000   2.313   2.906   8.477  1.5641 -1.6728 -0.5449
   99SAPS  C31710001   2.391   3.054   8.618  0.5688 -0.1093  0.1807
   99SAPS  H17X10002   2.316   3.136   8.613  0.7199  0.1561  1.8220
   99SAPS  H17Y10003   2.485   3.113   8.624 -0.2534  1.1008  2.1805
   99SAPS  C31810004   2.360   2.982   8.746  0.0789  0.2372  0.8670
   99SAPS  H18X10005   2.274   2.913   8.737 -0.2650  0.7469  0.1418
   99SAPS  H18Y10006   2.321   3.061   8.814 -1.5796  0.3859 -0.2173
   99SAPS  H18Z10007   2.456   2.940   8.783  1.5884  2.8842  0.2187
  100SAPS     N10008   3.672   4.014   6.185  1.3200 -0.0782  0.1598
  100SAPS   HN110009   3.766   3.999   6.229  1.2589 -1.9573 -0.2740
  100SAPS   HN210010   3.611   3.949   6.238  1.4342  0.8510  1.4789
  100SAPS   HN310011   3.672   3.986   6.085 -0.6256  0.9704 -0.1649
  100SAPS   C1210012   3.614   4.153   6.197  0.7634  0.4789 -0.3168
  100SAPS  H12A10013   3.657   4.213   6.118  0.1157  0.5377 -0.6313
  100SAPS   C1310014   3.458   4.167   6.181  0.2773 -0.1720 -0.5623
  100SAPS  O13A10015   3.387   4.064   6.169  0.3511  0.3588 -0.0023
  100SAPS  O13B10016   3.406   4.279   6.188  0.3691  0.0236  0.1197
  100SAPS   C1110017   3.660   4.209   6.338 -0.5600 -0.2339 -0.0365
  100SAPS  H11A10018   3.621   4.136   6.411 -1.4194  0.6055  0.3622
  100SAPS  H11B10019   3.607   4.303   6.361  1.3304  0.9528 -0.2485
  100SAPS     P10020   3.884   4.349   6.306  0.3730  0.0084 -0.2206
  100SAPS   O1310021   4.011   4.315   6.241 -0.0263  0.0099 -0.0906
  100SAPS   O1410022   3.797   4.448   6.237 -0.6114  0.4993 -0.6579
  100SAPS   O1210023   3.801   4.222   6.347 -0.1759  0.2235 -0.2950
  100SAPS   O1110024   3.909   4.417   6.447 -0.4006 -0.5500 -0.0991
  100SAPS    C110025   3.798   4.479   6.528  0.0465 -0.1691  1.4740
  100SAPS    HA10026   3.737   4.551   6.469 -0.5346 -0.5888  1.5536
  100SAPS    HB10027   3.731   4.399   6.565 -0.9885 -0.9222 -1.7033
  100SAPS    C210028   3.874   4.546   6.643  0.2528 -0.0278 -0.8236
  100SAPS    HS10029   3.962   4.606   6.610 -0.3813  2.5274  1.7828
  100SAPS   O2110030   3.921   4.439   6.728 -0.2395 -0.5723  0.1859
  100SAPS   C2110031   3.998   4.462   6.828  0.0711 -0.2738 -0.1432
  100SAPS   O2210032   4.043   4.568   6.864 -0.2407  1.0910 -0.3153
  100SAPS   C2210033   4.026   4.332   6.914 -0.5797 -0.7204  0.3343
  100SAPS   H2R10034   3.931   4.274   6.925 -0.3778 -1.4179 -1.3889
  100SAPS   H2S10035   4.091   4.284   6.839  3.0165  2.0190  1.4084
  100SAPS    C310036   3.777   4.630   6.722 -0.3464  0.1358  0.4609
  100SAPS    HX10037   3.729   4.713   6.665  1.2898  1.4283  0.8861
  100SAPS    HY10038   3.820   4.678   6.812 -1.6293  0.9511  0.6665
  100SAPS   O3110039   3.666   4.555   6.767 -0.6279  0.1575 -0.6515
  100SAPS   C3110040   3.560   4.620   6.826 -0.7464 -0.5511 -0.3378
  100SAPS   O3210041   3.573   4.738   6.852  0.2332 -0.1847 -0.0905
  100SAPS   C3210042   3.434   4.532   6.870 -0.4332  0.1700  0.2600
  100SAPS   H2X10043   3.454   4.428   6.838  0.8020 -0.3589  2.5477
  100SAPS   H2Y10044   3.352   4.568   6.804 -1.5089 -2.1953  0.2000
  100SAPS   C2310045   4.113   4.339   7.045 -0.3100 -0.7012 -0.1224
  100SAPS   H3R10046   4.175   4.431   7.045  0.0169 -0.9088 -1.1286
  100SAPS   H3S10047   4.190   4.259   7.047  1.6890  1.1134  2.1433
  100SAPS   C2410048   4.026   4.340   7.169 -0.5659  0.0679 -0.3996
  100SAPS   H4R10049   3.976   4.242   7.188  1.1281 -0.7668  0.0074
  100SAPS   H4S10050   3.947   4.418   7.163  0.5458  1.2205 -0.2923
  100SAPS   C2510051   4.112   4.364   7.295 -0.1766 -0.5139 -0.1254
  100SAPS   H5R10052   4.212   4.319   7.289  0.1380  0.1468  0.0893
  100SAPS   C2610053   4.077   4.438   7.404 -0.0069  0.1694  1.0667
  100SAPS   H6R10054   4.159   4.443   7.477  1.6368 -0.9782 -0.6267
  100SAPS   C2710055   3.951   4.511   7.428  0.2250  0.2668  0.4769
  100SAPS   H7R10056   3.920   4.479   7.530 -0.7998 -1.5447 -0.3538
  100SAPS   H7S10057   3.870   4.478   7.360 -0.4271  0.5685  1.0924
  100SAPS   C2810058   3.981   4.655   7.410  0.0746 -0.1118  0.1956
  100SAPS   H8R10059   3.993   4.691   7.307 -1.3382 -0.7980 -0.2277
  100SAPS   C2910060   4.009   4.741   7.506  0.1887 -0.5101  0.2476
  100SAPS   H9R10061   4.037   4.841   7.470 -0.7393 -0.1060  0.6012
  100SAPS  C21010062   3.991   4.717   7.655  0.1308  0.3847  0.2624
  100SAPS  H10R10063   4.062   4.638   7.687 -2.0022 -1.7324 -0.0229
  100SAPS  H10S10064   3.886   4.685   7.665 -0.3162  2.4276  3.7354
  100SAPS  C21110065   4.006   4.843   7.739 -0.2954  0.1289 -0.1440
  100SAPS  H11R10066   4.016   4.932   7.676  1.6992 -0.4007 -0.6503
  100SAPS  C21210067   4.009   4.841   7.878  0.0187 -0.1733  0.8103
  100SAPS  H12R10068   4.043   4.937   7.921 -1.4859  1.0336 -0.5651
  100SAPS  C21310069   4.005   4.720   7.972 -0.8474  0.2472  0.5828
  100SAPS  H13R10070   4.109   4.691   7.997 -0.3147  1.6893  0.1184
  100SAPS  H13S10071   3.980   4.627   7.917  3.9268  0.6089 -2.7481
  100SAPS  C21410072   3.906   4.744   8.078 -0.0057 -0.2062 -0.0065
  100SAPS  H14R10073   3.801   4.719   8.054  0.7651 -3.1013 -0.6401
  100SAPS  C21510074   3.945   4.783   8.200  0.0219  0.0562 -0.2260
  100SAPS  H15R10075   3.878   4.781   8.287  3.0122 -0.1699  2.2280
  100SAPS  C21610076   4.087   4.813   8.242  0.3111  0.0110  0.6231
  100SAPS  H16R10077   4.140   4.854   8.153 -1.0558 -1.3056 -0.8812
  100SAPS  H16S10078   4.130   4.712   8.259  0.4803 -0.1047 -0.4100
  100SAPS  C21710079   4.107   4.905   8.360  0.6802  0.1857 -1.0916
  100SAPS  H17R10080   4.049   4.855   8.441 -0.4510  2.0511 -0.6945
  100SAPS  H17S10081   4.051   5.001   8.357 -3.3851 -1.7758  2.1856
  100SAPS  C21810082   4.245   4.930   8.408  0.3102 -0.3716  0.3090
  100SAPS  H18R10083   4.319   4.963   8.332  0.8855  1.6753  1.6697
  100SAPS  H18S10084   4.289   4.838   8.454 -1.4623 -2.2588 -1.5205
  100SAPS  C21910085   4.249   5.039   8.514 -0.5286 -0.4372  0.1333
  100SAPS  H19R10086   4.172   5.026   8.592 -1.1312  3.2187  0.3264
  100SAPS  H19S10087   4.232   5.135   8.460 -3.2243 -0.1447  1.3722
  100SAPS  C22010088   4.391   5.055   8.575 -0.1434 -0.5352  0.4858
  100SAPS  H20R10089   4.405   5.103   8.674  1.1077 -2.2132  1.1793
  100SAPS  H20S10090   4.467   5.104   8.511 -0.0614 -0.5629  0.5623
  100SAPS  H20T10091   4.424   4.949   8.585  0.7898 -0.4398 -1.2189
  100SAPS   C3310092   3.401   4.544   7.018  0.0060  0.2173 -0.4532
  100SAPS   H3X10093   3.299   4.508   7.041  0.2150 -0.0125  0.1581
  100SAPS   H3Y10094   3.390   4.650   7.049  0.0664 -0.3284  1.5656
  100SAPS   C3410095   3.499   4.476   7.118  0.5002 -0.9340 -0.1935
  100SAPS   H4X10096   3.596   4.527   7.133  0.0672  0.6323 -2.1981
  100SAPS   H4Y10097   3.526   4.373   7.086 -1.0818 -1.1755 -0.8636
  100SAPS   C3510098   3.432   4.458   7.259 -0.1054  0.4119  0.8600
  100SAPS   H5X10099   3.348   4.385   7.250  0.3707 -0.0792  0.3190
  100SAPS   H5Y10100   3.393   4.553   7.302 -1.2834 -0.3533  1.5518
  100SAPS   C3610101   3.531   4.393   7.361 -0.8274  0.2958  0.7740
  100SAPS   H6X10102   3.623   4.450   7.388 -1.8682  1.5192  1.8459
  100SAPS   H6Y10103   3.569   4.298   7.318 -2.4778 -1.0163  2.0566
  100SAPS   C3710104   3.466   4.380   7.501  0.0066 -0.8799  0.6932
  100SAPS   H7X10105   3.366   4.336   7.480 -0.2223  0.6114 -1.7216
  100SAPS   H7Y10106   3.447   4.478   7.550 -0.8070 -1.2343  1.1096
  100SAPS   C3810107   3.545   4.280   7.592  0.8199  0.3588  0.7140
  100SAPS   H8X10108   3.526   4.181   7.545 -0.0466  1.5773 -1.6907
  100SAPS   H8Y10109   3.491   4.279   7.689 -2.7747 -1.0547 -1.1171
  100SAPS   C3910110   3.690   4.323   7.600 -0.3276  0.0318  0.1247
  100SAPS   H9X10111   3.685   4.434   7.608 -0.9823 -0.1384  3.1713
  100SAPS   H9Y10112   3.729   4.276   7.507  1.0591 -0.6491  1.0122
  100SAPS  C31010113   3.761   4.273   7.723  0.2517 -0.3309 -0.0844
  100SAPS  H10X10114   3.754   4.162   7.717  0.0837 -0.3551  0.4998
  100SAPS  H10Y10115   3.701   4.303   7.811  0.3324  0.4584 -0.2899
  100SAPS  C31110116   3.894   4.339   7.749 -0.0453  0.3022  0.0292
  100SAPS  H11X10117   3.878   4.448   7.757  1.6120  0.6607 -1.1423
  100SAPS  H11Y10118   3.969   4.303   7.676 -0.3728 -0.5214  0.0880
  100SAPS  C31210119   3.956   4.287   7.875  0.2084 -0.0956 -0.0598
  100SAPS  H12X10120   3.941   4.178   7.891 -0.2390  0.1617  1.4431
  100SAPS  H12Y10121   3.894   4.333   7.956 -0.1642  3.2842 -2.0771
  100SAPS  C31310122   4.106   4.324   7.897 -0.6436  0.6404 -0.4439
  100SAPS  H13X10123   4.120   4.430   7.925 -1.0628  0.2656  1.3028
  100SAPS  H13Y10124   4.151   4.296   7.799 -0.1965 -0.9389  0.1873
  100SAPS  C31410125   4.162   4.228   8.003 -0.4352 -0.0335  0.0529
  100SAPS  H14X10126   4.269   4.246   8.028 -0.4301  0.1551 -0.1056
  100SAPS  H14Y10127   4.165   4.132   7.947  0.2282 -0.6792  1.1552
  100SAPS  C31510128   4.087   4.201   8.136 -0.1092  0.2887  0.5993
  100SAPS  H15X10129   4.137   4.110   8.176  0.3220  0.1436 -0.2376
  100SAPS  H15Y10130   3.976   4.190   8.129 -0.1849  0.9813  0.6874
  100SAPS  C31610131   4.103   4.321   8.232  0.6716  0.2024 -0.0737
  100SAPS  H16X10132   4.051   4.416   8.206 -1.1755 -0.3987  1.2598
  100SAPS  H16Y10133   4.210   4.352   8.228  0.7298  0.0615  0.3665
  100SAPS  C31710134   4.073   4.292   8.383 -0.1511  0.3723 -0.2768
  100SAPS  H17X10135   3.969   4.255   8.378 -0.2015 -0.3257  3.1285
  100SAPS  H17Y10136   4.070   4.391   8.433 -0.4794 -0.6814  1.9186
  100SAPS  C31810137   4.180   4.197   8.459  0.4440 -0.0817 -0.2129
  100SAPS  H18X10138   4.283   4.238   8.451  1.1738 -1.3880  1.6359
  100SAPS  H18Y10139   4.175   4.096   8.414 -1.5606  0.0186 -0.3032
  100SAPS  H18Z10140   4.152   4.179   8.565 -1.3316  1.0063 -0.4592
  101OSM      N10141   2.909   4.856  10.647 -0.1779 -0.0373  0.1184
  101OSM    C1510142   2.901   4.921  10.784  0.1823 -0.0279 -0.2301
  101OSM   H15A10143   2.809   4.975  10.799  0.3654  0.1925  0.1286
  101OSM   H15B10144   2.979   4.995  10.777 -1.7876  2.0895 -0.8481
  101OSM   H15C10145   2.917   4.846  10.861  2.0166  0.2975 -0.2411
  101OSM    C1410146   3.050   4.791  10.645  0.6054 -0.3611  0.1118
  101OSM   H14A10147   3.071   4.746  10.550  0.6985 -1.0930  0.4757
  101OSM   H14B10148   3.060   4.715  10.721 -1.2660 -1.2365 -0.4550
  101OSM   H14C10149   3.126   4.867  10.660  1.8299 -1.4291 -0.5653
  101OSM    C1310150   2.808   4.747  10.634  0.3550  0.6918 -0.6508
  101OSM   H13A10151   2.829   4.696  10.542 -0.9465 -0.7879 -0.1714
  101OSM   H13B10152   2.709   4.789  10.626 -0.5144 -0.9056  1.0205
  101OSM   H13C10153   2.812   4.676  10.715  1.6814  0.3050 -1.0267
  101OSM    C1210154   2.880   4.962  10.535  0.0163 -0.4052 -0.4467
  101OSM   H12A10155   2.787   5.012  10.557  0.2165 -0.5244  0.7761
  101OSM   H12B10156   2.859   4.903  10.448 -0.0090 -1.9585  0.5679
  101OSM    C1110157   2.992   5.060  10.502  0.5855 -0.1370 -0.0986
  101OSM   H11A10158   2.971   5.124  10.414  1.4479 -0.2562 -0.4003
  101OSM   H11B10159   3.087   5.009  10.478  0.4400  0.1719 -1.4372
  101OSM      P10160   3.138   5.219  10.654 -0.0317  0.0454 -0.1195
  101OSM    O1310161   3.099   5.356  10.693 -0.3814 -0.6714 -0.4164
  101OSM    O1410162   3.213   5.127  10.745  0.0880 -0.1164 -0.3214
  101OSM    O1110163   3.227   5.216  10.519 -0.0683 -0.4436 -0.5245
  101OSM    O1210164   3.000   5.152  10.607 -0.0316  0.3810 -0.1400
  101OSM    C1S10165   3.203   5.314  10.428  1.0562 -0.6063  0.3264
  101OSM    H1S10166   3.229   5.412  10.473  0.1868  1.5594 -3.5373
  101OSM    H1T10167   3.096   5.315  10.400  1.0532  0.3699  0.3547
  101OSM     NF10168   3.256   5.403  10.209  0.9288  0.4761  0.0721
  101OSM    HNF10169   3.223   5.368  10.121 -0.0685 -2.4737  1.4765
  101OSM    C2S10170   3.299   5.303  10.304 -0.3240  0.0019 -0.0641
  101OSM    H2S10171   3.402   5.338  10.326 -0.6053  0.3456  0.7429
  101OSM    C3S10172   3.311   5.161  10.244 -0.6153  0.7472 -0.4066
  101OSM    H3S10173   3.209   5.150  10.200 -0.3431 -0.0888 -0.8281
  101OSM     O310174   3.327   5.057  10.342 -0.3643  0.2254 -0.2228
  101OSM    HO310175   3.294   5.104  10.419  0.1926  0.6651 -0.2411
  101OSM    C4S10176   3.406   5.151  10.126  0.1403  0.0229  0.5377
  101OSM    H4S10177   3.361   5.182  10.030  2.3186 -0.8885 -0.8620
  101OSM    C5S10178   3.530   5.106  10.114  0.0165 -0.8014 -0.7436
  101OSM    H5S10179   3.572   5.071  10.209 -0.0002 -2.7547 -1.4087
  101OSM    C6S10180   3.629   5.092   9.992  0.4737  0.1365 -0.2401
  101OSM    H6S10181   3.643   4.985   9.969 -1.0018  0.1062 -1.1345
  101OSM    H6T10182   3.720   5.146  10.025  0.8017 -0.3848 -0.2901
  101OSM    C7S10183   3.591   5.155   9.857  0.0985 -0.7064 -0.3214
  101OSM    H7S10184   3.555   5.258   9.880  1.3120 -0.5344  0.9663
  101OSM    H7T10185   3.507   5.099   9.813 -1.9486  0.1698  2.1741
  101OSM    C8S10186   3.701   5.152   9.755  0.1367 -0.3814  0.2926
  101OSM    H8S10187   3.764   5.061   9.768  1.4411  0.8155  3.2161
  101OSM    H8T10188   3.780   5.227   9.778  1.7316 -0.4774 -4.0994
  101OSM    C9S10189   3.663   5.184   9.610 -0.1731  0.6504 -0.2200
  101OSM    H9S10190   3.614   5.283   9.614 -1.2736  0.0820  2.8046
  101OSM    H9T10191   3.588   5.110   9.576 -1.4939  0.9517  1.8901
  101OSM   C10S10192   3.795   5.173   9.529 -0.7563  0.2765  0.8070
  101OSM   H10S10193   3.831   5.069   9.521 -1.4743  0.1257 -0.9157
  101OSM   H10T10194   3.875   5.243   9.562 -1.1034  0.4590  1.2604
  101OSM   C11S10195   3.767   5.234   9.387 -0.0807  0.3597  0.3833
  101OSM   H11S10196   3.691   5.315   9.389 -2.6028 -1.8249 -0.3698
  101OSM   H11T10197   3.715   5.158   9.325 -0.8357 -0.0681  1.5116
  101OSM   C12S10198   3.895   5.261   9.313 -0.4981  0.5395 -1.0121
  101OSM   H12S10199   3.957   5.169   9.323 -1.1694  0.1787 -0.0584
  101OSM   H12T10200   3.946   5.345   9.365 -0.9376  0.4827 -0.4779
  101OSM   C13S10201   3.877   5.300   9.171 -0.6501  0.0300  0.7909
  101OSM   H13S10202   3.812   5.390   9.167  1.4339  1.6026 -1.9817
  101OSM   H13T10203   3.840   5.212   9.114  0.1275 -0.9609  1.7789
  101OSM   C14S10204   4.009   5.344   9.106 -0.4057 -0.1633 -0.1715
  101OSM   H14S10205   4.077   5.256   9.109 -2.0675 -1.4999  2.7920
  101OSM   H14T10206   4.055   5.434   9.150 -0.5844  1.6521 -3.4022
  101OSM   C15S10207   3.993   5.397   8.966 -0.6538  0.5042 -0.4434
  101OSM   H15S10208   3.916   5.477   8.958  0.6060  2.1789  2.4868
  101OSM   H15T10209   3.968   5.307   8.906 -1.6266  0.5213 -0.0811
  101OSM   C16S10210   4.125   5.469   8.927 -0.6278  0.1533 -0.3470
  101OSM   H16S10211   4.199   5.387   8.936 -0.4270  0.1640 -1.6534
  101OSM   H16T10212   4.143   5.557   8.991 -1.7970 -0.6660  1.1736
  101OSM   C17S10213   4.111   5.511   8.781  0.3481 -0.0922 -0.6567
  101OSM   H17S10214   4.188   5.586   8.754  1.0269 -0.4716  0.1807
  101OSM   H17T10215   4.008   5.549   8.767 -0.4035 -1.9471 -0.4319
  101OSM   C18S10216   4.139   5.401   8.679 -0.4254  0.1715 -0.3554
  101OSM   H18S10217   4.220   5.333   8.713  0.5341  1.4438 -0.0044
  101OSM   H18T10218   4.169   5.442   8.580 -1.0650  0.0755 -0.5930
  101OSM   H18U10219   4.048   5.339   8.665 -1.3124  1.1210  1.0400
  101OSM    C1F10220   3.249   5.526  10.247 -0.6753 -0.0031 -0.1209
  101OSM     OF10221   3.322   5.557  10.340 -0.2051  0.1692 -0.2704
  101OSM    C2F10222   3.164   5.619  10.155 -0.1294 -0.0650  0.0959
  101OSM    H2F10223   3.071   5.563  10.130  0.1924 -1.6332  2.1365
  101OSM    H2G10224   3.226   5.637  10.065  0.9113  0.0130  0.7979
  101OSM    C3F10225   3.129   5.756  10.221  0.2322 -0.3947 -1.0536
  101OSM    H3F10226   3.220   5.815  10.245  0.5196 -0.5093 -1.8430
  101OSM    H3G10227   3.070   5.744  10.315 -0.0608 -1.3881 -1.3557
  101OSM    C4F10228   3.041   5.834  10.124 -0.0428 -0.7124 -0.0546
  101OSM    H4F10229   2.946   5.780  10.107 -0.8670  0.2120  1.4174
  101OSM    H4G10230   3.102   5.818  10.033  1.3588  0.7118  0.5861
  101OSM    C5F10231   3.023   5.977  10.159 -0.5281  0.9184  0.0239
  101OSM    H5F10232   3.119   6.025  10.186 -0.8092  2.0087 -0.8294
  101OSM    H5G10233   2.946   5.994  10.238 -0.3791  1.3337  0.0850
  101OSM    C6F10234   2.947   6.050  10.037  0.2827 -0.1661  0.0728
  101OSM    H6F10235   2.850   6.007  10.006  1.0968 -0.7806 -1.7918
  101OSM    H6G10236   3.018   6.038   9.953  1.1280  2.4299  0.3345
  101OSM    C7F10237   2.940   6.201  10.061 -0.0188  0.1459  0.3199
  101OSM    H7F10238   3.041   6.247  10.071  0.0677 -0.0864  0.5340
  101OSM    H7G10239   2.889   6.227  10.156 -1.6398  1.7515 -0.9379
  101OSM    C8F10240   2.866   6.277   9.951  0.6749 -0.5070  0.2789
  101OSM    H8F10241   2.901   6.262   9.847  0.0573  1.0580 -0.1908
  101OSM    H8G10242   2.888   6.384   9.968 -1.9100  0.1404  0.0037
  101OSM    C9F10243   2.713   6.265   9.956 -0.3369  0.0580  0.0278
  101OSM    H9F10244   2.662   6.293  10.049  0.5337  1.6096  0.0705
  101OSM   C10F10245   2.643   6.225   9.851 -0.0588  0.1372 -0.4949
  101OSM   H10F10246   2.534   6.217   9.858  0.1067 -2.6031 -0.3277
  101OSM   C11F10247   2.700   6.188   9.714 -0.7114  0.4346 -0.3409
  101OSM   H11F10248   2.790   6.123   9.728  0.0696  1.5997  0.2310
  101OSM   H11G10249   2.745   6.274   9.659 -0.7390  0.8481  0.2782
  101OSM   C12F10250   2.610   6.122   9.607 -0.4171 -0.3982 -0.1765
  101OSM   H12F10251   2.673   6.098   9.519 -0.5432 -1.6065  0.0418
  101OSM   H12G10252   2.530   6.192   9.573  1.4514  1.7104 -0.4570
  101OSM   C13F10253   2.554   5.994   9.655  1.1738  0.1739  0.6277
  101OSM   H13F10254   2.602   5.974   9.753 -2.8707  0.7727  2.9667
  101OSM   H13G10255   2.567   5.912   9.580  0.3404  0.5553  0.0393
  101OSM   C14F10256   2.401   5.999   9.707 -0.1148  0.4069  0.4625
  101OSM   H14F10257   2.339   6.040   9.624 -0.0829  0.6626  0.5638
  101OSM   H14G10258   2.397   6.064   9.797  0.8148 -1.1085  1.6338
  101OSM   C15F10259   2.351   5.864   9.757 -0.6240  0.0288  0.2860
  101OSM   H15F10260   2.410   5.824   9.842  3.1564 -0.8549 -2.5168
  101OSM   H15G10261   2.370   5.796   9.671  1.5420  1.3502 -0.3633
  101OSM   C16F10262   2.199   5.862   9.790  0.2441 -0.0309 -0.4044
  101OSM   H16F10263   2.134   5.887   9.703 -0.2858  1.6017  0.4147
  101OSM   H16G10264   2.188   5.940   9.869  1.5588 -0.4918  0.2587
  101OSM   C17F10265   2.184   5.717   9.835 -0.0831  0.4369 -0.3826
  101OSM   H17F10266   2.240   5.704   9.931 -1.6075  0.4978  0.5551
  101OSM   H17G10267   2.237   5.648   9.767  0.1272 -1.7148  1.8037
  101OSM   C18F10268   2.045   5.670   9.857  0.1504  0.8641  0.3390
  101OSM   H18F10269   2.049   5.572   9.908 -1.2057  1.0273  0.7951
  101OSM   H18G10270   1.986   5.673   9.763  2.9343  0.6502 -1.5183
  101OSM   H18H10271   1.998   5.739   9.931 -1.8266  0.8655 -0.8504
  102OSM      N10272   2.512   4.435  10.965  0.0145 -0.7127  0.1653
  102OSM    C1510273   2.513   4.409  11.111  0.7372  0.1677  0.7524
  102OSM   H15A10274   2.428   4.355  11.150  0.8916 -0.0126  0.8448
  102OSM   H15B10275   2.528   4.506  11.156  1.1915  0.6079 -0.3289
  102OSM   H15C10276   2.599   4.351  11.142  1.4418  0.3593 -0.7657
  102OSM    C1410277   2.569   4.315  10.891 -0.7578  0.1964 -0.6336
  102OSM   H14A10278   2.505   4.229  10.905 -1.3989  0.7868  0.2017
  102OSM   H14B10279   2.669   4.292  10.925 -0.8954  0.3484 -0.1084
  102OSM   H14C10280   2.581   4.339  10.787  0.6125  1.7069 -0.1769
  102OSM    C1310281   2.368   4.453  10.924 -0.6835 -0.3207 -1.0484
  102OSM   H13A10282   2.358   4.484  10.821 -2.3214 -1.0536 -1.1465
  102OSM   H13B10283   2.320   4.520  10.993  2.0402 -0.9354  1.6514
  102OSM   H13C10284   2.318   4.357  10.936 -2.3948  0.8641  3.2354
  102OSM    C1210285   2.589   4.567  10.931 -0.2155 -0.0063  0.1854
  102OSM   H12A10286   2.538   4.656  10.966 -0.1051  0.6154 -1.1661
  102OSM   H12B10287   2.591   4.591  10.826  1.8877  1.9635  0.5906
  102OSM    C1110288   2.735   4.581  10.971 -0.1730  0.1739 -0.6209
  102OSM   H11A10289   2.760   4.515  11.056  0.6782 -0.8456 -1.6277
  102OSM   H11B10290   2.773   4.683  10.995  1.9843 -0.7128  0.0045
  102OSM      P10291   2.938   4.472  10.865 -0.5004  0.0169  0.6974
  102OSM    O1310292   3.023   4.552  10.956  0.4414 -0.6500  0.4730
  102OSM    O1410293   2.918   4.332  10.912  0.4351 -0.0269 -0.2290
  102OSM    O1110294   2.997   4.468  10.716 -0.4339  0.5756  0.0457
  102OSM    O1210295   2.792   4.535  10.851 -0.0201 -0.3448  0.4297
  102OSM    C1S10296   2.915   4.405  10.617  0.2295  0.8092 -0.2283
  102OSM    H1S10297   2.811   4.444  10.614 -1.0632 -2.2342  0.4965
  102OSM    H1T10298   2.920   4.294  10.625  1.1166  0.7830 -1.0011
  102OSM     NF10299   2.885   4.392  10.369  1.3066 -0.3363 -0.1549
  102OSM    HNF10300   2.865   4.296  10.348 -4.0761  0.8153 -1.8294
  102OSM    C2S10301   2.978   4.421  10.474 -0.4958  0.5360  0.0858
  102OSM    H2S10302   3.014   4.525  10.465  2.6071 -0.2781  1.6777
  102OSM    C3S10303   3.107   4.320  10.474  0.8685  0.4578 -0.0499
  102OSM    H3S10304   3.046   4.227  10.473 -2.7672  2.6345  0.2279
  102OSM     O310305   3.190   4.337  10.587 -0.6637  0.0307  0.4824
  102OSM    HO310306   3.128   4.366  10.654 -0.2398  3.0401 -0.2663
  102OSM    C4S10307   3.196   4.335  10.342 -0.2085  0.2184  0.1617
  102OSM    H4S10308   3.205   4.440  10.311  2.3532 -0.5232 -1.9434
  102OSM    C5S10309   3.262   4.238  10.276  0.1260 -0.0555 -0.0138
  102OSM    H5S10310   3.269   4.139  10.324 -0.7694 -1.5522 -2.7709
  102OSM    C6S10311   3.353   4.261  10.157  0.3252 -0.3686 -0.5559
  102OSM    H6S10312   3.458   4.232  10.179  0.6875  1.5604  0.5287
  102OSM    H6T10313   3.378   4.369  10.144  1.0037 -0.5080 -0.4636
  102OSM    C7S10314   3.296   4.218  10.020 -0.5454 -0.4835  0.3292
  102OSM    H7S10315   3.203   4.274   9.996 -0.2562  0.0114  0.3633
  102OSM    H7T10316   3.271   4.110  10.013  0.0220 -0.5592 -0.5725
  102OSM    C8S10317   3.398   4.246   9.914 -0.0763  0.2386  0.0058
  102OSM    H8S10318   3.489   4.183   9.927  0.2337 -0.5547 -4.3162
  102OSM    H8T10319   3.428   4.352   9.929  0.2159 -0.1048  2.1790
  102OSM    C9S10320   3.350   4.225   9.769  0.1573 -0.1199  0.6049
  102OSM    H9S10321   3.270   4.297   9.747  1.4180  1.2016  0.1789
  102OSM    H9T10322   3.311   4.121   9.768 -1.9067  0.6254  0.0433
  102OSM   C10S10323   3.463   4.259   9.668  0.4681  0.5040  0.1887
  102OSM   H10S10324   3.547   4.192   9.697  0.4073  1.4975  2.9373
  102OSM   H10T10325   3.491   4.367   9.671  0.3363  0.5345  0.2998
  102OSM   C11S10326   3.415   4.236   9.523  0.0990  0.4094  0.1692
  102OSM   H11S10327   3.347   4.321   9.500 -1.1020 -0.5646  0.0196
  102OSM   H11T10328   3.350   4.148   9.508 -0.1122  0.2828  1.7366
  102OSM   C12S10329   3.526   4.236   9.414 -0.2862 -0.5276 -0.2468
  102OSM   H12S10330   3.611   4.170   9.440 -1.9074 -3.1726 -1.2394
  102OSM   H12T10331   3.565   4.340   9.410 -0.1603 -0.6169 -2.2903
  102OSM   C13S10332   3.467   4.203   9.269  0.1331 -0.8777  0.4255
  102OSM   H13S10333   3.541   4.238   9.194 -0.5598 -2.6938 -1.1708
  102OSM   H13T10334   3.374   4.265   9.277  1.9489  1.8592  2.0724
  102OSM   C14S10335   3.444   4.058   9.252 -0.2408 -0.0811  1.1621
  102OSM   H14S10336   3.380   4.013   9.332 -3.9620  0.3407 -1.3104
  102OSM   H14T10337   3.537   3.998   9.255  0.6269  0.7953 -2.9143
  102OSM   C15S10338   3.369   4.024   9.124 -0.0419  0.2254 -1.0512
  102OSM   H15S10339   3.353   3.915   9.113 -1.7388  0.4699 -1.1912
  102OSM   H15T10340   3.433   4.047   9.036  0.0039 -1.3819 -1.4645
  102OSM   C16S10341   3.231   4.089   9.104  0.3731 -0.4644  0.7220
  102OSM   H16S10342   3.207   4.077   8.996  0.3460  1.2537  0.5121
  102OSM   H16T10343   3.244   4.199   9.113  1.9015 -0.6310  0.8282
  102OSM   C17S10344   3.106   4.034   9.174 -0.3197  0.0603 -0.4252
  102OSM   H17S10345   3.089   4.102   9.261  0.4752  0.3141 -0.4567
  102OSM   H17T10346   3.138   3.938   9.219  1.1311  0.3196 -0.8499
  102OSM   C18S10347   2.975   4.036   9.097 -0.5585  0.0083  0.6283
  102OSM   H18S10348   2.903   3.963   9.139  1.4630 -1.9962  0.8084
  102OSM   H18T10349   3.006   4.025   8.990  0.6349  0.0985  0.9475
  102OSM   H18U10350   2.931   4.138   9.103  1.6147  1.0144  0.6393
  102OSM    C1F10351   2.790   4.479  10.339  0.4253  0.1808  0.3230
  102OSM     OF10352   2.802   4.593  10.374  0.5149  0.3700  0.4357
  102OSM    C2F10353   2.669   4.429  10.261  0.1890 -0.3235  0.3776
  102OSM    H2F10354   2.652   4.506  10.183 -2.0439  1.3025  2.3081
  102OSM    H2G10355   2.583   4.422  10.331  1.4358 -0.9134  1.8995
  102OSM    C3F10356   2.683   4.289  10.198  0.1256  0.7128 -0.0141
  102OSM    H3F10357   2.696   4.212  10.278 -1.6530  0.7966  0.3937
  102OSM    H3G10358   2.778   4.283  10.141  0.8092  3.8660  0.6294
  102OSM    C4F10359   2.569   4.246  10.098  0.0161  0.0723 -0.5815
  102OSM    H4F10360   2.473   4.250  10.154  0.3267 -1.9975  0.1968
  102OSM    H4G10361   2.585   4.140  10.067  1.7051  0.3131 -0.6371
  102OSM    C5F10362   2.562   4.323   9.969  0.3337 -0.1291  0.4985
  102OSM    H5F10363   2.649   4.307   9.902 -0.3147  0.1452 -0.4487
  102OSM    H5G10364   2.571   4.433   9.986 -1.9195 -0.0175  1.3569
  102OSM    C6F10365   2.429   4.315   9.892 -0.6564 -0.0097 -0.5796
  102OSM    H6F10366   2.347   4.311   9.966  1.1893  1.5492  1.6912
  102OSM    H6G10367   2.428   4.220   9.834  0.0841 -0.6472  0.4216
  102OSM    C7F10368   2.404   4.439   9.799 -0.0191  0.5963 -0.0366
  102OSM    H7F10369   2.502   4.459   9.750  0.1393  1.1086  0.4819
  102OSM    H7G10370   2.385   4.529   9.861 -0.2205  0.6478 -0.1727
  102OSM    C8F10371   2.294   4.411   9.689 -0.3987  0.2754 -0.9461
  102OSM    H8F10372   2.193   4.392   9.732 -0.4059 -1.5046 -1.6607
  102OSM    H8G10373   2.327   4.319   9.636  2.3516  0.4551  0.3072
  102OSM    C9F10374   2.303   4.524   9.591 -0.0567  0.1567  0.0087
  102OSM    H9F10375   2.259   4.619   9.623 -1.9881 -0.2544 -1.1962
  102OSM   C10F10376   2.379   4.516   9.475  0.2175 -0.8318  0.2923
  102OSM   H10F10377   2.378   4.605   9.412 -2.8731  0.3816  1.8180
  102OSM   C11F10378   2.456   4.398   9.421 -0.5588  0.0763  0.3573
  102OSM   H11F10379   2.396   4.305   9.431 -1.2574  0.3520 -1.1144
  102OSM   H11G10380   2.541   4.369   9.486 -0.6705  0.1774  0.5523
  102OSM   C12F10381   2.512   4.416   9.287 -0.4216  0.2306 -0.8455
  102OSM   H12F10382   2.582   4.334   9.260  1.4929  0.5586  2.5748
  102OSM   H12G10383   2.561   4.516   9.291  1.1976 -0.5476 -0.2793
  102OSM   C13F10384   2.411   4.435   9.174 -0.6890 -0.1675 -0.4358
  102OSM   H13F10385   2.353   4.527   9.196 -1.6801 -0.9754  0.4397
  102OSM   H13G10386   2.346   4.345   9.175  0.3012 -0.9508 -2.2812
  102OSM   C14F10387   2.463   4.450   9.026 -1.1117  0.9508 -0.0523
  102OSM   H14F10388   2.374   4.447   8.959 -1.4196  1.9609  0.2978
  102OSM   H14G10389   2.526   4.364   8.995 -2.6621  0.7367 -2.9698
  102OSM   C15F10390   2.553   4.569   9.006 -0.1560  0.1652 -0.0240
  102OSM   H15F10391   2.645   4.557   9.066 -0.2042  1.2328  0.2989
  102OSM   H15G10392   2.498   4.664   9.024 -0.4838 -0.3174  1.7301
  102OSM   C16F10393   2.597   4.573   8.856 -0.0274 -0.1255 -0.4921
  102OSM   H16F10394   2.509   4.572   8.789  0.1519 -2.0653 -0.7657
  102OSM   H16G10395   2.655   4.478   8.855 -0.8745 -0.7805  2.3798
  102OSM   C17F10396   2.685   4.692   8.814 -0.0682  0.7537 -0.9371
  102OSM   H17F10397   2.768   4.692   8.887 -0.6300  3.0992 -0.2340
  102OSM   H17G10398   2.643   4.792   8.837 -0.6026  0.1566  0.8777
  102OSM   C18F10399   2.739   4.679   8.671  0.1024  0.4204 -0.0679
  102OSM   H18F10400   2.652   4.684   8.603 -0.7328  0.2261  0.9573
  102OSM   H18G10401   2.791   4.582   8.657  0.1822  0.3518  0.6610
  102OSM   H18H10402   2.808   4.763   8.647  0.1726  0.0972 -1.0236
  103OSM      N10403   6.318   0.849  11.274  0.7970 -1.1493  0.0965
  103OSM    C1510404   6.300   0.713  11.328 -0.1063 -0.7810  0.5110
  103OSM   H15A10405   6.297   0.721  11.435  0.9849  0.0786  0.4882
  103OSM   H15B10406   6.373   0.642  11.292 -1.1352 -0.2483 -3.0823
  103OSM   H15C10407   6.208   0.671  11.288 -0.5531 -0.5988  1.3306
  103OSM    C1410408   6.208   0.939  11.320  0.2232 -0.2053  0.1387
  103OSM   H14A10409   6.205   0.969  11.424  0.5256  0.0787  0.0673
  103OSM   H14B10410   6.118   0.897  11.279  2.0978 -2.4639 -1.9586
  103OSM   H14C10411   6.207   1.033  11.266 -2.8111  0.4031  1.0742
  103OSM    C1310412   6.447   0.906  11.321 -0.0554 -0.5198  0.2390
  103OSM   H13A10413   6.528   0.859  11.268  1.1522 -0.4261  1.9230
  103OSM   H13B10414   6.461   0.885  11.426 -0.1511 -0.0139  0.3532
  103OSM   H13C10415   6.442   1.012  11.304 -1.2772 -0.3134  1.6468
  103OSM    C1210416   6.314   0.847  11.118  0.2780  0.3183  0.2437
  103OSM   H12A10417   6.394   0.784  11.083 -0.1823  0.7604 -1.6949
  103OSM   H12B10418   6.339   0.945  11.078  0.3430 -0.8894 -2.9400
  103OSM    C1110419   6.192   0.796  11.035 -0.9320 -0.0286  0.7511
  103OSM   H11A10420   6.212   0.797  10.925 -0.4565 -0.2969  0.8325
  103OSM   H11B10421   6.119   0.879  11.038  0.0322  0.8647  0.1811
  103OSM      P10422   6.005   0.646  11.124 -0.0643 -0.0661 -0.1872
  103OSM    O1310423   6.000   0.522  11.201 -0.3665 -0.3357 -0.0082
  103OSM    O1410424   5.959   0.766  11.196 -0.4039  0.2940 -0.5762
  103OSM    O1110425   5.899   0.626  11.004 -0.6609 -0.1841  0.0062
  103OSM    O1210426   6.146   0.663  11.070  0.6076  0.5126 -0.4755
  103OSM    C1S10427   5.877   0.715  10.897 -0.3421  0.7678 -0.3342
  103OSM    H1S10428   5.914   0.816  10.925  0.3780 -0.0124  1.7080
  103OSM    H1T10429   5.767   0.716  10.883 -0.3189 -1.8902 -1.3689
  103OSM     NF10430   5.935   0.757  10.669  0.0804 -0.1628 -0.0579
  103OSM    HNF10431   5.868   0.751  10.596 -0.3774  0.5088  0.3005
  103OSM    C2S10432   5.939   0.657  10.772 -0.2958 -0.4834 -0.0772
  103OSM    H2S10433   6.045   0.633  10.792 -0.2489 -0.1682  0.0525
  103OSM    C3S10434   5.869   0.519  10.725  0.2877  0.4864  0.3883
  103OSM    H3S10435   5.758   0.526  10.729  0.2793 -0.0297  1.5442
  103OSM     O310436   5.898   0.406  10.814 -0.0094 -0.2541 -0.1578
  103OSM    HO310437   5.939   0.436  10.896  1.8763 -1.7877 -0.4947
  103OSM    C4S10438   5.914   0.473  10.591 -0.1737  0.2435  0.2471
  103OSM    H4S10439   6.024   0.474  10.584 -0.2073 -0.9783 -0.8558
  103OSM    C5S10440   5.835   0.447  10.488 -0.4791 -0.2647  0.2381
  103OSM    H5S10441   5.729   0.437  10.516 -0.4942  0.7568  0.5663
  103OSM    C6S10442   5.897   0.414  10.350 -0.0847 -0.4357  0.2089
  103OSM    H6S10443   5.815   0.371  10.289  0.1369  0.5772 -0.8271
  103OSM    H6T10444   5.986   0.348  10.346  0.0642 -0.2881  0.9519
  103OSM    C7S10445   5.927   0.542  10.267  0.3418 -0.0138  0.0943
  103OSM    H7S10446   6.011   0.594  10.318 -1.4477  0.4347  2.7589
  103OSM    H7T10447   5.842   0.613  10.271 -0.2360 -0.6863 -0.1445
  103OSM    C8S10448   5.956   0.532  10.109  0.8290 -0.3629 -0.2551
  103OSM    H8S10449   6.048   0.476  10.078  0.4461 -0.5149 -1.1471
  103OSM    H8T10450   5.979   0.638  10.086  2.3764 -0.0422  2.3589
  103OSM    C9S10451   5.831   0.485  10.035 -0.7302  0.5317 -0.9231
  103OSM    H9S10452   5.741   0.542  10.068  0.1506  1.0206  0.7348
  103OSM    H9T10453   5.812   0.377  10.049  2.9463 -0.0849  0.4834
  103OSM   C10S10454   5.835   0.528   9.882 -0.0646  0.0690 -0.0041
  103OSM   H10S10455   5.873   0.633   9.879  1.6361 -0.3046  3.3781
  103OSM   H10T10456   5.737   0.512   9.833  0.1976  1.4552 -1.0412
  103OSM   C11S10457   5.934   0.439   9.798  0.2168 -0.5577 -0.2011
  103OSM   H11S10458   5.888   0.338   9.785 -0.6577 -0.6203  2.7841
  103OSM   H11T10459   6.030   0.429   9.853  0.2384  2.2185  0.4030
  103OSM   C12S10460   5.954   0.489   9.654 -0.2233 -0.0438  0.5111
  103OSM   H12S10461   6.020   0.421   9.596  1.6080  1.1606  1.0768
  103OSM   H12T10462   6.010   0.585   9.660 -0.7396  0.1834  2.0851
  103OSM   C13S10463   5.821   0.530   9.588  0.1748 -0.0736  0.0745
  103OSM   H13S10464   5.767   0.610   9.643 -1.8454 -0.8757 -0.6409
  103OSM   H13T10465   5.758   0.440   9.604  0.1574 -0.1404 -0.3470
  103OSM   C14S10466   5.839   0.557   9.439 -0.3775  0.0446 -0.6000
  103OSM   H14S10467   5.926   0.623   9.424  0.2114 -0.7659 -0.8106
  103OSM   H14T10468   5.757   0.628   9.412 -0.8817  0.0052  0.7457
  103OSM   C15S10469   5.837   0.432   9.352  0.5135  0.1949 -0.0365
  103OSM   H15S10470   5.734   0.393   9.368  0.9741 -1.0709 -0.0768
  103OSM   H15T10471   5.917   0.366   9.390  1.0393  1.4648  1.1677
  103OSM   C16S10472   5.869   0.461   9.206  0.4614  0.4428  0.6434
  103OSM   H16S10473   5.965   0.515   9.195  0.2703  1.0291  1.7753
  103OSM   H16T10474   5.794   0.530   9.161  0.2769 -0.4998 -0.5725
  103OSM   C17S10475   5.887   0.327   9.122  0.6368 -0.2469 -0.9733
  103OSM   H17S10476   5.790   0.274   9.130  0.5441  0.0642  0.1289
  103OSM   H17T10477   5.954   0.252   9.169 -0.5171 -1.0907 -0.6245
  103OSM   C18S10478   5.917   0.344   8.976 -0.4123 -0.1091  0.8478
  103OSM   H18S10479   6.015   0.394   8.964 -1.0100  0.7026 -1.1989
  103OSM   H18T10480   5.839   0.402   8.923  0.5577 -1.2478 -2.0337
  103OSM   H18U10481   5.926   0.246   8.923 -0.2545 -1.9384  3.9696
  103OSM    C1F10482   6.006   0.869  10.671 -0.4571 -0.6496  0.0202
  103OSM     OF10483   6.091   0.886  10.757 -0.4927 -0.4150 -0.1598
  103OSM    C2F10484   5.978   0.972  10.566 -0.0622  0.4888 -0.0729
  103OSM    H2F10485   6.060   1.046  10.567 -0.2702  0.7490 -0.9988
  103OSM    H2G10486   5.884   1.023  10.595 -0.2125 -1.2468  2.9377
  103OSM    C3F10487   5.966   0.903  10.428 -0.3865  0.4348  0.3413
  103OSM    H3F10488   5.873   0.843  10.415 -0.0603  0.1577 -0.8125
  103OSM    H3G10489   6.056   0.840  10.412 -0.9689 -0.0686 -1.0832
  103OSM    C4F10490   5.970   0.998  10.311 -0.3427 -0.4159  0.3344
  103OSM    H4F10491   6.070   1.044  10.297  0.5041 -1.9905  0.9723
  103OSM    H4G10492   5.895   1.078  10.329 -0.4553 -0.8366  1.8746
  103OSM    C5F10493   5.944   0.931  10.175  0.0567  0.0076  0.2077
  103OSM    H5F10494   5.841   0.889  10.168  0.2119 -0.2291 -0.8033
  103OSM    H5G10495   6.017   0.853  10.146 -3.3059 -2.5781 -2.1991
  103OSM    C6F10496   5.960   1.032  10.060 -0.1248  0.5904  0.3093
  103OSM    H6F10497   6.062   1.077  10.062 -0.6351  1.8011 -0.1292
  103OSM    H6G10498   5.887   1.115  10.063  1.4488  2.0019  1.9335
  103OSM    C7F10499   5.941   0.967   9.924 -0.6225 -0.0959  0.0469
  103OSM    H7F10500   5.884   1.038   9.861 -2.5186  0.6442  2.4284
  103OSM    H7G10501   5.875   0.878   9.935 -2.5997  1.1700 -1.1264
  103OSM    C8F10502   6.077   0.933   9.859 -0.0807 -0.0155  0.2388
  103OSM    H8F10503   6.149   0.879   9.924  0.3759  3.1688  2.6009
  103OSM    H8G10504   6.128   1.031   9.846  2.5877 -1.5512 -2.0053
  103OSM    C9F10505   6.058   0.862   9.728 -0.0408 -1.0284 -0.1602
  103OSM    H9F10506   6.012   0.762   9.735 -0.8191 -0.8629 -2.3176
  103OSM   C10F10507   6.088   0.904   9.603  0.1722  0.3614  0.1042
  103OSM   H10F10508   6.064   0.834   9.522  0.8738 -1.6026  1.5105
  103OSM   C11F10509   6.146   1.037   9.551  0.4184  0.4359  0.3618
  103OSM   H11F10510   6.249   1.022   9.512  0.0031  2.2918 -1.6487
  103OSM   H11G10511   6.150   1.109   9.635 -1.8916  1.2282 -0.1358
  103OSM   C12F10512   6.047   1.082   9.444  0.0815 -0.0146  0.4751
  103OSM   H12F10513   5.964   1.137   9.494  0.3328  1.2331 -0.4104
  103OSM   H12G10514   6.000   0.996   9.393  2.8122 -2.5886  1.9933
  103OSM   C13F10515   6.120   1.161   9.336  0.4414 -0.1397  0.6021
  103OSM   H13F10516   6.169   1.254   9.372 -1.3224  2.0259 -2.1571
  103OSM   H13G10517   6.192   1.088   9.292  1.9641  0.4571  1.9710
  103OSM   C14F10518   6.018   1.210   9.235 -0.2123 -0.1528 -1.1879
  103OSM   H14F10519   5.940   1.281   9.269 -1.1555 -1.5088 -0.3961
  103OSM   H14G10520   5.957   1.123   9.202 -1.3890 -1.3483  3.3251
  103OSM   C15F10521   6.094   1.256   9.106  0.2544 -0.5436 -0.1426
  103OSM   H15F10522   6.112   1.159   9.054 -2.0102 -1.2607  0.2701
  103OSM   H15G10523   6.190   1.308   9.126 -0.8176  1.5504 -0.1963
  103OSM   C16F10524   6.006   1.354   9.029  0.8649  0.9659 -0.4227
  103OSM   H16F10525   5.912   1.298   9.011  0.9925  0.4736  0.3743
  103OSM   H16G10526   6.051   1.372   8.930  0.9123  0.1964 -0.5482
  103OSM   C17F10527   5.985   1.484   9.096 -0.1241 -0.5141 -0.3025
  103OSM   H17F10528   6.080   1.515   9.145 -0.7528  0.6505  0.2367
  103OSM   H17G10529   5.902   1.478   9.170 -1.9178  2.7959 -1.8157
  103OSM   C18F10530   5.946   1.592   9.000 -0.2642  0.8366  0.5354
  103OSM   H18F10531   5.963   1.567   8.893  2.1301  0.6026  0.9164
  103OSM   H18G10532   5.992   1.690   9.022  1.6062  0.8421 -2.6876
  103OSM   H18H10533   5.837   1.604   9.014 -0.0412  2.8280  0.8513
  104OSM      N10534   0.771   0.630  10.830  0.1020 -0.2466 -0.3269
  104OSM    C1510535   0.748   0.492  10.892  0.3497  0.1675 -0.0909
  104OSM   H15A10536   0.811   0.431  10.828 -2.5365 -1.0623 -1.9588
  104OSM   H15B10537   0.647   0.455  10.881  0.0963  0.9924 -0.5831
  104OSM   H15C10538   0.792   0.482  10.990  1.6030 -0.4516 -0.6879
  104OSM    C1410539   0.714   0.638  10.691  0.4352 -0.1096 -0.3395
  104OSM   H14A10540   0.606   0.630  10.685  0.3776 -0.5645  1.0521
  104OSM   H14B10541   0.760   0.565  10.625 -1.0345 -0.6622 -0.8027
  104OSM   H14C10542   0.730   0.736  10.649  0.3177 -0.2926 -0.8197
  104OSM    C1310543   0.710   0.731  10.921 -0.0603  0.5003  0.7013
  104OSM   H13A10544   0.746   0.715  11.021 -1.2490  0.0398  1.0758
  104OSM   H13B10545   0.602   0.728  10.927 -0.0262  0.5537  1.4454
  104OSM   H13C10546   0.730   0.831  10.884 -0.0661 -0.2873 -1.6200
  104OSM    C1210547   0.914   0.665  10.822  0.0362 -0.6679 -0.7456
  104OSM   H12A10548   0.971   0.671  10.914  0.4666  0.5695 -1.0639
  104OSM   H12B10549   0.929   0.766  10.787  1.3547 -1.1638 -1.6968
  104OSM    C1110550   1.002   0.570  10.739  0.6256  0.2848 -0.0717
  104OSM   H11A10551   1.096   0.629  10.728  2.2564 -2.1906 -0.2247
  104OSM   H11B10552   0.945   0.550  10.646 -3.3192 -0.1157  2.2162
  104OSM      P10553   1.036   0.307  10.747  0.3087 -0.1384  0.4334
  104OSM    O1310554   1.150   0.233  10.798  0.3896  0.2190  0.0539
  104OSM    O1410555   0.901   0.247  10.776  0.7520  0.1226 -0.0912
  104OSM    O1110556   1.044   0.332  10.593  0.0067  0.4718  0.4439
  104OSM    O1210557   1.043   0.452  10.811  0.2569  0.1634 -0.4480
  104OSM    C1S10558   0.934   0.311  10.502 -0.3336 -0.1938  0.5110
  104OSM    H1S10559   0.839   0.366  10.519 -1.3720 -1.6938 -0.2022
  104OSM    H1T10560   0.896   0.206  10.500  0.3869 -0.6112  3.5541
  104OSM     NF10561   0.842   0.373  10.284  0.4009 -0.1929  0.1879
  104OSM    HNF10562   0.819   0.301  10.219 -0.9943  1.0005 -0.7001
  104OSM    C2S10563   0.965   0.361  10.358  0.7739 -0.5359 -0.2894
  104OSM    H2S10564   1.009   0.461  10.382 -1.2352  0.6931 -1.4224
  104OSM    C3S10565   1.076   0.269  10.294 -0.6880  0.0079  0.6098
  104OSM    H3S10566   1.030   0.169  10.280 -1.0426  0.4301 -1.6854
  104OSM     O310567   1.195   0.248  10.370  0.0637 -0.3759 -0.0832
  104OSM    HO310568   1.175   0.276  10.459 -0.0681  0.6392 -0.4215
  104OSM    C4S10569   1.111   0.320  10.154  0.3629 -0.4848 -0.3274
  104OSM    H4S10570   1.035   0.291  10.080  0.4852  1.0656 -1.1037
  104OSM    C5S10571   1.203   0.404  10.115 -0.8371 -0.1953  0.4405
  104OSM    H5S10572   1.272   0.439  10.193 -1.6171 -1.0019  1.5258
  104OSM    C6S10573   1.237   0.453   9.974  0.1583 -0.4196  0.5016
  104OSM    H6S10574   1.348   0.451   9.963  0.0063 -1.3709 -1.2419
  104OSM    H6T10575   1.206   0.559   9.962  0.6234 -0.0673  2.1817
  104OSM    C7S10576   1.191   0.383   9.847  0.0349  0.3960 -0.6358
  104OSM    H7S10577   1.080   0.390   9.837 -0.3934 -3.6603 -0.1550
  104OSM    H7T10578   1.201   0.273   9.856  2.1893  0.5783 -0.4901
  104OSM    C8S10579   1.272   0.441   9.729  0.1233  0.1760 -0.9704
  104OSM    H8S10580   1.370   0.397   9.754  0.3333  1.6615  1.1452
  104OSM    H8T10581   1.286   0.551   9.741 -3.0393  0.7856 -1.8053
  104OSM    C9S10582   1.213   0.410   9.589 -0.0074 -0.1543  0.0678
  104OSM    H9S10583   1.110   0.451   9.576  0.6596  1.8297  0.6968
  104OSM    H9T10584   1.227   0.301   9.574  2.4260  0.0426  0.5204
  104OSM   C10S10585   1.282   0.458   9.459 -0.5398  0.6865  0.8243
  104OSM   H10S10586   1.391   0.437   9.466  0.0882  3.2730 -0.2431
  104OSM   H10T10587   1.284   0.569   9.461  2.7173  0.7269  1.4132
  104OSM   C11S10588   1.215   0.391   9.334 -0.1425  0.2807  0.0568
  104OSM   H11S10589   1.114   0.354   9.363 -0.2904  1.1607  0.7043
  104OSM   H11T10590   1.275   0.302   9.306  0.8757  0.1949  2.3486
  104OSM   C12S10591   1.213   0.493   9.222 -0.0906  0.2046 -0.4083
  104OSM   H12S10592   1.312   0.541   9.211 -0.0377  0.0878 -0.4491
  104OSM   H12T10593   1.150   0.576   9.261 -0.3136 -0.9654  1.9070
  104OSM   C13S10594   1.148   0.443   9.093 -0.8281  0.3153 -0.0487
  104OSM   H13S10595   1.039   0.440   9.115 -0.5315  0.6324  1.6234
  104OSM   H13T10596   1.186   0.342   9.067 -1.1386 -0.7432  3.1530
  104OSM   C14S10597   1.172   0.544   8.975  0.0354 -0.0457 -0.9224
  104OSM   H14S10598   1.282   0.557   8.966  0.0884 -0.0319 -0.3097
  104OSM   H14T10599   1.131   0.645   8.999  0.0378  0.4371 -2.7413
  104OSM   C15S10600   1.106   0.496   8.841  0.1770  0.8089 -0.3217
  104OSM   H15S10601   1.001   0.474   8.871  0.0136  1.5129 -0.3557
  104OSM   H15T10602   1.145   0.398   8.807 -0.4401  0.7547 -0.8804
  104OSM   C16S10603   1.103   0.600   8.728  0.9717 -0.2102 -0.0746
  104OSM   H16S10604   1.048   0.690   8.762  0.1979 -0.9765  0.7444
  104OSM   H16T10605   1.046   0.576   8.637 -0.2310  1.0820  0.3066
  104OSM   C17S10606   1.237   0.633   8.657 -0.3412  0.8433 -0.0650
  104OSM   H17S10607   1.312   0.667   8.732  0.6709 -1.8559  0.2890
  104OSM   H17T10608   1.219   0.702   8.572 -0.4073  3.0680  1.6808
  104OSM   C18S10609   1.303   0.501   8.587  0.0818 -0.6424  0.0989
  104OSM   H18S10610   1.413   0.516   8.591 -0.1037  0.6370  2.1211
  104OSM   H18T10611   1.266   0.480   8.485 -1.5980  0.6280  0.3970
  104OSM   H18U10612   1.298   0.411   8.652 -1.3367  0.6300  1.8875
  104OSM    C1F10613   0.756   0.475  10.304 -0.2480 -0.2933  0.0803
  104OSM     OF10614   0.777   0.562  10.384 -0.4287 -0.0057 -0.2488
  104OSM    C2F10615   0.624   0.471  10.231 -0.2960  0.1194  0.0465
  104OSM    H2F10616   0.542   0.478  10.305  0.0194 -1.9858  0.6523
  104OSM    H2G10617   0.617   0.379  10.169 -1.7501  0.7212 -0.7193
  104OSM    C3F10618   0.618   0.592  10.133  0.1334 -0.4087  0.2014
  104OSM    H3F10619   0.636   0.692  10.179  0.6059 -0.1787 -0.4609
  104OSM    H3G10620   0.513   0.592  10.098 -0.0753  0.6851  0.7928
  104OSM    C4F10621   0.715   0.576  10.019  0.0235 -0.1839 -0.0228
  104OSM    H4F10622   0.730   0.467  10.001  0.5072 -0.0112 -0.7215
  104OSM    H4G10623   0.811   0.631  10.028 -0.0019  0.4219 -2.7064
  104OSM    C5F10624   0.659   0.623   9.877  0.4572 -0.5215 -0.0408
  104OSM    H5F10625   0.603   0.715   9.901 -1.3619 -1.8458  1.0949
  104OSM    H5G10626   0.585   0.552   9.834  1.5955 -2.5394  1.1561
  104OSM    C6F10627   0.751   0.663   9.764 -0.4724 -0.5066 -0.5929
  104OSM    H6F10628   0.819   0.576   9.747 -2.2596 -1.9186 -0.7648
  104OSM    H6G10629   0.815   0.746   9.801 -0.7159 -0.5436 -0.0904
  104OSM    C7F10630   0.675   0.692   9.637  0.7475  0.4971 -0.7119
  104OSM    H7F10631   0.638   0.797   9.645 -1.7856 -0.4316  2.7312
  104OSM    H7G10632   0.587   0.625   9.622  0.2527  1.1704 -0.8948
  104OSM    C8F10633   0.754   0.695   9.510 -0.3396  0.3192 -0.0136
  104OSM    H8F10634   0.842   0.758   9.535 -2.0866  1.9183  2.6337
  104OSM    H8G10635   0.710   0.750   9.424  0.6835 -0.8364 -1.3302
  104OSM    C9F10636   0.789   0.550   9.466 -0.2185  0.2828  0.5200
  104OSM    H9F10637   0.791   0.472   9.542  1.9580 -1.0138 -0.7645
  104OSM   C10F10638   0.791   0.519   9.333 -0.0888  0.5610  0.2461
  104OSM   H10F10639   0.804   0.415   9.300 -3.6903  0.0567 -0.0211
  104OSM   C11F10640   0.774   0.610   9.214  0.0358 -0.3002 -0.1655
  104OSM   H11F10641   0.847   0.580   9.137  0.3617 -3.9572  1.3685
  104OSM   H11G10642   0.792   0.715   9.246  2.4728 -1.3058  2.2083
  104OSM   C12F10643   0.637   0.616   9.146  0.4896 -0.7799  0.3049
  104OSM   H12F10644   0.638   0.698   9.072  0.5494 -0.5221  0.5884
  104OSM   H12G10645   0.550   0.634   9.213 -0.7374 -0.2129 -1.3899
  104OSM   C13F10646   0.593   0.488   9.065  0.6688 -0.0556 -0.6343
  104OSM   H13F10647   0.516   0.525   8.993 -0.1363  1.2934  0.8579
  104OSM   H13G10648   0.550   0.408   9.129 -0.1454  0.0476 -1.0384
  104OSM   C14F10649   0.704   0.433   8.968 -0.4752  0.8379  0.4609
  104OSM   H14F10650   0.780   0.381   9.031 -0.7876 -0.6548 -0.3401
  104OSM   H14G10651   0.754   0.519   8.917 -0.3514  0.1041 -0.7072
  104OSM   C15F10652   0.647   0.334   8.863 -0.7445  0.1282  0.4054
  104OSM   H15F10653   0.565   0.387   8.810 -2.8952 -2.0194  1.3432
  104OSM   H15G10654   0.606   0.248   8.921  1.8126 -1.4665  0.0234
  104OSM   C16F10655   0.761   0.294   8.768 -0.2448 -0.5900 -0.1791
  104OSM   H16F10656   0.760   0.185   8.746 -0.0269 -0.1530 -2.7280
  104OSM   H16G10657   0.857   0.317   8.818 -0.9382  0.3437  0.7536
  104OSM   C17F10658   0.778   0.373   8.635 -0.1181  0.2868  0.2449
  104OSM   H17F10659   0.864   0.337   8.574 -0.2312  2.2878 -1.2034
  104OSM   H17G10660   0.796   0.483   8.635 -1.4155  0.5459 -1.4469
  104OSM   C18F10661   0.656   0.346   8.540  0.0512  0.5775  0.4323
  104OSM   H18F10662   0.563   0.369   8.596  0.6941  0.3539  1.6162
  104OSM   H18G10663   0.643   0.238   8.519 -0.6751  0.6501  0.4724
  104OSM   H18H10664   0.650   0.410   8.449  2.6809  0.0012 -0.2174
  105OSM      N10665   1.802   6.619  11.094 -0.3867 -0.4548  0.3957
  105OSM    C1510666   1.729   6.532  11.198 -0.4528 -0.3401  0.3951
  105OSM   H15A10667   1.636   6.579  11.224  1.3979  1.7591  4.0183
  105OSM   H15B10668   1.789   6.528  11.287 -0.4368 -1.1334  0.3487
  105OSM   H15C10669   1.731   6.430  11.163 -1.4111  0.0434 -0.8732
  105OSM    C1410670   1.824   6.752  11.149 -0.3768 -0.1418 -0.4359
  105OSM   H14A10671   1.731   6.800  11.176  1.2599  2.4083  1.0911
  105OSM   H14B10672   1.880   6.826  11.093  0.7968  0.5802  1.5975
  105OSM   H14C10673   1.875   6.741  11.244 -1.8774  1.4866  0.6136
  105OSM    C1310674   1.937   6.555  11.078 -0.1140 -0.2781 -0.7850
  105OSM   H13A10675   1.994   6.617  11.011 -1.4963  2.6967  0.5761
  105OSM   H13B10676   1.923   6.452  11.048 -1.0813 -0.8901  1.5286
  105OSM   H13C10677   1.979   6.568  11.177 -0.3046 -0.2947 -0.6990
  105OSM    C1210678   1.737   6.617  10.958 -0.0328  0.2543  0.5252
  105OSM   H12A10679   1.634   6.649  10.949 -0.4139 -1.3809 -2.3228
  105OSM   H12B10680   1.715   6.514  10.932 -0.5046  0.5122 -0.1505
  105OSM    C1110681   1.812   6.684  10.835 -0.6940 -0.0544  0.5487
  105OSM   H11A10682   1.794   6.793  10.847 -1.1510 -0.0430 -0.1718
  105OSM   H11B10683   1.759   6.658  10.741  0.9655 -2.7561  0.2489
  105OSM      P10684   2.019   6.560  10.721  0.0372 -0.0731 -0.1510
  105OSM    O1310685   2.144   6.524  10.790 -0.1931  0.3946 -0.0590
  105OSM    O1410686   1.932   6.446  10.717  0.0849  0.2446 -0.0930
  105OSM    O1110687   2.037   6.625  10.578  0.0718 -0.2059 -0.2554
  105OSM    O1210688   1.956   6.671  10.814 -0.2886  0.5035 -0.1039
  105OSM    C1S10689   1.978   6.753  10.547  0.0919  0.0682  0.4116
  105OSM    H1S10690   2.021   6.830  10.614 -1.4841  1.7999 -0.4912
  105OSM    H1T10691   1.868   6.753  10.557  0.0847  0.8282  0.3693
  105OSM     NF10692   1.948   6.915  10.373  0.9149  0.0341 -0.7776
  105OSM    HNF10693   1.855   6.918  10.338  0.7903 -0.5763 -0.4970
  105OSM    C2S10694   1.994   6.780  10.397 -0.2809  0.6659  0.5761
  105OSM    H2S10695   2.100   6.778  10.364 -0.4318  1.0226  0.0699
  105OSM    C3S10696   1.913   6.665  10.326 -0.0936  0.3256  0.0688
  105OSM    H3S10697   1.814   6.663  10.378  0.9624  1.7732  2.3276
  105OSM     O310698   1.974   6.535  10.339  0.2299 -0.3683 -0.3985
  105OSM    HO310699   2.008   6.547  10.428  1.1677 -2.9247 -0.3322
  105OSM    C4S10700   1.894   6.700  10.180 -0.1354 -0.2491  0.1339
  105OSM    H4S10701   1.801   6.754  10.159 -0.0248 -0.1718 -0.1677
  105OSM    C5S10702   1.971   6.661  10.071 -0.4392 -0.2648 -0.4118
  105OSM    H5S10703   2.064   6.607  10.093  2.6746  3.1830 -3.5501
  105OSM    C6S10704   1.947   6.688   9.930 -0.6299  0.2183  0.9019
  105OSM    H6S10705   1.846   6.734   9.919 -0.3716  0.3336 -1.5427
  105OSM    H6T10706   1.951   6.590   9.878  0.3715  0.8102 -0.1726
  105OSM    C7S10707   2.061   6.775   9.875 -0.4197  0.3272 -0.3619
  105OSM    H7S10708   2.165   6.738   9.892 -0.6444 -0.2336 -0.2108
  105OSM    H7T10709   2.065   6.876   9.922 -0.1189  0.2176 -0.1413
  105OSM    C8S10710   2.042   6.788   9.721  0.3440 -0.5729  0.0546
  105OSM    H8S10711   1.939   6.827   9.704  1.1777  1.4683 -0.5305
  105OSM    H8T10712   2.048   6.692   9.666 -0.2004  0.3382 -1.6627
  105OSM    C9S10713   2.140   6.889   9.653 -0.5439  0.5921 -0.0536
  105OSM    H9S10714   2.243   6.849   9.663 -0.5139 -0.1135 -2.4483
  105OSM    H9T10715   2.135   6.984   9.709 -3.5047  1.6838 -1.9312
  105OSM   C10S10716   2.100   6.929   9.509 -0.1143  0.4976 -0.5273
  105OSM   H10S10717   2.165   7.017   9.489 -1.9351  1.7036 -1.4310
  105OSM   H10T10718   1.993   6.960   9.504 -1.4424 -3.1339  1.4357
  105OSM   C11S10719   2.127   6.818   9.407  0.0356 -0.1658  0.0473
  105OSM   H11S10720   2.058   6.733   9.421  2.1021 -1.9511  0.0321
  105OSM   H11T10721   2.230   6.775   9.414  0.5194  1.0320  0.5622
  105OSM   C12S10722   2.103   6.875   9.270  0.2364 -0.1288  0.1816
  105OSM   H12S10723   2.179   6.953   9.247  0.9128 -0.7625  0.2270
  105OSM   H12T10724   2.003   6.923   9.266  0.6145  0.6070 -1.7527
  105OSM   C13S10725   2.112   6.768   9.151 -0.3457  0.3342 -0.5983
  105OSM   H13S10726   2.054   6.800   9.062  0.1914 -2.2420 -1.9741
  105OSM   H13T10727   2.061   6.678   9.190 -0.0399  0.9217  1.2862
  105OSM   C14S10728   2.258   6.725   9.103 -0.0507  0.2056 -0.1038
  105OSM   H14S10729   2.316   6.670   9.180 -0.0200  0.2426 -0.0997
  105OSM   H14T10730   2.323   6.814   9.086  2.2994 -1.2258  0.8922
  105OSM   C15S10731   2.254   6.629   8.982  0.5949 -0.4309 -0.2222
  105OSM   H15S10732   2.191   6.677   8.903  0.9969  0.2410 -0.1392
  105OSM   H15T10733   2.203   6.535   9.013 -1.7274  0.8514  0.0457
  105OSM   C16S10734   2.387   6.595   8.928  0.0155  0.3575  0.2523
  105OSM   H16S10735   2.389   6.502   8.867  1.3842 -1.3044  2.6526
  105OSM   H16T10736   2.456   6.572   9.011  0.5118 -3.2946 -0.9899
  105OSM   C17S10737   2.458   6.705   8.843  0.4135  0.3344 -0.8631
  105OSM   H17S10738   2.458   6.796   8.907 -0.7404 -0.7263  0.7260
  105OSM   H17T10739   2.382   6.722   8.764 -2.9812  2.5264  2.5162
  105OSM   C18S10740   2.600   6.681   8.791  0.7917  0.3247 -0.6604
  105OSM   H18S10741   2.667   6.656   8.876 -1.6873 -0.0539  1.2684
  105OSM   H18T10742   2.639   6.775   8.745  0.2917  0.4269 -0.8810
  105OSM   H18U10743   2.599   6.601   8.714  2.1479  0.2457 -0.6220
  105OSM    C1F10744   2.013   7.027  10.404 -0.1909  0.4683 -0.5214
  105OSM     OF10745   2.121   7.036  10.452 -0.6658  0.3299 -0.1604
  105OSM    C2F10746   1.930   7.152  10.390 -0.0712  0.5687 -0.5690
  105OSM    H2F10747   1.891   7.194  10.486  0.6212 -0.3240  0.1164
  105OSM    H2G10748   1.840   7.132  10.329 -0.4793 -1.5383  0.6050
  105OSM    C3F10749   2.013   7.259  10.312  0.5141 -0.6247  0.0037
  105OSM    H3F10750   2.106   7.280  10.369  0.1624  1.8161 -0.1901
  105OSM    H3G10751   1.957   7.354  10.324 -1.4621 -1.6115 -0.9493
  105OSM    C4F10752   2.041   7.225  10.168  0.3605 -0.3477 -0.2379
  105OSM    H4F10753   2.095   7.129  10.161 -0.2310 -0.6792 -0.3410
  105OSM    H4G10754   2.116   7.301  10.137 -0.0910  0.0664 -0.3185
  105OSM    C5F10755   1.916   7.246  10.083 -0.7479 -0.0298  0.7827
  105OSM    H5F10756   1.889   7.354  10.086 -0.0837  0.1926 -0.4105
  105OSM    H5G10757   1.833   7.188  10.128  0.2634 -1.0795  1.3405
  105OSM    C6F10758   1.960   7.217   9.935 -0.5496  0.1510 -1.0395
  105OSM    H6F10759   2.007   7.117   9.924  0.1107  0.1925  1.0812
  105OSM    H6G10760   2.029   7.297   9.901 -2.6693  1.4687 -2.4997
  105OSM    C7F10761   1.846   7.231   9.836  0.3789 -0.2846 -0.3630
  105OSM    H7F10762   1.781   7.319   9.854  2.0919  0.8771  0.3810
  105OSM    H7G10763   1.782   7.141   9.842  0.7744 -0.4603  2.1101
  105OSM    C8F10764   1.898   7.236   9.689  0.1986 -0.5610 -0.1262
  105OSM    H8F10765   1.821   7.213   9.612  0.2139  0.7666 -0.5806
  105OSM    H8G10766   1.973   7.155   9.677  0.8111  0.4153 -4.8345
  105OSM    C9F10767   1.944   7.380   9.650  0.0535  0.0949 -1.2663
  105OSM    H9F10768   1.924   7.465   9.716  1.1111 -0.4773 -0.1611
  105OSM   C10F10769   2.020   7.410   9.543 -0.2529 -0.6959 -0.4543
  105OSM   H10F10770   2.047   7.515   9.524  1.5407 -1.0312  0.0311
  105OSM   C11F10771   2.066   7.302   9.445 -0.2311 -0.3480  0.0114
  105OSM   H11F10772   2.015   7.204   9.456  0.5015 -0.6836  0.4937
  105OSM   H11G10773   2.175   7.284   9.453  0.3034  2.1141 -0.8471
  105OSM   C12F10774   2.048   7.350   9.296 -0.0561  0.1529  0.0051
  105OSM   H12F10775   2.131   7.423   9.283 -0.3923  0.9813  2.0596
  105OSM   H12G10776   1.944   7.389   9.287 -0.6270 -0.9959  1.2765
  105OSM   C13F10777   2.060   7.226   9.201 -0.6789 -0.1386 -0.6869
  105OSM   H13F10778   1.959   7.182   9.194 -0.1768 -1.0608 -3.2306
  105OSM   H13G10779   2.125   7.147   9.245 -0.8992 -0.3424 -0.7238
  105OSM   C14F10780   2.128   7.253   9.061 -0.6200 -0.7000 -0.1872
  105OSM   H14F10781   2.237   7.260   9.076 -0.5622 -2.6750  0.6087
  105OSM   H14G10782   2.082   7.339   9.007  1.9106  0.2402 -0.9681
  105OSM   C15F10783   2.101   7.127   8.970 -0.1192 -0.4941  0.9416
  105OSM   H15F10784   1.996   7.093   8.976 -0.5186  0.7324  1.0262
  105OSM   H15G10785   2.166   7.042   9.001  0.3332 -1.3174 -1.9689
  105OSM   C16F10786   2.149   7.158   8.823 -0.4368  0.2306 -0.0495
  105OSM   H16F10787   2.260   7.156   8.809 -0.4079 -1.8099  0.1408
  105OSM   H16G10788   2.116   7.259   8.792 -0.3338  0.1080 -0.5747
  105OSM   C17F10789   2.105   7.054   8.721  0.4240  0.2774 -0.6274
  105OSM   H17F10790   2.135   7.087   8.620  3.0471  0.3892  0.1273
  105OSM   H17G10791   1.998   7.033   8.742  0.8533 -0.8586  0.5584
  105OSM   C18F10792   2.194   6.923   8.751  0.1934 -0.2417  1.0301
  105OSM   H18F10793   2.177   6.842   8.676 -0.4010 -2.3759  3.3215
  105OSM   H18G10794   2.158   6.885   8.849 -0.0327  1.4788  1.6441
  105OSM   H18H10795   2.300   6.953   8.747 -0.3804  2.1433  2.1218
  106OSM      N10796   1.783   4.045  11.153 -0.2215 -0.2302  0.2238
  106OSM    C1510797   1.763   3.901  11.118  0.4056  0.4928 -0.0305
  106OSM   H15A10798   1.797   3.828  11.191 -1.9562 -0.0074  0.6578
  106OSM   H15B10799   1.827   3.879  11.034  0.8766 -0.5992  0.5893
  106OSM   H15C10800   1.658   3.895  11.091  0.8130  2.6802 -2.4822
  106OSM    C1410801   1.722   4.092  11.280 -0.5231  0.0876  0.1786
  106OSM   H14A10802   1.747   4.021  11.357  0.5246 -0.0811 -0.2965
  106OSM   H14B10803   1.614   4.080  11.278 -0.5709 -0.1272 -3.5351
  106OSM   H14C10804   1.759   4.183  11.324 -0.3331 -0.4636  1.1877
  106OSM    C1310805   1.928   4.059  11.165  0.4936  0.1264 -0.2551
  106OSM   H13A10806   1.972   4.014  11.077 -0.2746 -0.9882 -0.0996
  106OSM   H13B10807   1.951   4.007  11.257 -2.4811 -0.7208  0.1055
  106OSM   H13C10808   1.949   4.165  11.165  1.5515  0.0633 -4.2811
  106OSM    C1210809   1.737   4.142  11.045  0.2327 -0.2365 -0.0558
  106OSM   H12A10810   1.751   4.243  11.080 -1.8521  0.0546  0.0298
  106OSM   H12B10811   1.629   4.141  11.043  0.1245 -3.2854  1.6847
  106OSM    C1110812   1.785   4.131  10.894 -0.4982 -0.2688  0.6600
  106OSM   H11A10813   1.740   4.215  10.837  1.5747 -0.1397 -0.8740
  106OSM   H11B10814   1.749   4.035  10.849 -0.2932 -0.3365  0.6425
  106OSM      P10815   2.015   4.265  10.855 -0.2850  0.5613  0.5207
  106OSM    O1310816   1.980   4.369  10.960  0.4878 -0.6353  0.7623
  106OSM    O1410817   2.160   4.230  10.846  0.4830 -0.2839 -0.0097
  106OSM    O1110818   1.952   4.300  10.718 -0.1026  0.7416  0.6226
  106OSM    O1210819   1.929   4.132  10.892  0.5277 -0.4574 -0.3309
  106OSM    C1S10820   2.012   4.403  10.632 -0.1093  0.7262  0.1225
  106OSM    H1S10821   2.123   4.410  10.643 -0.0020  1.5235 -1.2481
  106OSM    H1T10822   1.952   4.496  10.645 -2.4844 -0.6638 -0.5095
  106OSM     NF10823   2.038   4.490  10.399  0.3412  0.0766 -0.2860
  106OSM    HNF10824   1.976   4.565  10.381  1.9600  1.9691  1.4360
  106OSM    C2S10825   1.987   4.379  10.481 -0.5103  0.3367 -1.0993
  106OSM    H2S10826   2.038   4.283  10.458  0.4668  0.9454 -1.5742
  106OSM    C3S10827   1.836   4.360  10.469 -0.6134  0.0336  0.1442
  106OSM    H3S10828   1.780   4.432  10.532 -2.0570  1.0781 -2.1837
  106OSM     O310829   1.792   4.233  10.523  0.1495  0.2280  0.6514
  106OSM    HO310830   1.859   4.220  10.591 -0.0976  1.4096  1.1344
  106OSM    C4S10831   1.785   4.375  10.333  0.3284 -0.3308  0.4104
  106OSM    H4S10832   1.766   4.480  10.307  0.4670 -0.2690  0.5487
  106OSM    C5S10833   1.761   4.285  10.235  0.2555 -0.1238  0.3862
  106OSM    H5S10834   1.772   4.176  10.248 -2.6402 -0.6409 -0.7345
  106OSM    C6S10835   1.715   4.324  10.095  0.6514  0.2207  0.0007
  106OSM    H6S10836   1.744   4.239  10.029 -3.4245 -2.3219  1.1250
  106OSM    H6T10837   1.764   4.420  10.067 -1.0578  1.2450  0.4064
  106OSM    C7S10838   1.561   4.338  10.082  0.0775  0.6002 -0.2275
  106OSM    H7S10839   1.538   4.424  10.149  0.6857 -2.5432  4.5003
  106OSM    H7T10840   1.502   4.256  10.128 -1.1598  0.6981 -1.5731
  106OSM    C8S10841   1.521   4.352   9.943  0.0788  0.6051  0.1907
  106OSM    H8S10842   1.585   4.424   9.887 -2.8719  2.5625 -0.8948
  106OSM    H8T10843   1.417   4.391   9.936  0.3821  1.3138 -0.5277
  106OSM    C9S10844   1.533   4.222   9.867 -0.1860  0.3496  0.5619
  106OSM    H9S10845   1.465   4.146   9.911 -0.6659  0.0576 -0.6211
  106OSM    H9T10846   1.637   4.183   9.860 -0.0812  0.7694 -0.4841
  106OSM   C10S10847   1.490   4.262   9.721  0.3796  0.6579  0.2807
  106OSM   H10S10848   1.541   4.356   9.691  0.6691  0.5769  0.5072
  106OSM   H10T10849   1.389   4.306   9.715  0.3644  0.5519 -0.3039
  106OSM   C11S10850   1.513   4.144   9.625  0.3706 -0.5752 -0.6276
  106OSM   H11S10851   1.417   4.089   9.639 -0.7544  1.5376  0.3800
  106OSM   H11T10852   1.588   4.078   9.674  0.9884 -1.0696 -2.1832
  106OSM   C12S10853   1.558   4.178   9.482  0.2298  0.8947 -0.4464
  106OSM   H12S10854   1.531   4.081   9.434 -0.8460  1.1989 -0.4777
  106OSM   H12T10855   1.667   4.200   9.479  0.5741 -0.6298 -0.4230
  106OSM   C13S10856   1.463   4.282   9.428 -0.2506  0.3193  0.0935
  106OSM   H13S10857   1.466   4.383   9.474 -0.0292 -0.5447  2.0554
  106OSM   H13T10858   1.362   4.242   9.453  0.8694 -1.9277  1.2599
  106OSM   C14S10859   1.478   4.300   9.268  0.6167  0.2452 -0.8531
  106OSM   H14S10860   1.483   4.199   9.222  3.1448  0.5541 -1.4036
  106OSM   H14T10861   1.582   4.338   9.269  1.7120 -2.4618  1.4329
  106OSM   C15S10862   1.367   4.391   9.197 -0.5598 -0.0426  0.2750
  106OSM   H15S10863   1.419   4.440   9.111 -3.7890 -1.5528 -2.7908
  106OSM   H15T10864   1.331   4.466   9.269 -0.2000  0.2494  0.1558
  106OSM   C16S10865   1.257   4.310   9.138  0.5881  0.0756 -0.2849
  106OSM   H16S10866   1.213   4.238   9.210 -0.7818  0.1736 -0.9934
  106OSM   H16T10867   1.299   4.250   9.054 -2.2105  1.4719 -2.8737
  106OSM   C17S10868   1.139   4.397   9.085  0.3291 -0.9399 -0.2844
  106OSM   H17S10869   1.111   4.475   9.158 -1.5911 -0.0811 -1.8564
  106OSM   H17T10870   1.052   4.332   9.062  0.1767 -0.8501  0.0386
  106OSM   C18S10871   1.167   4.477   8.964  0.2148  0.0392  0.4235
  106OSM   H18S10872   1.076   4.529   8.927 -0.6730 -0.3161  2.0079
  106OSM   H18T10873   1.195   4.401   8.888 -0.3293 -1.1269  1.3383
  106OSM   H18U10874   1.252   4.543   8.989  0.2248 -0.3975  1.6416
  106OSM    C1F10875   2.163   4.525  10.384 -0.6675  0.1294 -0.6864
  106OSM     OF10876   2.257   4.469  10.443  0.7668 -0.7020  0.0607
  106OSM    C2F10877   2.200   4.654  10.309  0.3670  0.3991 -0.2085
  106OSM    H2F10878   2.192   4.736  10.383 -1.0715  0.9180 -0.9020
  106OSM    H2G10879   2.130   4.662  10.223  1.1628  0.9073 -0.8342
  106OSM    C3F10880   2.343   4.641  10.245  1.0072  0.2574 -0.4300
  106OSM    H3F10881   2.353   4.538  10.203 -0.5608 -0.8060  1.6106
  106OSM    H3G10882   2.429   4.662  10.312  1.4667 -1.9734 -0.2323
  106OSM    C4F10883   2.360   4.737  10.128  0.7015 -0.7983 -0.6453
  106OSM    H4F10884   2.337   4.840  10.163 -1.2529 -0.2635 -3.2165
  106OSM    H4G10885   2.288   4.707  10.049  0.4952 -0.7978 -0.4601
  106OSM    C5F10886   2.504   4.737  10.072 -0.2158  0.5892  0.0371
  106OSM    H5F10887   2.517   4.631  10.041 -2.9853  0.3780 -0.6334
  106OSM    H5G10888   2.563   4.766  10.162 -0.1851  2.6669 -0.6064
  106OSM    C6F10889   2.526   4.830   9.952 -0.7730 -0.6179  0.4103
  106OSM    H6F10890   2.526   4.934   9.992 -0.3886 -1.3782  2.5193
  106OSM    H6G10891   2.441   4.822   9.881 -1.7751  1.7299  1.2547
  106OSM    C7F10892   2.657   4.819   9.878  0.0668 -0.2348  1.1543
  106OSM    H7F10893   2.740   4.798   9.949 -0.4653 -0.5276  1.6911
  106OSM    H7G10894   2.674   4.911   9.817  0.1607  0.1746  1.7870
  106OSM    C8F10895   2.655   4.703   9.778  1.0186  0.8251  0.2977
  106OSM    H8F10896   2.570   4.719   9.708  1.6973  3.6364  0.0292
  106OSM    H8G10897   2.629   4.609   9.831  3.6823 -0.3793 -0.3894
  106OSM    C9F10898   2.783   4.678   9.703  0.3450 -0.3409  0.5352
  106OSM    H9F10899   2.868   4.636   9.759  1.5629  0.1093 -0.9032
  106OSM   C10F10900   2.796   4.711   9.571 -0.0914  0.1490 -0.5536
  106OSM   H10F10901   2.887   4.695   9.511  0.3655 -0.7065  0.3275
  106OSM   C11F10902   2.687   4.775   9.481 -0.9601  0.1344 -0.0900
  106OSM   H11F10903   2.618   4.844   9.533 -1.3455 -0.0637 -0.3289
  106OSM   H11G10904   2.621   4.707   9.422 -0.1846  0.8278 -1.8191
  106OSM   C12F10905   2.769   4.871   9.387  0.2437  0.0952 -0.8576
  106OSM   H12F10906   2.853   4.821   9.334  2.2708  2.4096 -0.0145
  106OSM   H12G10907   2.819   4.954   9.442 -1.5256 -0.3690  1.6323
  106OSM   C13F10908   2.681   4.940   9.279 -0.1441  0.5700 -0.6732
  106OSM   H13F10909   2.626   5.021   9.332  1.6760  1.5708 -0.2331
  106OSM   H13G10910   2.622   4.853   9.243  2.1769 -2.3189  2.0322
  106OSM   C14F10911   2.769   5.008   9.167  0.0155 -0.5411  0.3426
  106OSM   H14F10912   2.838   5.075   9.222  0.8976 -0.3811 -0.9324
  106OSM   H14G10913   2.713   5.077   9.101  0.2535 -2.9255 -2.5794
  106OSM   C15F10914   2.851   4.910   9.078  0.1366  0.4432 -1.2696
  106OSM   H15F10915   2.785   4.828   9.043 -1.6294  1.1021  0.2965
  106OSM   H15G10916   2.932   4.875   9.146 -1.9398  0.9958  1.6855
  106OSM   C16F10917   2.911   4.989   8.962  0.4270 -0.0985 -0.2530
  106OSM   H16F10918   2.830   5.044   8.910 -1.3726 -0.7567  1.7157
  106OSM   H16G10919   2.951   4.910   8.895  0.1683  0.3192 -0.9110
  106OSM   C17F10920   3.006   5.107   8.994 -0.6468  0.6780  0.3780
  106OSM   H17F10921   3.113   5.078   8.989  0.3109  3.8995 -0.3832
  106OSM   H17G10922   2.990   5.134   9.101  0.0913 -1.3066  1.0237
  106OSM   C18F10923   2.987   5.226   8.899 -0.0268 -0.1496 -0.2008
  106OSM   H18F10924   3.031   5.206   8.799  0.3067 -0.7771  0.0678
  106OSM   H18G10925   3.041   5.314   8.940  0.0355 -0.5289  0.5354
  106OSM   H18H10926   2.879   5.252   8.894 -0.7744 -2.4927  1.8833
  107OSM      N10927   5.606   0.581  11.257 -0.1759 -0.5615 -0.1614
  107OSM    C1510928   5.655   0.686  11.340 -0.5275 -0.2619  0.4993
  107OSM   H15A10929   5.675   0.651  11.441 -0.8052  1.0336  1.0304
  107OSM   H15B10930   5.590   0.771  11.323 -0.0518  0.2054  0.9597
  107OSM   H15C10931   5.741   0.727  11.289  0.3537 -0.4997  1.7328
  107OSM    C1410932   5.695   0.467  11.287  0.5765  1.0426  0.0306
  107OSM   H14A10933   5.677   0.411  11.377  1.6700 -2.4673 -1.7557
  107OSM   H14B10934   5.800   0.491  11.281  0.9745 -0.4201  0.7184
  107OSM   H14C10935   5.678   0.391  11.211 -1.0997 -0.1248  1.4910
  107OSM    C1310936   5.472   0.535  11.299  0.5567 -0.0707  0.2462
  107OSM   H13A10937   5.464   0.509  11.403 -1.3782  0.8108  0.3626
  107OSM   H13B10938   5.445   0.446  11.244 -0.2369  0.1638  0.2436
  107OSM   H13C10939   5.397   0.611  11.281  0.4048  0.0038  1.1612
  107OSM    C1210940   5.614   0.604  11.106 -0.1142  0.2727  0.3121
  107OSM   H12A10941   5.718   0.591  11.082 -0.8138 -3.5334 -1.4207
  107OSM   H12B10942   5.581   0.706  11.090 -0.3761  0.2585  0.7407
  107OSM    C1110943   5.525   0.518  11.008  0.1409 -0.3392  0.1131
  107OSM   H11A10944   5.544   0.409  11.021  3.0637  0.1553  0.6882
  107OSM   H11B10945   5.561   0.527  10.904  1.3528 -1.0347  0.4546
  107OSM      P10946   5.319   0.669  10.949  0.1606 -0.7908  0.2115
  107OSM    O1310947   5.178   0.692  10.993 -0.4941  0.6687  0.2257
  107OSM    O1410948   5.408   0.786  10.961 -0.0717 -0.1914 -0.4315
  107OSM    O1110949   5.321   0.626  10.797  0.6503 -0.1168  0.1174
  107OSM    O1210950   5.382   0.538  11.027 -0.1287 -0.5375 -0.5498
  107OSM    C1S10951   5.269   0.496  10.774 -0.0208 -0.2778  0.3107
  107OSM    H1S10952   5.164   0.501  10.808 -0.6589  1.1574 -1.6567
  107OSM    H1T10953   5.313   0.414  10.835 -1.4027 -0.4839  1.0657
  107OSM     NF10954   5.185   0.341  10.607  0.7994  0.7998 -0.0746
  107OSM    HNF10955   5.234   0.255  10.612  0.3019  0.5158 -0.0164
  107OSM    C2S10956   5.264   0.462  10.623  0.1652  0.2708 -0.4314
  107OSM    H2S10957   5.216   0.552  10.579  0.7644  0.5151 -0.5963
  107OSM    C3S10958   5.410   0.447  10.572  0.1909  0.4212 -0.5460
  107OSM    H3S10959   5.467   0.374  10.632  2.1430  0.5814 -2.1182
  107OSM     O310960   5.485   0.564  10.602 -0.2872  1.0775 -0.0951
  107OSM    HO310961   5.434   0.611  10.668 -1.0015  2.2731 -1.4329
  107OSM    C4S10962   5.414   0.438  10.426 -0.1032  0.0494 -0.1073
  107OSM    H4S10963   5.377   0.528  10.374 -1.2229  0.7036  1.7480
  107OSM    C5S10964   5.458   0.335  10.353 -0.8358 -0.8289  0.4033
  107OSM    H5S10965   5.489   0.246  10.409  2.6135  1.1383  1.9719
  107OSM    C6S10966   5.471   0.314  10.204  0.8269  0.1100  0.0184
  107OSM    H6S10967   5.430   0.212  10.188 -0.8194  0.9442 -1.4041
  107OSM    H6T10968   5.577   0.298  10.175  0.3992 -0.5830 -1.2062
  107OSM    C7S10969   5.408   0.411  10.094 -0.4310  0.0145 -0.3824
  107OSM    H7S10970   5.436   0.515  10.121 -0.1372  0.4646 -2.3276
  107OSM    H7T10971   5.299   0.403  10.071 -0.6492  3.9112 -1.3261
  107OSM    C8S10972   5.483   0.393   9.955 -0.0898 -0.8624  0.7136
  107OSM    H8S10973   5.492   0.285   9.933  0.1634 -0.7267  0.1298
  107OSM    H8T10974   5.587   0.431   9.966 -1.5418  3.3247  2.2577
  107OSM    C9S10975   5.402   0.468   9.846 -0.3117 -0.0923  0.1907
  107OSM    H9S10976   5.432   0.574   9.861  0.6021 -0.4950  1.4352
  107OSM    H9T10977   5.293   0.448   9.858 -0.1862  0.4628  3.1299
  107OSM   C10S10978   5.448   0.434   9.705 -0.0043 -0.2726 -0.0542
  107OSM   H10S10979   5.443   0.326   9.680  0.0595 -0.2286 -0.2598
  107OSM   H10T10980   5.557   0.456   9.707  0.1836 -1.1863  1.1179
  107OSM   C11S10981   5.366   0.516   9.603 -0.1971 -0.1928 -0.3995
  107OSM   H11S10982   5.384   0.624   9.620  0.0357  0.0459 -2.0305
  107OSM   H11T10983   5.257   0.500   9.617 -0.5262  2.7640  1.3823
  107OSM   C12S10984   5.415   0.486   9.461  0.1233 -0.9410  0.4375
  107OSM   H12S10985   5.397   0.381   9.431 -2.1968 -0.2504 -0.7682
  107OSM   H12T10986   5.523   0.513   9.459 -0.5393  1.9296 -0.4956
  107OSM   C13S10987   5.340   0.551   9.349  0.7590  0.1549  1.2363
  107OSM   H13S10988   5.332   0.658   9.379 -0.5980  0.2417  0.6452
  107OSM   H13T10989   5.232   0.523   9.343  0.6482  0.8499 -1.2032
  107OSM   C14S10990   5.416   0.513   9.218 -0.6957  0.2936  0.3271
  107OSM   H14S10991   5.522   0.529   9.247 -1.1383  0.5042  1.9344
  107OSM   H14T10992   5.396   0.580   9.132  1.8596 -0.6966 -1.1279
  107OSM   C15S10993   5.401   0.376   9.169 -0.8232  0.0264  1.3451
  107OSM   H15S10994   5.294   0.347   9.155 -0.4956 -0.4066 -0.5796
  107OSM   H15T10995   5.449   0.303   9.238  0.5325 -1.1306 -0.7232
  107OSM   C16S10996   5.472   0.345   9.037 -0.8095 -0.2939 -0.1429
  107OSM   H16S10997   5.583   0.353   9.032 -1.0096  3.1792 -3.4236
  107OSM   H16T10998   5.438   0.415   8.958  0.9032 -1.8545 -2.4046
  107OSM   C17S10999   5.435   0.199   8.983 -0.1032  0.5604  0.1840
  107OSM   H17S11000   5.482   0.186   8.883  1.5556 -0.9625  1.0920
  107OSM   H17T11001   5.325   0.189   8.983  0.0399 -1.6895  1.2267
  107OSM   C18S11002   5.499   0.086   9.064 -0.3647  0.0195 -0.0981
  107OSM   H18S11003   5.607   0.075   9.041  0.1139 -0.7510  2.2131
  107OSM   H18T11004   5.459  -0.016   9.043  0.4590 -0.7846  1.9183
  107OSM   H18U11005   5.494   0.102   9.174 -1.4297 -1.6450  0.1428
  107OSM    C1F11006   5.049   0.332  10.614 -0.1634  0.1840  0.2743
  107OSM     OF11007   4.982   0.440  10.612 -0.2098 -0.1013 -0.1415
  107OSM    C2F11008   4.989   0.191  10.625  0.2211 -0.2067  0.0634
  107OSM    H2F11009   4.959   0.181  10.731 -0.0328  0.1553  0.0258
  107OSM    H2G11010   5.063   0.110  10.604 -1.4521 -1.9004  0.4212
  107OSM    C3F11011   4.878   0.175  10.526 -0.4569 -0.8154 -0.1562
  107OSM    H3F11012   4.813   0.265  10.532  0.4328 -0.1670 -0.0711
  107OSM    H3G11013   4.814   0.087  10.550 -2.7842  0.9444  0.5413
  107OSM    C4F11014   4.944   0.159  10.389  0.6884 -0.5624  0.1693
  107OSM    H4F11015   5.002   0.064  10.389 -0.5522 -1.3585 -1.1194
  107OSM    H4G11016   5.019   0.235  10.360  0.6648 -1.4539 -2.5608
  107OSM    C5F11017   4.840   0.154  10.275 -0.5074  0.0938 -0.5646
  107OSM    H5F11018   4.791   0.253  10.267 -1.3051 -0.2355  0.1813
  107OSM    H5G11019   4.761   0.078  10.292 -1.9693  1.5678 -0.5481
  107OSM    C6F11020   4.909   0.141  10.135  0.1840  0.2869  0.7786
  107OSM    H6F11021   4.961   0.043  10.138 -0.4421 -0.0560  0.6025
  107OSM    H6G11022   4.987   0.219  10.121  2.1536 -1.1247  3.1112
  107OSM    C7F11023   4.816   0.140  10.006  0.0326 -1.1640 -0.2764
  107OSM    H7F11024   4.752   0.231  10.010  0.3004 -0.8611 -1.9630
  107OSM    H7G11025   4.748   0.053  10.000 -1.2040 -0.1229 -2.5969
  107OSM    C8F11026   4.891   0.160   9.878  0.5138  0.6685  0.0934
  107OSM    H8F11027   4.829   0.134   9.789  0.6935  0.7094 -0.0444
  107OSM    H8G11028   4.968   0.080   9.877  0.5155  0.6338  1.2663
  107OSM    C9F11029   4.953   0.297   9.863  0.0950 -0.5414  0.2100
  107OSM    H9F11030   4.922   0.367   9.942 -0.1202 -1.2548  0.7710
  107OSM   C10F11031   5.036   0.334   9.765 -0.7811  0.3069  0.3529
  107OSM   H10F11032   5.090   0.427   9.789  0.0698 -0.0153 -0.2609
  107OSM   C11F11033   5.085   0.249   9.646  0.5098  0.1634  0.0443
  107OSM   H11F11034   5.092   0.144   9.682  0.1830 -0.0483 -0.5005
  107OSM   H11G11035   5.187   0.272   9.610 -0.4054  1.1074 -2.1230
  107OSM   C12F11036   4.994   0.268   9.523  0.1719  0.0049 -0.1291
  107OSM   H12F11037   4.976   0.377   9.511 -2.9445 -0.4026  0.1100
  107OSM   H12G11038   4.899   0.215   9.541  1.3670 -2.1040  0.3248
  107OSM   C13F11039   5.051   0.211   9.397 -0.1904  0.5397  0.5733
  107OSM   H13F11040   5.078   0.104   9.410 -0.3008 -0.2043 -3.8119
  107OSM   H13G11041   5.149   0.256   9.370  1.0855 -2.8245 -0.9638
  107OSM   C14F11042   4.943   0.233   9.283 -0.1716  0.0088 -0.1832
  107OSM   H14F11043   4.957   0.343   9.275  0.4368 -0.1826 -2.5604
  107OSM   H14G11044   4.845   0.206   9.328 -0.0551 -1.8334 -0.9307
  107OSM   C15F11045   4.953   0.164   9.153 -0.3592 -0.0979  0.9055
  107OSM   H15F11046   4.976   0.058   9.176  1.1185  0.1979  0.8279
  107OSM   H15G11047   5.037   0.205   9.094 -1.8141  0.8082 -0.6368
  107OSM   C16F11048   4.829   0.171   9.049 -0.2063 -0.2934 -0.0837
  107OSM   H16F11049   4.805   0.276   9.025 -0.1167 -0.1344  0.4925
  107OSM   H16G11050   4.748   0.143   9.120 -0.1370 -1.5704 -0.4859
  107OSM   C17F11051   4.845   0.071   8.937 -0.3931 -0.1573  0.3746
  107OSM   H17F11052   4.883  -0.025   8.977  0.6064  0.0606 -0.0180
  107OSM   H17G11053   4.932   0.118   8.886 -1.2285  0.2232 -0.7538
  107OSM   C18F11054   4.734   0.077   8.831  0.7250  0.0411  0.0389
  107OSM   H18F11055   4.638   0.053   8.883  0.5177  0.3295 -0.2097
  107OSM   H18G11056   4.752   0.009   8.746 -1.7729  3.2478 -3.4031
  107OSM   H18H11057   4.726   0.176   8.781  0.1128 -1.2755 -2.6073
  108OSM      N11058   1.417   5.895  11.403 -0.4881  0.0592  0.7380
  108OSM    C1511059   1.548   5.970  11.419  0.3887 -0.0683 -0.0148
  108OSM   H15A11060   1.527   6.071  11.452  0.9714 -0.4887  1.7452
  108OSM   H15B11061   1.596   5.982  11.322 -2.3466  0.6886 -1.3859
  108OSM   H15C11062   1.616   5.919  11.485 -0.4554 -0.1542  0.8014
  108OSM    C1411063   1.455   5.751  11.386  0.1288 -0.1880 -0.7252
  108OSM   H14A11064   1.370   5.685  11.379 -0.4845  0.7108 -2.2195
  108OSM   H14B11065   1.506   5.709  11.472  0.7330 -0.5211 -1.2325
  108OSM   H14C11066   1.516   5.744  11.297 -0.6297  0.6771 -1.3209
  108OSM    C1311067   1.345   5.911  11.538 -0.1668  0.3359  0.1220
  108OSM   H13A11068   1.395   5.849  11.611  2.2511  3.3285  1.2224
  108OSM   H13B11069   1.239   5.890  11.530  0.1883 -2.0205  0.7243
  108OSM   H13C11070   1.340   6.011  11.577 -0.5327 -0.7657  3.1474
  108OSM    C1211071   1.336   5.955  11.296 -0.0374  0.0738  0.4439
  108OSM   H12A11072   1.310   6.055  11.326 -2.5615  0.1759 -1.6984
  108OSM   H12B11073   1.245   5.897  11.306 -0.0493  0.3211  2.0714
  108OSM    C1111074   1.399   5.951  11.158  0.6001 -0.1416  0.2498
  108OSM   H11A11075   1.319   5.992  11.093  0.1297 -0.2201  0.7715
  108OSM   H11B11076   1.412   5.846  11.123  0.4355 -1.0205  2.6532
  108OSM      P11077   1.528   6.193  11.129 -0.1785  0.2037 -0.4790
  108OSM    O1311078   1.436   6.255  11.225 -0.6559  0.3854  0.8746
  108OSM    O1411079   1.669   6.232  11.166 -0.0490  0.7786  0.6668
  108OSM    O1111080   1.478   6.232  10.978 -0.8032  0.2760 -0.7844
  108OSM    O1211081   1.518   6.040  11.146 -0.0467  0.8433 -0.5229
  108OSM    C1S11082   1.528   6.153  10.871  0.2788 -0.7552 -1.1986
  108OSM    H1S11083   1.471   6.057  10.866  1.1801 -1.2429 -2.6285
  108OSM    H1T11084   1.637   6.140  10.882  0.8555  2.8535 -1.6013
  108OSM     NF11085   1.539   6.141  10.632 -0.7022  0.9160 -0.2234
  108OSM    HNF11086   1.623   6.164  10.585 -1.0122 -0.5832 -1.6272
  108OSM    C2S11087   1.496   6.225  10.738  0.0955 -0.5119 -0.1483
  108OSM    H2S11088   1.385   6.238  10.736  0.1155  0.9609  2.7082
  108OSM    C3S11089   1.553   6.371  10.731 -0.3616  0.3197  0.1408
  108OSM    H3S11090   1.663   6.370  10.747  0.2418  3.3402 -2.7360
  108OSM     O311091   1.509   6.458  10.839  0.5139 -0.0408  0.6479
  108OSM    HO311092   1.472   6.396  10.901 -1.7275  0.0133 -0.5371
  108OSM    C4S11093   1.510   6.430  10.605 -0.0347  0.3772  0.7021
  108OSM    H4S11094   1.402   6.449  10.594 -0.3542 -1.0301  1.2498
  108OSM    C5S11095   1.586   6.448  10.501  0.6549  0.1040 -0.0884
  108OSM    H5S11096   1.687   6.410  10.518  0.2285 -0.5902  1.0040
  108OSM    C6S11097   1.549   6.506  10.365 -0.3880  0.9409 -0.6578
  108OSM    H6S11098   1.586   6.607  10.341  5.4046 -0.6860 -0.0651
  108OSM    H6T11099   1.442   6.494  10.337 -0.5080 -0.2125  0.1959
  108OSM    C7S11100   1.615   6.428  10.250 -0.0609 -0.1964  0.2809
  108OSM    H7S11101   1.575   6.324  10.250  1.3530 -0.7735  0.7867
  108OSM    H7T11102   1.724   6.419  10.270 -0.4091 -2.2790  1.5622
  108OSM    C8S11103   1.586   6.504  10.113 -0.0143  0.8532  0.2371
  108OSM    H8S11104   1.614   6.611  10.105  1.5228  0.5647  1.5126
  108OSM    H8T11105   1.482   6.495  10.075  0.6164 -0.8230 -1.2518
  108OSM    C9S11106   1.667   6.447   9.988  0.3019  0.3791 -0.2322
  108OSM    H9S11107   1.640   6.340   9.970  1.2430  0.3948 -1.8915
  108OSM    H9T11108   1.773   6.452  10.020  0.1743 -1.2129  0.5964
  108OSM   C10S11109   1.651   6.526   9.860 -0.3447  0.0921 -0.0167
  108OSM   H10S11110   1.699   6.625   9.864 -1.6970  0.7950 -0.5884
  108OSM   H10T11111   1.541   6.544   9.853 -0.3498  0.4806  0.9018
  108OSM   C11S11112   1.687   6.444   9.737  0.0758 -0.3233  0.7021
  108OSM   H11S11113   1.638   6.344   9.729  2.2705 -1.3821 -0.2018
  108OSM   H11T11114   1.795   6.420   9.749  0.0377  0.6346  4.2633
  108OSM   C12S11115   1.658   6.523   9.606 -0.1810 -0.5458  0.1832
  108OSM   H12S11116   1.701   6.626   9.612  1.5950 -1.2569  0.4502
  108OSM   H12T11117   1.549   6.535   9.593 -0.7269 -4.0194  0.5461
  108OSM   C13S11118   1.704   6.451   9.481  0.2996  0.1215  0.1901
  108OSM   H13S11119   1.672   6.345   9.476 -0.6198  0.4722 -2.4856
  108OSM   H13T11120   1.814   6.457   9.466  0.5174 -3.2126 -0.1900
  108OSM   C14S11121   1.629   6.506   9.362 -0.1667 -0.0345  0.1589
  108OSM   H14S11122   1.636   6.617   9.361 -1.9906  0.1370  1.1945
  108OSM   H14T11123   1.521   6.485   9.380  0.0665 -0.3190  1.2753
  108OSM   C15S11124   1.695   6.450   9.222 -0.0337 -0.4723  0.5844
  108OSM   H15S11125   1.690   6.339   9.217  0.9238 -0.6420  2.4573
  108OSM   H15T11126   1.800   6.484   9.213 -0.5900  1.4450  1.0300
  108OSM   C16S11127   1.621   6.495   9.102 -0.1165 -0.3411  0.3841
  108OSM   H16S11128   1.604   6.604   9.095  1.9025 -0.0366 -0.4737
  108OSM   H16T11129   1.526   6.438   9.099  0.4700 -1.5075  1.8404
  108OSM   C17S11130   1.680   6.450   8.964  0.6400  0.1510 -0.3537
  108OSM   H17S11131   1.615   6.497   8.887  0.1766  0.6522  0.3292
  108OSM   H17T11132   1.667   6.341   8.951 -0.1525  0.4519 -2.4690
  108OSM   C18S11133   1.824   6.504   8.946 -0.1149 -0.3152  1.1619
  108OSM   H18S11134   1.850   6.513   8.839 -0.5652  1.6797  1.1696
  108OSM   H18T11135   1.906   6.459   9.006 -0.4752 -1.9214  0.4926
  108OSM   H18U11136   1.816   6.611   8.975 -0.2473  0.4228 -1.3883
  108OSM    C1F11137   1.478   6.025  10.600  0.4681 -0.6153  0.2798
  108OSM     OF11138   1.387   5.979  10.669 -0.3501 -0.0962  0.2436
  108OSM    C2F11139   1.512   5.955  10.473 -0.0171  0.3261 -0.8428
  108OSM    H2F11140   1.429   5.959  10.400  0.8703  0.9235 -1.8350
  108OSM    H2G11141   1.525   5.847  10.498 -1.9652  0.0514 -0.8412
  108OSM    C3F11142   1.639   6.001  10.407 -0.9147 -0.1117  0.3960
  108OSM    H3F11143   1.720   6.016  10.481 -0.0176 -0.1513 -0.5613
  108OSM    H3G11144   1.614   6.101  10.368 -2.9692 -0.9039 -0.4692
  108OSM    C4F11145   1.678   5.919  10.282 -0.0800  0.3135  0.6944
  108OSM    H4F11146   1.594   5.924  10.210  1.1465 -1.9758 -1.0013
  108OSM    H4G11147   1.701   5.813  10.302 -1.3930  0.1850  1.7458
  108OSM    C5F11148   1.803   5.981  10.211  0.0935 -0.6248  0.0363
  108OSM    H5F11149   1.888   5.958  10.279 -0.4725 -0.2147  0.9067
  108OSM    H5G11150   1.797   6.091  10.204  1.0313 -0.5238  0.5736
  108OSM    C6F11151   1.824   5.926  10.067  0.2828  0.6110 -0.2648
  108OSM    H6F11152   1.815   5.815  10.073 -0.4503  0.6561 -0.4283
  108OSM    H6G11153   1.924   5.949  10.024  0.5704  0.6720  0.4301
  108OSM    C7F11154   1.719   5.978   9.972  0.5564  0.2727 -0.3398
  108OSM    H7F11155   1.740   6.087   9.971 -0.5811  0.5055 -1.1213
  108OSM    H7G11156   1.611   5.973   9.999  0.3828  1.4464 -0.7527
  108OSM    C8F11157   1.738   5.924   9.827 -0.1852  0.5032  0.1326
  108OSM    H8F11158   1.641   5.925   9.772  0.7673 -0.5782 -1.6466
  108OSM    H8G11159   1.774   5.820   9.836  2.1197  1.2804  0.5336
  108OSM    C9F11160   1.853   5.972   9.744  0.1727 -0.0197 -0.2700
  108OSM    H9F11161   1.931   6.017   9.807 -0.2626 -0.4942  0.6359
  108OSM   C10F11162   1.850   5.982   9.612 -0.6338  0.5282 -0.2733
  108OSM   H10F11163   1.945   5.999   9.558 -0.3272 -0.3623 -0.0363
  108OSM   C11F11164   1.738   5.938   9.520 -0.8845  0.1941  0.3889
  108OSM   H11F11165   1.676   6.027   9.494 -0.0358  1.2021  1.6886
  108OSM   H11G11166   1.668   5.873   9.576 -0.0131 -1.3686 -0.2974
  108OSM   C12F11167   1.782   5.856   9.395 -0.1261  0.3598 -0.5185
  108OSM   H12F11168   1.693   5.796   9.368  0.4560 -1.3412  1.0851
  108OSM   H12G11169   1.858   5.781   9.427 -1.1702 -0.4832  0.0613
  108OSM   C13F11170   1.841   5.942   9.276 -0.0099 -0.9817  0.3630
  108OSM   H13F11171   1.938   5.987   9.305 -0.9554  0.0209  2.1531
  108OSM   H13G11172   1.777   6.030   9.253 -0.4843 -1.9107 -2.1944
  108OSM   C14F11173   1.868   5.856   9.155  0.6760  0.4801  0.5855
  108OSM   H14F11174   1.772   5.803   9.136  0.7929  0.4722  0.0104
  108OSM   H14G11175   1.943   5.782   9.191  1.4508  1.4165  0.9238
  108OSM   C15F11176   1.907   5.928   9.026 -0.3597  0.0406 -0.4080
  108OSM   H15F11177   1.997   5.991   9.038 -0.6969  0.7258 -1.2857
  108OSM   H15G11178   1.817   5.988   8.997 -0.8598  1.3450  3.2530
  108OSM   C16F11179   1.932   5.831   8.903  0.1925 -0.7975 -0.4976
  108OSM   H16F11180   1.834   5.784   8.881 -0.3683 -1.3510  2.7054
  108OSM   H16G11181   2.004   5.753   8.933  0.4109  0.7300  3.5175
  108OSM   C17F11182   1.979   5.900   8.770 -0.8383 -0.3266 -0.0984
  108OSM   H17F11183   1.905   5.978   8.742 -1.7957 -1.4621 -0.8216
  108OSM   H17G11184   1.986   5.830   8.684 -0.7730 -0.7869  0.2758
  108OSM   C18F11185   2.116   5.961   8.784 -0.1794 -0.7903  0.2184
  108OSM   H18F11186   2.150   6.004   8.687 -1.7079 -0.7071 -0.3002
  108OSM   H18G11187   2.188   5.884   8.821  0.1452 -0.3103  0.5927
  108OSM   H18H11188   2.110   6.050   8.849 -0.7557  1.3587 -2.5746
  109OSM      N11189   0.855   1.496  10.856 -0.2796 -0.4291  0.1621
  109OSM    C1511190   0.992   1.549  10.845 -0.5537 -0.7954 -0.5477
  109OSM   H15A11191   1.073   1.487  10.880  2.0923  0.1422 -4.3749
  109OSM   H15B11192   0.992   1.643  10.896  2.0001 -1.1997  0.3003
  109OSM   H15C11193   1.030   1.572  10.747  2.9158  2.7070  1.3477
  109OSM    C1411194   0.844   1.364  10.775 -0.5479  0.1386  0.3219
  109OSM   H14A11195   0.859   1.384  10.670 -1.1022 -3.0864 -0.4746
  109OSM   H14B11196   0.752   1.309  10.784 -0.4415 -0.1586 -0.3542
  109OSM   H14C11197   0.924   1.303  10.814 -0.4480 -0.4829 -0.8066
  109OSM    C1311198   0.841   1.467  11.002 -0.0552 -0.5247 -0.6327
  109OSM   H13A11199   0.821   1.556  11.060 -0.6669  1.1419 -3.2676
  109OSM   H13B11200   0.932   1.430  11.047  0.2002 -0.4823 -1.1153
  109OSM   H13C11201   0.751   1.409  11.021 -0.3774 -0.1553 -1.0076
  109OSM    C1211202   0.747   1.581  10.798  0.1855  0.1719  0.0212
  109OSM   H12A11203   0.663   1.513  10.788 -2.0712  2.6631  0.7915
  109OSM   H12B11204   0.768   1.594  10.693  0.8633 -1.6853 -0.1080
  109OSM    C1111205   0.704   1.710  10.861  0.0994 -0.6571  0.1803
  109OSM   H11A11206   0.662   1.676  10.958 -0.3446  0.6641  0.4662
  109OSM   H11B11207   0.610   1.761  10.833 -0.9132  0.2493  4.4187
  109OSM      P11208   0.827   1.916  10.781 -0.1587  0.1855 -0.3165
  109OSM    O1311209   0.741   2.024  10.826 -0.0525  0.3080  0.7990
  109OSM    O1411210   0.972   1.958  10.756  0.2508  0.7553 -0.0306
  109OSM    O1111211   0.766   1.852  10.653  0.1250  0.0014  0.2277
  109OSM    O1211212   0.811   1.799  10.885  0.1579 -0.4221 -0.3170
  109OSM    C1S11213   0.812   1.884  10.525 -0.3678 -0.5398  0.1466
  109OSM    H1S11214   0.921   1.865  10.529 -0.5500 -1.8809 -0.7806
  109OSM    H1T11215   0.803   1.992  10.500 -0.7305  0.2245  3.2322
  109OSM     NF11216   0.813   1.803  10.295 -0.1052 -0.4882  0.3952
  109OSM    HNF11217   0.773   1.851  10.217 -2.9762  0.1552  2.0956
  109OSM    C2S11218   0.741   1.794  10.421  0.4618  0.5844 -0.6854
  109OSM    H2S11219   0.749   1.689  10.458  0.7975  0.9560  0.3261
  109OSM    C3S11220   0.590   1.834  10.409 -0.2061 -0.2961 -0.0189
  109OSM    H3S11221   0.582   1.923  10.343 -2.1722 -0.2235  0.2645
  109OSM     O311222   0.518   1.858  10.531 -0.5238 -0.3740  0.0375
  109OSM    HO311223   0.589   1.855  10.596  0.4693  1.1050 -0.9204
  109OSM    C4S11224   0.522   1.729  10.328  0.4134  0.5482  0.5662
  109OSM    H4S11225   0.535   1.745  10.220 -2.7857  0.4618  0.0662
  109OSM    C5S11226   0.451   1.620  10.360 -0.2528 -0.2422  0.1670
  109OSM    H5S11227   0.441   1.610  10.469  0.0339  2.0940  0.4529
  109OSM    C6S11228   0.382   1.514  10.282  0.1190 -0.0847 -0.0113
  109OSM    H6S11229   0.275   1.511  10.313 -0.0892  2.0353 -0.3542
  109OSM    H6T11230   0.438   1.419  10.298  1.1343 -0.2005 -3.4728
  109OSM    C7S11231   0.390   1.541  10.126  0.9249 -0.0614 -0.7400
  109OSM    H7S11232   0.357   1.449  10.073 -1.5265  0.4045 -0.1406
  109OSM    H7T11233   0.494   1.563  10.095  0.6687  2.1993 -0.1207
  109OSM    C8S11234   0.294   1.650  10.080 -0.1399  0.6682 -0.1261
  109OSM    H8S11235   0.299   1.725  10.162 -1.3667 -0.8740  1.4579
  109OSM    H8T11236   0.189   1.613  10.079 -0.1315  0.6143  0.4314
  109OSM    C9S11237   0.333   1.714   9.946  0.4427  0.7409  0.2055
  109OSM    H9S11238   0.443   1.703   9.937  0.1543 -0.4526 -2.8676
  109OSM    H9T11239   0.296   1.818   9.936 -0.1791  0.5489  0.4276
  109OSM   C10S11240   0.280   1.633   9.827  0.7914 -0.0326 -0.0075
  109OSM   H10S11241   0.169   1.626   9.826  0.7578  0.3378  0.9579
  109OSM   H10T11242   0.317   1.529   9.826 -0.2735 -0.4606  1.7228
  109OSM   C11S11243   0.327   1.700   9.695 -0.1906 -0.0264 -0.2016
  109OSM   H11S11244   0.436   1.709   9.712 -0.6533  1.1153  2.6275
  109OSM   H11T11245   0.285   1.803   9.692  2.3531  1.0824 -0.2221
  109OSM   C12S11246   0.287   1.618   9.575  0.2815  0.1343 -0.9976
  109OSM   H12S11247   0.178   1.599   9.578  0.7651 -3.5152 -2.1123
  109OSM   H12T11248   0.320   1.513   9.583 -0.1537  0.1603  3.5568
  109OSM   C13S11249   0.324   1.695   9.447  0.7204  0.6539 -0.1161
  109OSM   H13S11250   0.434   1.703   9.445  0.8473 -0.9083 -1.0847
  109OSM   H13T11251   0.272   1.794   9.446 -0.9921 -0.1756  1.2327
  109OSM   C14S11252   0.267   1.620   9.328  0.6440 -0.1196 -0.3970
  109OSM   H14S11253   0.163   1.599   9.360  1.0827  2.0155  2.9931
  109OSM   H14T11254   0.323   1.526   9.316 -0.0683 -0.6837  0.5929
  109OSM   C15S11255   0.263   1.697   9.203 -0.9947 -0.4625 -0.1513
  109OSM   H15S11256   0.359   1.750   9.185 -1.4264  0.6557  0.7446
  109OSM   H15T11257   0.176   1.765   9.210 -0.2199  0.4041  1.4738
  109OSM   C16S11258   0.241   1.604   9.083  0.2739  0.1079  0.3764
  109OSM   H16S11259   0.326   1.534   9.070 -0.3433 -0.3293 -1.6402
  109OSM   H16T11260   0.243   1.662   8.988  1.7314  1.3482  1.1289
  109OSM   C17S11261   0.099   1.534   9.087 -0.3362  0.5675  0.7565
  109OSM   H17S11262   0.022   1.614   9.082  0.7098  1.6525  1.5631
  109OSM   H17T11263   0.083   1.479   9.182  2.8374  1.1604  1.7670
  109OSM   C18S11264   0.084   1.422   8.981  0.0642 -0.1842 -0.0771
  109OSM   H18S11265  -0.016   1.374   8.988  0.6296 -1.0777  4.4343
  109OSM   H18T11266   0.155   1.340   9.005 -0.0392  0.2008  1.6448
  109OSM   H18U11267   0.112   1.457   8.879  0.7017  1.5456  0.6601
  109OSM    C1F11268   0.939   1.770  10.287 -0.1463  0.4553 -0.0538
  109OSM     OF11269   0.974   1.669  10.352  0.1961  0.2839 -0.1816
  109OSM    C2F11270   1.032   1.846  10.192  0.4709 -0.0014 -0.0968
  109OSM    H2F11271   1.127   1.877  10.242  1.4261 -1.1744 -1.1077
  109OSM    H2G11272   0.980   1.939  10.163 -1.1559 -0.0671  2.3414
  109OSM    C3F11273   1.063   1.760  10.063 -0.0040 -0.4661  0.0060
  109OSM    H3F11274   0.966   1.722  10.025  0.6491 -1.5481 -0.6452
  109OSM    H3G11275   1.130   1.681  10.103 -0.2886  0.6227  2.9198
  109OSM    C4F11276   1.141   1.833   9.949  0.4277 -0.6089  0.0776
  109OSM    H4F11277   1.239   1.867   9.987 -0.5386  0.4411  1.7512
  109OSM    H4G11278   1.079   1.921   9.922  0.5351 -0.1951  1.1315
  109OSM    C5F11279   1.160   1.733   9.829 -0.0124 -0.6910 -0.4498
  109OSM    H5F11280   1.058   1.692   9.810 -1.1567  2.0221 -0.5382
  109OSM    H5G11281   1.211   1.642   9.867  0.1420  0.3262  1.9454
  109OSM    C6F11282   1.220   1.793   9.715 -0.3526 -0.7427 -0.2879
  109OSM    H6F11283   1.330   1.804   9.727 -0.1266 -2.0336 -0.9688
  109OSM    H6G11284   1.170   1.891   9.704  1.3850  0.6354  2.7364
  109OSM    C7F11285   1.210   1.709   9.580  0.3184 -0.2882 -0.3351
  109OSM    H7F11286   1.104   1.690   9.555  0.3908 -2.8998  1.0413
  109OSM    H7G11287   1.265   1.615   9.600 -1.9536 -1.1989  2.2532
  109OSM    C8F11288   1.273   1.784   9.457 -0.2467 -0.1546 -0.5427
  109OSM    H8F11289   1.380   1.808   9.477 -0.7627  0.4726  1.8400
  109OSM    H8G11290   1.219   1.881   9.449  1.2994  0.7564 -0.4292
  109OSM    C9F11291   1.282   1.701   9.331 -0.6144 -0.7017  0.1076
  109OSM    H9F11292   1.352   1.617   9.344 -0.9467 -0.8126  1.3701
  109OSM   C10F11293   1.225   1.716   9.209  0.3321  0.5101 -0.1836
  109OSM   H10F11294   1.235   1.633   9.138  0.1763  0.0686  0.3106
  109OSM   C11F11295   1.114   1.815   9.188  0.1901  0.1733 -0.2167
  109OSM   H11F11296   1.063   1.824   9.286  1.7304 -1.3145  0.7793
  109OSM   H11G11297   1.035   1.785   9.117 -0.4770 -2.7597  1.6011
  109OSM   C12F11298   1.170   1.945   9.134  0.9288  0.1391  0.1338
  109OSM   H12F11299   1.237   1.935   9.047 -1.3462 -0.6226 -1.6429
  109OSM   H12G11300   1.231   1.998   9.210  0.7174  0.0738  0.3515
  109OSM   C13F11301   1.057   2.040   9.099 -0.4601 -0.1156 -0.1923
  109OSM   H13F11302   0.998   2.061   9.191  0.4580  0.7314  0.2165
  109OSM   H13G11303   0.992   1.995   9.021  0.0452  0.4466 -0.9490
  109OSM   C14F11304   1.100   2.175   9.036  0.2322 -0.0960 -0.8645
  109OSM   H14F11305   1.159   2.155   8.944  1.4462 -1.0720  0.1036
  109OSM   H14G11306   1.172   2.218   9.108  0.0076 -1.6700  0.3378
  109OSM   C15F11307   0.988   2.272   9.001 -0.7657  0.1011  0.7984
  109OSM   H15F11308   1.025   2.366   8.954 -1.6981  0.1031  0.0543
  109OSM   H15G11309   0.934   2.296   9.094 -1.8243 -0.2662  0.2878
  109OSM   C16F11310   0.886   2.207   8.899  0.2728 -0.6724 -0.8067
  109OSM   H16F11311   0.839   2.128   8.962 -0.2822 -0.6402 -1.1757
  109OSM   H16G11312   0.951   2.168   8.818  2.5020 -2.2594  1.5730
  109OSM   C17F11313   0.784   2.299   8.847  0.4414  0.1940  0.1956
  109OSM   H17F11314   0.709   2.326   8.925  2.0969 -2.0601  2.7601
  109OSM   H17G11315   0.716   2.238   8.784 -0.1898  1.2695 -0.2041
  109OSM   C18F11316   0.825   2.419   8.768 -0.3734 -0.0604  0.0280
  109OSM   H18F11317   0.814   2.399   8.659 -2.7633  1.2397 -0.0465
  109OSM   H18G11318   0.931   2.446   8.785 -0.1833 -1.1173  0.6319
  109OSM   H18H11319   0.768   2.509   8.798  1.8640  1.4761 -0.0923
  110OSM      N11320   1.983   0.625  10.857  0.3606  0.0496  0.3075
  110OSM    C1511321   2.020   0.511  10.764  0.2171  0.2485 -0.6084
  110OSM   H15A11322   2.109   0.547  10.715 -0.0324  1.5221 -0.1591
  110OSM   H15B11323   1.937   0.490  10.697 -0.2866 -1.8348  0.5665
  110OSM   H15C11324   2.024   0.416  10.815 -1.5354  0.5779  0.2258
  110OSM    C1411325   2.093   0.657  10.948 -0.3179 -0.7854  0.0031
  110OSM   H14A11326   2.184   0.682  10.895 -0.4145  0.9970  0.6211
  110OSM   H14B11327   2.128   0.581  11.015  2.6231  0.8217  0.4426
  110OSM   H14C11328   2.068   0.745  11.006 -0.5792 -2.2426  2.2119
  110OSM    C1311329   1.945   0.741  10.781 -0.0488 -0.8500  0.6404
  110OSM   H13A11330   2.035   0.800  10.766 -0.2977  0.4014  3.4965
  110OSM   H13B11331   1.883   0.814  10.831  2.6890  2.7859 -0.7960
  110OSM   H13C11332   1.894   0.718  10.689 -1.2049  0.5323  0.8966
  110OSM    C1211333   1.863   0.581  10.942 -0.3657 -0.3828  0.5684
  110OSM   H12A11334   1.847   0.650  11.024  1.3492  0.8371 -0.0789
  110OSM   H12B11335   1.873   0.482  10.984 -1.1562 -1.5711 -1.8812
  110OSM    C1111336   1.734   0.566  10.869  0.8035 -0.4316  0.1720
  110OSM   H11A11337   1.708   0.649  10.799  2.6816  0.8396  0.9069
  110OSM   H11B11338   1.661   0.570  10.952  0.2090 -1.8704 -0.2460
  110OSM      P11339   1.717   0.305  10.864 -0.1230 -0.0096  0.5784
  110OSM    O1311340   1.853   0.275  10.921  0.5045 -0.1651 -0.5653
  110OSM    O1411341   1.609   0.308  10.966  0.3930  0.5091  0.1048
  110OSM    O1111342   1.679   0.214  10.749 -0.5625 -0.2037 -0.1186
  110OSM    O1211343   1.723   0.443  10.791  0.1200 -0.0877  0.7400
  110OSM    C1S11344   1.610   0.249  10.629 -0.1139  0.4064  0.3638
  110OSM    H1S11345   1.693   0.276  10.560  0.5360  2.1998  1.7942
  110OSM    H1T11346   1.537   0.332  10.636 -1.2272 -0.6062  1.1200
  110OSM     NF11347   1.486   0.152  10.424 -0.6593  0.2601  0.0900
  110OSM    HNF11348   1.390   0.174  10.408 -0.4209  1.7212  0.4891
  110OSM    C2S11349   1.532   0.127  10.566 -0.0994  0.0277 -0.4357
  110OSM    H2S11350   1.609   0.048  10.565  3.5634  3.2719 -2.4433
  110OSM    C3S11351   1.415   0.091  10.661  0.4778  0.2598 -0.2747
  110OSM    H3S11352   1.350   0.181  10.664  1.1907  1.1457 -4.8520
  110OSM     O311353   1.469   0.069  10.793 -0.4428 -0.1297  0.2908
  110OSM    HO311354   1.561   0.090  10.777 -1.0097  1.7152 -0.8050
  110OSM    C4S11355   1.346  -0.018  10.600  0.0261  0.5308 -0.4077
  110OSM    H4S11356   1.410  -0.104  10.575  0.5753  0.9898 -0.5911
  110OSM    C5S11357   1.216  -0.026  10.564 -0.1740 -0.5208 -0.6571
  110OSM    H5S11358   1.156   0.064  10.585  1.4654  0.0087  2.4289
  110OSM    C6S11359   1.164  -0.155  10.507 -0.5085  0.5514  0.6114
  110OSM    H6S11360   1.088  -0.190  10.580  1.1537 -0.5875  1.8629
  110OSM    H6T11361   1.242  -0.234  10.502 -2.0926 -1.0296 -0.5023
  110OSM    C7S11362   1.112  -0.128  10.363 -0.7021 -0.4668 -0.0987
  110OSM    H7S11363   1.043  -0.042  10.375 -0.7828 -0.4730 -0.5026
  110OSM    H7T11364   1.045  -0.212  10.335  0.6767 -1.3896 -0.7320
  110OSM    C8S11365   1.213  -0.088  10.256  0.5215  0.1555  0.5050
  110OSM    H8S11366   1.278  -0.175  10.237  0.0406  0.0553 -0.7647
  110OSM    H8T11367   1.265   0.007  10.281 -1.2099  0.9761  1.2320
  110OSM    C9S11368   1.142  -0.062  10.120 -0.8303  0.1320  0.2661
  110OSM    H9S11369   1.073   0.025  10.126 -0.9443 -0.0258  1.4141
  110OSM    H9T11370   1.081  -0.146  10.080 -0.3793 -0.1198  0.0901
  110OSM   C10S11371   1.241  -0.025  10.010 -0.6433  0.0030  0.2765
  110OSM   H10S11372   1.344  -0.065  10.010 -1.0733 -1.1617 -0.6587
  110OSM   H10T11373   1.255   0.085  10.006  1.5201 -0.2378  0.1922
  110OSM   C11S11374   1.170  -0.060   9.871  0.5051  0.3962  0.1986
  110OSM   H11S11375   1.076  -0.001   9.870 -0.9749 -1.8357 -0.5087
  110OSM   H11T11376   1.147  -0.169   9.865  1.7872  0.0847  0.7083
  110OSM   C12S11377   1.251  -0.021   9.743  0.7961 -0.1137 -0.2938
  110OSM   H12S11378   1.341  -0.087   9.746  2.3231  1.8310 -0.8014
  110OSM   H12T11379   1.277   0.086   9.759 -0.4875  0.0897  0.5561
  110OSM   C13S11380   1.177  -0.045   9.615  0.0037 -0.1880  0.1131
  110OSM   H13S11381   1.080   0.009   9.615 -0.0683 -0.3097  0.6801
  110OSM   H13T11382   1.161  -0.153   9.594 -1.0279  0.0216 -0.2520
  110OSM   C14S11383   1.255   0.004   9.490 -0.7493 -0.4026 -0.7573
  110OSM   H14S11384   1.356  -0.043   9.486  0.2848  1.7978 -2.1554
  110OSM   H14T11385   1.271   0.112   9.505 -0.9738 -0.4621 -0.0455
  110OSM   C15S11386   1.186  -0.035   9.358 -0.2698 -0.5241 -1.1056
  110OSM   H15S11387   1.094   0.026   9.353  0.1197  0.1478 -0.3478
  110OSM   H15T11388   1.154  -0.142   9.356  0.6064 -0.8497  0.3274
  110OSM   C16S11389   1.263  -0.006   9.234 -0.5089  0.0825  0.0879
  110OSM   H16S11390   1.349  -0.076   9.233  1.3839  2.2581 -0.5254
  110OSM   H16T11391   1.294   0.101   9.230  1.3145 -0.3871  0.7399
  110OSM   C17S11392   1.179  -0.019   9.106  0.1611 -0.0854  0.1167
  110OSM   H17S11393   1.098   0.057   9.107  0.7955  0.7301 -2.5143
  110OSM   H17T11394   1.127  -0.117   9.106  1.4830 -0.8693  2.2607
  110OSM   C18S11395   1.260  -0.002   8.976  0.0920 -0.2755  0.4677
  110OSM   H18S11396   1.199   0.013   8.884  0.6927  1.2884  0.2979
  110OSM   H18T11397   1.335  -0.084   8.973  0.6818  0.1901  1.8316
  110OSM   H18U11398   1.330   0.083   8.991  1.9353 -1.7269  0.4406
  110OSM    C1F11399   1.563   0.163  10.314  0.1443 -0.2048 -0.7251
  110OSM     OF11400   1.677   0.130  10.336 -0.0448 -0.0249  0.2035
  110OSM    C2F11401   1.511   0.209  10.181 -0.7267 -0.1321  0.0139
  110OSM    H2F11402   1.509   0.320  10.180 -0.2029 -0.0845 -2.2665
  110OSM    H2G11403   1.405   0.177  10.166 -0.3796 -0.6232 -1.6989
  110OSM    C3F11404   1.598   0.158  10.060 -0.6384 -0.2330  0.2416
  110OSM    H3F11405   1.587   0.048  10.043  1.6204 -0.3813 -0.6282
  110OSM    H3G11406   1.706   0.183  10.068 -1.1004  1.3189  2.6373
  110OSM    C4F11407   1.554   0.213   9.922  0.2446  0.1048 -0.0327
  110OSM    H4F11408   1.567   0.321   9.904 -1.6500  0.6164  1.3460
  110OSM    H4G11409   1.444   0.197   9.913  0.4174 -1.1434 -0.1999
  110OSM    C5F11410   1.609   0.127   9.803  0.2743  0.1195 -0.4094
  110OSM    H5F11411   1.580   0.021   9.819  2.8625 -0.5292  0.5091
  110OSM    H5G11412   1.719   0.137   9.818  0.0990 -2.2586  4.0032
  110OSM    C6F11413   1.576   0.189   9.668 -0.5598 -0.0099  0.5333
  110OSM    H6F11414   1.605   0.296   9.668 -0.7006  0.0282  0.6978
  110OSM    H6G11415   1.467   0.179   9.654 -0.8555  1.0114  1.9060
  110OSM    C7F11416   1.656   0.121   9.556  0.4210 -0.8555 -0.3442
  110OSM    H7F11417   1.625   0.014   9.551  2.1113 -1.3168 -1.6977
  110OSM    H7G11418   1.762   0.124   9.589  0.1330  2.2861  0.6311
  110OSM    C8F11419   1.641   0.183   9.420  0.4543 -0.2069  0.3161
  110OSM    H8F11420   1.664   0.291   9.426  0.1465 -0.2236  2.5996
  110OSM    H8G11421   1.538   0.184   9.380  0.5147  2.9449  0.0050
  110OSM    C9F11422   1.738   0.125   9.318  0.6408 -0.2103  0.2356
  110OSM    H9F11423   1.808   0.050   9.359 -0.4953 -0.4975  1.7440
  110OSM   C10F11424   1.737   0.151   9.188  0.7149  0.1010 -0.8080
  110OSM   H10F11425   1.805   0.090   9.126  0.0838 -0.0510 -1.3606
  110OSM   C11F11426   1.642   0.248   9.128 -0.6046  0.0825 -0.3469
  110OSM   H11F11427   1.601   0.320   9.202 -0.2400 -0.1972  0.1321
  110OSM   H11G11428   1.557   0.188   9.089 -2.5885  2.5962 -0.1653
  110OSM   C12F11429   1.697   0.340   9.013 -0.3859  0.5589 -0.2811
  110OSM   H12F11430   1.728   0.287   8.921 -0.9498 -1.0728  0.4391
  110OSM   H12G11431   1.786   0.393   9.052  1.6221 -3.0089  0.4289
  110OSM   C13F11432   1.591   0.441   8.968 -0.2701 -0.2516 -0.3300
  110OSM   H13F11433   1.540   0.496   9.050  0.5089  0.2746 -0.1947
  110OSM   H13G11434   1.517   0.380   8.911  1.6800 -0.5183 -2.7587
  110OSM   C14F11435   1.652   0.550   8.872  0.4227  0.2822  0.3988
  110OSM   H14F11436   1.709   0.630   8.924  1.1578  0.4041 -0.5773
  110OSM   H14G11437   1.567   0.600   8.821  0.6904  1.7439  1.3119
  110OSM   C15F11438   1.742   0.488   8.762 -0.4464  0.0567 -0.7055
  110OSM   H15F11439   1.683   0.419   8.697  0.9799 -1.4565 -0.4724
  110OSM   H15G11440   1.825   0.431   8.809  0.4207  1.1841 -0.8239
  110OSM   C16F11441   1.782   0.609   8.673  0.1817 -0.0905 -0.1057
  110OSM   H16F11442   1.833   0.686   8.736  0.2334  0.5077 -0.8585
  110OSM   H16G11443   1.687   0.658   8.641  0.1978 -0.6862 -1.0844
  110OSM   C17F11444   1.877   0.577   8.566 -0.3630 -0.2332  0.7717
  110OSM   H17F11445   1.843   0.492   8.504  2.2967  0.7031 -2.2681
  110OSM   H17G11446   1.973   0.549   8.615 -0.1122  0.4038  0.6547
  110OSM   C18F11447   1.908   0.698   8.471  0.6013 -0.3002 -0.1864
  110OSM   H18F11448   1.994   0.660   8.412  0.9533 -1.0793  0.7965
  110OSM   H18G11449   1.953   0.782   8.529 -0.8742 -0.7128  1.6378
  110OSM   H18H11450   1.821   0.739   8.418  0.8617  1.7727  0.9064
  111OSM      N11451   5.528   4.391  10.763 -0.1392  0.0606 -0.3516
  111OSM    C1511452   5.675   4.374  10.745  0.8904  0.0727  0.0164
  111OSM   H15A11453   5.725   4.468  10.762 -2.1763  2.1200 -1.1822
  111OSM   H15B11454   5.698   4.341  10.645 -1.8085  0.8839 -0.9834
  111OSM   H15C11455   5.719   4.302  10.811 -0.2551 -1.1389 -0.5041
  111OSM    C1411456   5.494   4.420  10.912  0.5174  0.0168  0.6905
  111OSM   H14A11457   5.519   4.520  10.943 -0.3438  0.8752 -1.1926
  111OSM   H14B11458   5.537   4.346  10.978 -2.6180 -2.2328  0.4329
  111OSM   H14C11459   5.388   4.421  10.929 -0.0743 -3.1338 -1.7813
  111OSM    C1311460   5.482   4.513  10.680 -0.1182  0.0713 -0.7552
  111OSM   H13A11461   5.541   4.601  10.699  0.1081 -0.7049  2.7948
  111OSM   H13B11462   5.379   4.539  10.704  0.3491  1.1437  0.2184
  111OSM   H13C11463   5.495   4.488  10.576  0.8922  1.9031 -1.1126
  111OSM    C1211464   5.465   4.265  10.725  0.6863  0.5878  0.0475
  111OSM   H12A11465   5.506   4.189  10.790  3.6134 -0.4791 -2.8233
  111OSM   H12B11466   5.498   4.233  10.628 -1.9500  0.7682 -0.9908
  111OSM    C1111467   5.315   4.250  10.712  0.6816  0.0679  0.5802
  111OSM   H11A11468   5.288   4.152  10.668  0.0899 -0.1124  1.3354
  111OSM   H11B11469   5.282   4.325  10.636 -0.8415 -2.0569 -0.9747
  111OSM      P11470   5.102   4.247  10.875 -0.4615 -0.0018 -0.2309
  111OSM    O1311471   5.079   4.128  10.962 -0.0619 -0.3971  0.6315
  111OSM    O1411472   5.070   4.381  10.929  0.3671  0.1447 -0.5193
  111OSM    O1111473   5.024   4.232  10.736 -0.6666  0.1411 -0.3001
  111OSM    O1211474   5.261   4.257  10.842 -0.0096  0.4554 -0.0264
  111OSM    C1S11475   5.001   4.098  10.691 -0.6554 -1.3493 -0.3590
  111OSM    H1S11476   4.931   4.047  10.760  0.1720 -3.0502 -0.7376
  111OSM    H1T11477   5.097   4.043  10.688  0.5927  0.7651 -1.5179
  111OSM     NF11478   4.889   3.963  10.530  1.0248  0.6570  0.0067
  111OSM    HNF11479   4.943   3.897  10.478 -0.4906  1.5858 -2.9474
  111OSM    C2S11480   4.934   4.098  10.550  0.3605  0.0826 -0.2111
  111OSM    H2S11481   4.847   4.167  10.556  1.2303  1.0993  2.0809
  111OSM    C3S11482   5.029   4.168  10.442  0.4159  0.1046 -0.4997
  111OSM    H3S11483   5.128   4.120  10.426  0.7696  0.8631 -0.6148
  111OSM     O311484   5.054   4.309  10.477 -0.1543  0.0592 -0.0334
  111OSM    HO311485   5.014   4.319  10.564 -0.4166  2.6872 -0.3840
  111OSM    C4S11486   4.971   4.159  10.304 -0.4253 -0.1316  0.6083
  111OSM    H4S11487   4.986   4.061  10.255  0.3716  0.7101 -0.9044
  111OSM    C5S11488   4.910   4.261  10.232  0.3525  0.6704 -1.0195
  111OSM    H5S11489   4.915   4.364  10.272 -0.2181  0.2396  0.1922
  111OSM    C6S11490   4.849   4.252  10.091 -0.1947  1.2832 -0.3093
  111OSM    H6S11491   4.908   4.295  10.007  0.4682  0.0905 -0.4632
  111OSM    H6T11492   4.749   4.300  10.089 -0.7425  0.2683  1.0406
  111OSM    C7S11493   4.810   4.103  10.058 -0.2281 -0.5783  0.1327
  111OSM    H7S11494   4.739   4.064  10.133 -2.2613 -0.3318 -1.5750
  111OSM    H7T11495   4.903   4.043  10.045  0.3922  0.2481  0.6105
  111OSM    C8S11496   4.740   4.095   9.921 -0.5784 -0.2186  0.1330
  111OSM    H8S11497   4.646   4.154   9.918 -0.2130  0.3386 -0.9772
  111OSM    H8T11498   4.713   3.991   9.891  1.1649 -1.0166  1.1729
  111OSM    C9S11499   4.825   4.146   9.803  0.1141  0.4516 -0.0908
  111OSM    H9S11500   4.931   4.117   9.816 -0.2861 -1.1294 -0.1884
  111OSM    H9T11501   4.824   4.257   9.794  0.4891  0.5510  0.9544
  111OSM   C10S11502   4.769   4.107   9.663  0.1503  0.6238  0.2888
  111OSM   H10S11503   4.662   4.133   9.656 -0.6023 -1.9880  0.8428
  111OSM   H10T11504   4.782   3.996   9.666  1.1889  0.7409  0.4297
  111OSM   C11S11505   4.852   4.176   9.549 -0.4361  0.3642 -0.1341
  111OSM   H11S11506   4.961   4.154   9.555 -0.2012  1.6439  0.7776
  111OSM   H11T11507   4.832   4.284   9.566 -0.2644  0.6449 -1.5718
  111OSM   C12S11508   4.785   4.137   9.419  0.0876  0.4324  0.7943
  111OSM   H12S11509   4.678   4.165   9.432 -0.0165  0.6993 -0.5147
  111OSM   H12T11510   4.799   4.030   9.393  1.2784  0.9470 -0.8345
  111OSM   C13S11511   4.836   4.212   9.288  0.6456  0.4181  0.3438
  111OSM   H13S11512   4.918   4.165   9.230  1.4505  2.9982 -0.7547
  111OSM   H13T11513   4.872   4.314   9.312 -1.4656  1.7578 -1.7750
  111OSM   C14S11514   4.707   4.227   9.197  0.2186 -0.7365  0.7972
  111OSM   H14S11515   4.618   4.256   9.256 -0.3997 -0.1134 -0.4081
  111OSM   H14T11516   4.689   4.133   9.141 -0.5302 -0.9239  1.3425
  111OSM   C15S11517   4.723   4.342   9.100 -0.6650 -0.1616  0.1129
  111OSM   H15S11518   4.825   4.339   9.056 -0.5005  1.9437  0.2176
  111OSM   H15T11519   4.724   4.445   9.142  2.5314 -0.0148 -0.0646
  111OSM   C16S11520   4.616   4.340   8.992 -0.0789 -1.0150 -0.3683
  111OSM   H16S11521   4.618   4.238   8.947  1.2790 -1.3265  0.3550
  111OSM   H16T11522   4.647   4.402   8.905  0.9564 -2.4631 -1.0694
  111OSM   C17S11523   4.485   4.401   9.030  0.2490  0.5339 -0.1480
  111OSM   H17S11524   4.500   4.511   9.033 -0.7639  0.6551  0.7149
  111OSM   H17T11525   4.452   4.372   9.131  0.1589 -0.4048 -0.4360
  111OSM   C18S11526   4.367   4.363   8.938  0.5275 -0.0288 -0.2190
  111OSM   H18S11527   4.357   4.426   8.847 -1.1740 -1.7560 -1.2978
  111OSM   H18T11528   4.273   4.367   8.996  2.0971 -1.3524  2.6241
  111OSM   H18U11529   4.383   4.256   8.911 -2.0299 -1.3174  2.7928
  111OSM    C1F11530   4.780   3.912  10.584 -1.1334 -0.3821  0.2888
  111OSM     OF11531   4.723   3.972  10.678 -0.2998  0.7905 -0.4700
  111OSM    C2F11532   4.742   3.775  10.530  0.0792 -0.0654  0.5548
  111OSM    H2F11533   4.753   3.711  10.619  1.7997 -0.4128  0.1169
  111OSM    H2G11534   4.809   3.745  10.447 -1.2998 -0.5141 -0.4225
  111OSM    C3F11535   4.592   3.777  10.484  0.1416  0.4183 -0.2032
  111OSM    H3F11536   4.527   3.789  10.574 -0.9172 -0.8752 -0.7478
  111OSM    H3G11537   4.564   3.673  10.455  1.5408  0.2021 -0.8263
  111OSM    C4F11538   4.551   3.886  10.377  0.8350  0.2820 -0.0089
  111OSM    H4F11539   4.634   3.892  10.303 -0.4024  0.2105 -1.4657
  111OSM    H4G11540   4.544   3.983  10.430  0.1657  0.0263  0.3911
  111OSM    C5F11541   4.419   3.860  10.298 -0.0487  0.1452 -0.3978
  111OSM    H5F11542   4.330   3.873  10.364 -0.1580  0.7048 -0.6464
  111OSM    H5G11543   4.411   3.751  10.276 -2.7333 -0.5291  2.9733
  111OSM    C6F11544   4.410   3.938  10.169 -0.7870  0.4091  0.1571
  111OSM    H6F11545   4.507   3.942  10.116 -1.0540 -3.2160 -0.8460
  111OSM    H6G11546   4.381   4.043  10.191 -0.6299  1.0126 -2.2561
  111OSM    C7F11547   4.307   3.884  10.073 -0.4719  1.2645  0.3601
  111OSM    H7F11548   4.212   3.856  10.125  0.6758 -1.2254  1.3048
  111OSM    H7G11549   4.351   3.799  10.017  0.9134  2.3135 -0.1974
  111OSM    C8F11550   4.277   3.984   9.954 -0.1473  0.8675 -0.1530
  111OSM    H8F11551   4.237   3.932   9.865  0.3550  1.4778 -0.7535
  111OSM    H8G11552   4.372   4.036   9.930  0.4965  1.0017  2.3708
  111OSM    C9F11553   4.172   4.078  10.000 -0.3466 -0.4130  0.2864
  111OSM    H9F11554   4.073   4.033  10.017 -1.4864  1.2071 -1.6536
  111OSM   C10F11555   4.181   4.207  10.025  0.5431 -0.6508 -0.7299
  111OSM   H10F11556   4.093   4.261  10.065  1.5478  0.6345 -0.1779
  111OSM   C11F11557   4.307   4.295  10.001  0.3709  0.2573  0.0023
  111OSM   H11F11558   4.396   4.238  10.035 -1.3989 -2.2709  0.6487
  111OSM   H11G11559   4.298   4.392  10.055 -0.6087  0.3259 -0.2610
  111OSM   C12F11560   4.323   4.342   9.856  0.2887 -0.3063  0.2429
  111OSM   H12F11561   4.227   4.377   9.813 -0.1569 -0.8358  0.7833
  111OSM   H12G11562   4.356   4.251   9.801  1.3188  0.0821  0.2036
  111OSM   C13F11563   4.428   4.449   9.836  0.3661 -0.5762  0.3810
  111OSM   H13F11564   4.516   4.418   9.897  0.0000  0.0547  1.2458
  111OSM   H13G11565   4.382   4.543   9.874  0.4668 -0.2109 -0.3786
  111OSM   C14F11566   4.472   4.448   9.685 -0.3585 -0.5161  0.0406
  111OSM   H14F11567   4.387   4.478   9.621  0.6239  2.6311  0.0846
  111OSM   H14G11568   4.499   4.341   9.667  0.4733 -0.6792  1.9727
  111OSM   C15F11569   4.594   4.541   9.649  1.0603 -0.1742 -0.2192
  111OSM   H15F11570   4.680   4.498   9.706  0.9894  0.8275  0.6791
  111OSM   H15G11571   4.569   4.642   9.688 -0.0068 -0.6832  0.4755
  111OSM   C16F11572   4.622   4.546   9.502 -0.5674 -0.2114  0.8914
  111OSM   H16F11573   4.671   4.451   9.473  1.1452  0.2869  1.9861
  111OSM   H16G11574   4.701   4.624   9.492 -1.3936  0.6432  0.8378
  111OSM   C17F11575   4.504   4.581   9.411  0.1556 -0.5711  0.0892
  111OSM   H17F11576   4.419   4.616   9.474 -0.7883  0.3953 -1.6334
  111OSM   H17G11577   4.465   4.490   9.360 -1.2318  1.1100 -2.0744
  111OSM   C18F11578   4.517   4.690   9.299  0.8671 -0.3925  0.2849
  111OSM   H18F11579   4.427   4.697   9.235 -0.0868 -0.8812  1.5194
  111OSM   H18G11580   4.611   4.679   9.242  0.4048  1.4520 -0.9141
  111OSM   H18H11581   4.527   4.784   9.357  0.5563 -1.1153  1.5732
  112OSM      N11582   4.215   6.059  11.324  0.3265 -0.3243 -0.0620
  112OSM    C1511583   4.296   5.946  11.383  0.2000 -0.5678  0.2001
  112OSM   H15A11584   4.282   5.856  11.326  0.8664 -0.0629 -0.7941
  112OSM   H15B11585   4.264   5.933  11.485 -2.6922  0.3596 -0.4812
  112OSM   H15C11586   4.402   5.966  11.372  0.1019 -0.8517 -1.5545
  112OSM    C1411587   4.070   6.020  11.335 -0.3516 -0.3579 -0.8457
  112OSM   H14A11588   4.060   5.931  11.274  0.8017 -0.0199 -1.5513
  112OSM   H14B11589   4.007   6.101  11.302  0.0161 -0.0488 -0.7888
  112OSM   H14C11590   4.042   5.998  11.437  0.5816 -1.2075 -0.7511
  112OSM    C1311591   4.242   6.182  11.402 -0.0905 -0.4408  0.4524
  112OSM   H13A11592   4.161   6.251  11.381  0.4544 -0.3253 -1.3746
  112OSM   H13B11593   4.331   6.230  11.365 -0.9764  1.7801  0.9736
  112OSM   H13C11594   4.256   6.163  11.507  0.9677  1.1905  0.6499
  112OSM    C1211595   4.248   6.082  11.178 -0.3324 -0.7537  0.1679
  112OSM   H12A11596   4.197   6.166  11.132  1.0507  0.3871  0.6227
  112OSM   H12B11597   4.220   5.997  11.117 -1.3263  1.8184 -3.3677
  112OSM    C1111598   4.401   6.107  11.151 -0.2395  0.4261  0.2152
  112OSM   H11A11599   4.398   6.111  11.040 -1.7553 -0.8374  0.1593
  112OSM   H11B11600   4.464   6.017  11.165 -0.5279  0.0927 -0.5499
  112OSM      P11601   4.588   6.285  11.171  0.0578  0.0977  0.1003
  112OSM    O1311602   4.624   6.404  11.256  0.3281 -0.2411 -0.2488
  112OSM    O1411603   4.688   6.177  11.165  0.0329  0.0615  0.2456
  112OSM    O1111604   4.555   6.330  11.025  0.2678  0.1489 -0.6384
  112OSM    O1211605   4.455   6.218  11.217  0.4895 -0.3754  0.0815
  112OSM    C1S11606   4.436   6.408  10.995 -0.4681 -0.1638 -0.5253
  112OSM    H1S11607   4.444   6.504  11.051  0.0031  0.7243 -2.0370
  112OSM    H1T11608   4.341   6.363  11.030 -0.0389 -0.9203 -0.3067
  112OSM     NF11609   4.331   6.551  10.831  0.0157 -0.5989 -0.2379
  112OSM    HNF11610   4.235   6.534  10.810  0.2416 -1.6272 -0.4559
  112OSM    C2S11611   4.426   6.439  10.847  0.0642 -0.3208 -0.2913
  112OSM    H2S11612   4.525   6.469  10.807 -0.0402 -0.8085 -0.9281
  112OSM    C3S11613   4.395   6.299  10.780 -0.4917 -0.1614  0.4514
  112OSM    H3S11614   4.312   6.248  10.833  0.8277 -1.8315  0.9900
  112OSM     O311615   4.502   6.206  10.792 -0.1456  0.2249  0.4480
  112OSM    HO311616   4.566   6.235  10.858  1.2251  0.2172 -0.8129
  112OSM    C4S11617   4.369   6.317  10.637  0.0354 -0.2776  0.4600
  112OSM    H4S11618   4.458   6.339  10.576  1.3531 -0.0230  2.4049
  112OSM    C5S11619   4.251   6.308  10.573  0.2490 -0.8317 -0.2770
  112OSM    H5S11620   4.160   6.302  10.635  0.3255 -1.4024 -0.2131
  112OSM    C6S11621   4.224   6.319  10.429  0.4845 -0.2637  0.3046
  112OSM    H6S11622   4.228   6.422  10.388 -0.2235  0.5155  2.1077
  112OSM    H6T11623   4.124   6.277  10.403  0.4579  0.0142 -0.0532
  112OSM    C7S11624   4.328   6.230  10.345 -0.4986 -0.0859  0.0770
  112OSM    H7S11625   4.338   6.126  10.382 -1.2849 -0.1160  0.2213
  112OSM    H7T11626   4.430   6.270  10.363  0.8616 -2.2924 -2.0881
  112OSM    C8S11627   4.298   6.253  10.191 -0.1922 -0.0133  0.5875
  112OSM    H8S11628   4.278   6.360  10.167  3.0321  0.3557 -1.0416
  112OSM    H8T11629   4.213   6.190  10.158  0.5444  0.8731 -3.6349
  112OSM    C9S11630   4.414   6.207  10.096 -0.1469 -0.5540  0.7782
  112OSM    H9S11631   4.422   6.097  10.110  1.0203 -0.5021  0.6447
  112OSM    H9T11632   4.512   6.250  10.125 -0.1404  0.7880 -1.0444
  112OSM   C10S11633   4.388   6.248   9.951 -0.5025 -0.6040 -0.1457
  112OSM   H10S11634   4.485   6.226   9.902  0.3352 -0.5733  1.4241
  112OSM   H10T11635   4.374   6.357   9.939 -2.3660 -0.9868 -1.9661
  112OSM   C11S11636   4.284   6.166   9.874 -0.1589 -0.3093  0.3540
  112OSM   H11S11637   4.184   6.177   9.921  0.2855  0.2976  1.1887
  112OSM   H11T11638   4.312   6.060   9.890  1.1989 -0.0850 -0.3944
  112OSM   C12S11639   4.280   6.192   9.720 -0.4490  0.1926 -1.0524
  112OSM   H12S11640   4.182   6.150   9.690  0.5749 -1.5787 -2.1135
  112OSM   H12T11641   4.354   6.123   9.674  0.1951  1.1606 -1.4791
  112OSM   C13S11642   4.275   6.341   9.674 -0.5632  0.5572 -0.3353
  112OSM   H13S11643   4.366   6.391   9.714 -0.7978  2.2361 -1.7829
  112OSM   H13T11644   4.188   6.382   9.729  0.7844  3.6186 -0.3010
  112OSM   C14S11645   4.259   6.354   9.520  0.1294 -0.4614  0.5632
  112OSM   H14S11646   4.348   6.313   9.469  0.1948 -0.2047  0.4673
  112OSM   H14T11647   4.250   6.460   9.488  0.5456 -0.8503 -0.9279
  112OSM   C15S11648   4.125   6.287   9.459 -0.6239 -0.2475 -0.1350
  112OSM   H15S11649   4.030   6.327   9.499 -0.7423 -0.5629 -0.0989
  112OSM   H15T11650   4.135   6.178   9.479 -2.7976 -0.2642  1.1023
  112OSM   C16S11651   4.114   6.321   9.309 -0.6380  0.9254  0.0021
  112OSM   H16S11652   4.166   6.416   9.283 -2.6839  1.3200 -3.1233
  112OSM   H16T11653   4.009   6.338   9.277 -0.0699  0.8418 -2.0369
  112OSM   C17S11654   4.158   6.207   9.222  0.4481 -0.0346 -0.1308
  112OSM   H17S11655   4.095   6.123   9.255  0.4801  0.3506  0.9343
  112OSM   H17T11656   4.260   6.176   9.253  0.5093  1.0416  0.8328
  112OSM   C18S11657   4.156   6.224   9.070 -0.2005  0.2060  0.0586
  112OSM   H18S11658   4.216   6.152   9.011  0.9938  1.0279  0.2462
  112OSM   H18T11659   4.198   6.322   9.041  1.0762  0.1540  1.6187
  112OSM   H18U11660   4.048   6.229   9.044 -1.0742  0.9679  3.3297
  112OSM    C1F11661   4.377   6.674  10.864 -0.3599 -0.1167  0.1989
  112OSM     OF11662   4.485   6.686  10.920 -0.3450 -0.3379  0.0027
  112OSM    C2F11663   4.295   6.784  10.815 -0.6243 -0.7593  0.3870
  112OSM    H2F11664   4.263   6.836  10.908  1.6165 -3.7131  3.0000
  112OSM    H2G11665   4.204   6.736  10.772 -1.1565 -1.5069  2.2877
  112OSM    C3F11666   4.371   6.895  10.722 -0.0833  0.2231 -0.5046
  112OSM    H3F11667   4.457   6.931  10.781 -0.9969  1.0792  0.3308
  112OSM    H3G11668   4.301   6.977  10.697 -0.1286  0.3097 -0.0988
  112OSM    C4F11669   4.431   6.823  10.589  0.1493 -0.3522 -0.7746
  112OSM    H4F11670   4.506   6.747  10.619 -1.5995 -1.2728  1.6363
  112OSM    H4G11671   4.491   6.905  10.544  1.5660 -0.6000  0.5660
  112OSM    C5F11672   4.331   6.764  10.486 -0.4019  1.0095 -0.1266
  112OSM    H5F11673   4.263   6.840  10.441 -1.0353  0.8872  0.6019
  112OSM    H5G11674   4.271   6.685  10.535  0.0136  0.1331 -1.0001
  112OSM    C6F11675   4.400   6.705  10.363 -0.2390  0.1572  0.2044
  112OSM    H6F11676   4.332   6.636  10.309  0.2367  0.0385 -0.2617
  112OSM    H6G11677   4.488   6.644  10.395 -0.1173  0.0298 -0.3566
  112OSM    C7F11678   4.438   6.810  10.266 -0.7551 -0.1545 -0.3433
  112OSM    H7F11679   4.516   6.875  10.312  1.9168 -2.9544 -0.6293
  112OSM    H7G11680   4.344   6.862  10.239 -0.7838  1.8945  3.0375
  112OSM    C8F11681   4.505   6.750  10.138 -0.1517  0.0095  0.8592
  112OSM    H8F11682   4.598   6.696  10.168  0.6588  0.0279 -1.4286
  112OSM    H8G11683   4.540   6.832  10.072  2.7062 -0.0249  2.1649
  112OSM    C9F11684   4.420   6.654  10.057 -0.1563  0.2247  0.3475
  112OSM    H9F11685   4.476   6.560  10.049 -1.0608 -0.1572 -2.2259
  112OSM   C10F11686   4.308   6.675   9.985  0.3944 -0.5679  0.1333
  112OSM   H10F11687   4.263   6.589   9.933 -1.5194  0.7306 -0.4965
  112OSM   C11F11688   4.224   6.799   9.961 -0.6898 -0.2817 -0.1863
  112OSM   H11F11689   4.264   6.876  10.030 -1.2688 -0.3164  0.1908
  112OSM   H11G11690   4.118   6.774   9.981 -0.5264 -1.3710 -0.5643
  112OSM   C12F11691   4.225   6.872   9.824 -0.1647  0.3112 -0.0208
  112OSM   H12F11692   4.328   6.886   9.783 -0.0386  0.1337  0.2312
  112OSM   H12G11693   4.178   6.973   9.821 -0.3710  0.2488  0.7359
  112OSM   C13F11694   4.145   6.781   9.730  0.4143 -1.0325  0.3281
  112OSM   H13F11695   4.046   6.761   9.778  0.5246  1.4334  1.7681
  112OSM   H13G11696   4.190   6.681   9.718  0.5253 -0.9682  0.2089
  112OSM   C14F11697   4.104   6.835   9.586 -0.9916  0.0339  0.3882
  112OSM   H14F11698   4.202   6.870   9.546 -1.2027  0.9507  0.6558
  112OSM   H14G11699   4.039   6.924   9.595  0.6760  1.4358 -0.8135
  112OSM   C15F11700   4.034   6.737   9.486 -0.1567  0.6553 -0.0944
  112OSM   H15F11701   3.928   6.718   9.512 -0.0207  0.7904  0.5840
  112OSM   H15G11702   4.080   6.637   9.505 -1.1230  0.3371  0.6284
  112OSM   C16F11703   4.044   6.770   9.340 -0.0863  0.5619  0.6265
  112OSM   H16F11704   3.992   6.696   9.275  0.9384  2.2213 -2.3118
  112OSM   H16G11705   4.150   6.768   9.307 -0.1968 -0.3673  0.2985
  112OSM   C17F11706   3.994   6.911   9.286 -0.1584 -0.3654  0.1225
  112OSM   H17F11707   4.070   6.991   9.302 -0.1002 -0.2502 -0.7013
  112OSM   H17G11708   3.905   6.930   9.349 -0.5404 -2.6335  0.3536
  112OSM   C18F11709   3.976   6.910   9.138  0.4897  0.0274  0.0759
  112OSM   H18F11710   3.900   6.839   9.098 -1.0885  1.6412  0.1150
  112OSM   H18G11711   4.073   6.897   9.085  0.7174 -0.4236  0.5863
  112OSM   H18H11712   3.931   7.003   9.100 -2.7840 -1.3800  0.1704
  113OSM      N11713   6.718   4.702  11.358  0.0127 -0.0913 -0.0828
  113OSM    C1511714   6.803   4.595  11.426 -0.1118  0.2575  0.4833
  113OSM   H15A11715   6.767   4.590  11.527 -1.1215 -1.7213  0.0662
  113OSM   H15B11716   6.909   4.600  11.403 -0.4447  1.2944 -0.9820
  113OSM   H15C11717   6.785   4.502  11.374  2.8113 -1.5815  2.4025
  113OSM    C1411718   6.574   4.659  11.375 -0.3520  0.4119 -0.6816
  113OSM   H14A11719   6.573   4.563  11.325  4.4547  0.5955 -1.6517
  113OSM   H14B11720   6.511   4.735  11.330  2.4294  1.1895 -3.6876
  113OSM   H14C11721   6.543   4.645  11.477 -0.2818  0.6456 -0.6264
  113OSM    C1311722   6.730   4.838  11.424 -0.4084  0.6852 -0.2930
  113OSM   H13A11723   6.633   4.883  11.406 -0.5808  0.1614 -0.7071
  113OSM   H13B11724   6.809   4.899  11.382  0.9609  0.7420  2.2076
  113OSM   H13C11725   6.737   4.828  11.531  1.5440  0.0875 -0.4498
  113OSM    C1211726   6.759   4.715  11.208 -0.2655  0.0569  0.3099
  113OSM   H12A11727   6.759   4.618  11.159  1.6293  0.3329 -0.3233
  113OSM   H12B11728   6.862   4.748  11.211  1.0868 -3.6005  0.2588
  113OSM    C1111729   6.658   4.812  11.128 -0.4255  0.2436  0.2407
  113OSM   H11A11730   6.556   4.808  11.171 -0.2700  1.4230  0.7538
  113OSM   H11B11731   6.654   4.768  11.026  0.5099  1.6869 -0.4465
  113OSM      P11732   6.648   5.069  11.163  0.0693 -0.1757 -0.1127
  113OSM    O1311733   6.499   5.049  11.178 -0.3042 -0.5154  0.3745
  113OSM    O1411734   6.721   5.126  11.278  0.3913 -0.1987  0.3640
  113OSM    O1111735   6.659   5.171  11.035  0.5330  0.2100 -0.2221
  113OSM    O1211736   6.714   4.937  11.117 -0.2735 -0.4037 -0.9941
  113OSM    C1S11737   6.674   5.121  10.899 -0.0147  0.1061 -0.9468
  113OSM    H1S11738   6.626   5.020  10.896  0.4625 -0.2709  1.7216
  113OSM    H1T11739   6.782   5.098  10.896 -0.1699 -1.4976  2.3510
  113OSM     NF11740   6.680   5.168  10.663 -0.1814 -0.2218  0.4165
  113OSM    HNF11741   6.771   5.196  10.633  0.2458  1.0703  2.6819
  113OSM    C2S11742   6.639   5.228  10.786 -1.3607 -0.6127  0.5571
  113OSM    H2S11743   6.528   5.228  10.781 -1.3845 -1.8563  0.7257
  113OSM    C3S11744   6.696   5.366  10.812  0.2442 -0.5308  0.2471
  113OSM    H3S11745   6.807   5.364  10.820  0.3725  0.8211 -0.8607
  113OSM     O311746   6.652   5.422  10.929 -0.7738  0.3780 -0.2289
  113OSM    HO311747   6.614   5.344  10.971 -0.2709  0.9202  1.3027
  113OSM    C4S11748   6.669   5.460  10.704  0.3216 -0.8365 -0.3778
  113OSM    H4S11749   6.565   5.490  10.684  0.9472  2.9963  1.1750
  113OSM    C5S11750   6.760   5.526  10.626 -0.2987 -0.6063 -0.4372
  113OSM    H5S11751   6.867   5.502  10.635 -0.6738 -1.7119  1.8217
  113OSM    C6S11752   6.718   5.620  10.517 -0.2028  0.6930 -0.3744
  113OSM    H6S11753   6.784   5.710  10.518  0.8963 -0.0535  1.5653
  113OSM    H6T11754   6.616   5.660  10.532  0.5660  1.7064  3.2343
  113OSM    C7S11755   6.744   5.560  10.377 -1.0306  0.5991 -0.1525
  113OSM    H7S11756   6.676   5.478  10.346  1.3242 -0.6892 -2.2271
  113OSM    H7T11757   6.849   5.525  10.374  0.1001  3.6030  0.6831
  113OSM    C8S11758   6.728   5.665  10.272  0.4238  0.3951  0.6587
  113OSM    H8S11759   6.815   5.734  10.275 -0.0911  1.0644  0.5343
  113OSM    H8T11760   6.635   5.719  10.299 -0.6741 -2.0763  2.1182
  113OSM    C9S11761   6.724   5.616  10.118  0.8466 -0.4486 -0.0483
  113OSM    H9S11762   6.651   5.533  10.109  0.0498  0.3576 -1.3568
  113OSM    H9T11763   6.821   5.572  10.087 -0.0813 -2.2474 -0.5382
  113OSM   C10S11764   6.674   5.730  10.027 -0.5510  0.4243 -0.5003
  113OSM   H10S11765   6.748   5.813  10.020  0.1903  0.1296  2.6205
  113OSM   H10T11766   6.586   5.774  10.078  0.6674  0.2788  1.8887
  113OSM   C11S11767   6.650   5.677   9.883 -0.0524 -1.0369 -0.7981
  113OSM   H11S11768   6.546   5.637   9.884 -0.0952 -1.0470  1.9921
  113OSM   H11T11769   6.727   5.604   9.850  1.2482 -1.0089  1.9094
  113OSM   C12S11770   6.650   5.794   9.778 -0.3751  0.2711  0.4787
  113OSM   H12S11771   6.733   5.864   9.800 -0.1576  0.7422 -1.5986
  113OSM   H12T11772   6.560   5.859   9.782 -1.2036 -0.6876 -1.4408
  113OSM   C13S11773   6.674   5.743   9.627 -0.0531  0.1972  0.0912
  113OSM   H13S11774   6.583   5.684   9.601  1.2997 -0.6084 -3.3624
  113OSM   H13T11775   6.769   5.686   9.629  0.6177  1.1410 -1.9848
  113OSM   C14S11776   6.693   5.855   9.528  0.1673 -0.2990 -0.1526
  113OSM   H14S11777   6.776   5.918   9.567 -0.6131 -1.3119  3.5757
  113OSM   H14T11778   6.601   5.915   9.544 -0.8868 -1.5518 -1.2387
  113OSM   C15S11779   6.731   5.811   9.382  0.1334 -0.8752 -0.9715
  113OSM   H15S11780   6.652   5.740   9.350 -3.2559  1.8764  0.6769
  113OSM   H15T11781   6.826   5.754   9.372  0.8476  0.3866 -1.4987
  113OSM   C16S11782   6.726   5.929   9.283  0.0001  0.5785  0.5128
  113OSM   H16S11783   6.797   6.004   9.322  0.1289  1.3420 -1.0975
  113OSM   H16T11784   6.626   5.977   9.276 -0.6261 -0.3671  2.3458
  113OSM   C17S11785   6.759   5.881   9.139  0.1361  0.1136 -0.4170
  113OSM   H17S11786   6.697   5.791   9.118  1.7469 -1.7480  2.1886
  113OSM   H17T11787   6.867   5.859   9.124  0.6506  3.2527 -2.3964
  113OSM   C18S11788   6.741   5.990   9.025 -0.2015 -0.0579  0.1681
  113OSM   H18S11789   6.631   5.998   9.015 -0.3189  0.0995  1.4700
  113OSM   H18T11790   6.793   5.959   8.931  0.5294  0.5513  0.3639
  113OSM   H18U11791   6.782   6.087   9.059  2.8372 -1.6869  1.5793
  113OSM    C1F11792   6.627   5.068  10.598  0.2663 -0.4646  0.3982
  113OSM     OF11793   6.524   5.013  10.632 -0.5239 -0.4831 -1.0810
  113OSM    C2F11794   6.695   5.028  10.461 -0.2241 -0.2043 -0.1527
  113OSM    H2F11795   6.701   4.918  10.444 -1.5500 -0.2151 -0.6654
  113OSM    H2G11796   6.801   5.062  10.466  0.2509 -1.1957 -2.3059
  113OSM    C3F11797   6.632   5.098  10.341  0.3755 -1.0683  0.1541
  113OSM    H3F11798   6.613   5.205  10.366  3.4335 -0.4072  0.1466
  113OSM    H3G11799   6.534   5.050  10.322 -0.5789  0.9115 -0.1581
  113OSM    C4F11800   6.728   5.106  10.224 -0.0626  0.1144 -0.2773
  113OSM    H4F11801   6.749   5.007  10.178  1.6408 -0.5699  1.7710
  113OSM    H4G11802   6.830   5.142  10.250  1.0990 -3.5068  0.7395
  113OSM    C5F11803   6.687   5.214  10.120 -0.2955  0.2928  0.2424
  113OSM    H5F11804   6.727   5.314  10.145  0.3177  0.1486 -0.1403
  113OSM    H5G11805   6.577   5.220  10.136 -0.1916  0.4845  0.8952
  113OSM    C6F11806   6.727   5.174   9.978 -0.0842 -0.1570  0.3072
  113OSM    H6F11807   6.660   5.091   9.948  0.1442 -0.9362  1.8211
  113OSM    H6G11808   6.829   5.131   9.990  1.5051  3.3461  0.6552
  113OSM    C7F11809   6.728   5.283   9.864  0.1566  0.2430 -0.1664
  113OSM    H7F11810   6.785   5.373   9.895  0.4277 -0.6053  1.9818
  113OSM    H7G11811   6.623   5.313   9.844  0.7477  3.0408  0.4681
  113OSM    C8F11812   6.785   5.234   9.729  0.0315 -0.2344  0.0783
  113OSM    H8F11813   6.799   5.324   9.667 -1.1761  0.1372  0.3138
  113OSM    H8G11814   6.703   5.176   9.682 -1.3057  2.4001 -1.0308
  113OSM    C9F11815   6.914   5.155   9.720  0.4817 -0.0703 -0.8335
  113OSM    H9F11816   6.957   5.147   9.820  0.7027  0.4926 -0.8784
  113OSM   C10F11817   6.982   5.116   9.607  0.4165 -0.3926 -1.0704
  113OSM   H10F11818   7.067   5.048   9.624  0.3014 -0.8533 -2.2270
  113OSM   C11F11819   6.931   5.132   9.469 -0.8020 -0.0634 -0.1371
  113OSM   H11F11820   7.006   5.199   9.422  1.8882 -0.8400  2.7682
  113OSM   H11G11821   6.826   5.168   9.462 -0.6358  0.2949 -0.8662
  113OSM   C12F11822   6.939   4.992   9.398 -0.9727 -0.1198  0.7985
  113OSM   H12F11823   6.859   4.928   9.441  0.6487 -2.4512  0.5976
  113OSM   H12G11824   7.037   4.942   9.414 -0.7304  0.1701  0.2489
  113OSM   C13F11825   6.919   5.000   9.244  0.8007 -0.7577 -0.2120
  113OSM   H13F11826   6.996   5.053   9.184 -0.0189 -0.4119 -0.9833
  113OSM   H13G11827   6.830   5.064   9.226  2.2271  1.8104  1.2449
  113OSM   C14F11828   6.900   4.863   9.186 -0.1622  0.7898 -0.3298
  113OSM   H14F11829   6.800   4.829   9.220 -0.3449 -1.5984 -2.9103
  113OSM   H14G11830   6.974   4.790   9.226  1.8165  1.9130 -1.7480
  113OSM   C15F11831   6.907   4.858   9.032 -0.3971  0.2675  0.8377
  113OSM   H15F11832   7.014   4.870   9.002 -0.5965 -1.1999 -0.6474
  113OSM   H15G11833   6.848   4.941   8.989 -0.7675 -1.7196 -3.0112
  113OSM   C16F11834   6.856   4.713   8.980 -0.0287  0.3111  0.6046
  113OSM   H16F11835   6.748   4.694   8.999  0.3423 -3.0923 -0.1406
  113OSM   H16G11836   6.917   4.637   9.034  0.4275 -1.4397 -2.1723
  113OSM   C17F11837   6.864   4.690   8.826  0.5370  0.0813 -0.6030
  113OSM   H17F11838   6.961   4.726   8.787  1.6182 -1.8223  0.1906
  113OSM   H17G11839   6.791   4.750   8.767  1.0126 -1.4888 -2.9569
  113OSM   C18F11840   6.848   4.554   8.768  0.4408  0.8699  0.4357
  113OSM   H18F11841   6.859   4.545   8.658 -0.4253 -0.3081  0.4181
  113OSM   H18G11842   6.752   4.512   8.806  1.0592 -1.1578 -0.0930
  113OSM   H18H11843   6.933   4.495   8.810  0.5545  0.9032  0.2527
  114OSM      N11844   1.394   1.739  11.260 -0.8404 -0.7295  0.6221
  114OSM    C1511845   1.339   1.623  11.331 -0.0674 -0.6505  0.0900
  114OSM   H15A11846   1.244   1.589  11.292  0.1812 -1.6397  0.3061
  114OSM   H15B11847   1.328   1.637  11.437 -2.4329 -0.5319 -0.1317
  114OSM   H15C11848   1.403   1.538  11.315 -0.3495 -1.1123  1.2951
  114OSM    C1411849   1.300   1.859  11.281 -0.5259  0.7285 -0.1850
  114OSM   H14A11850   1.270   1.866  11.385  0.3488  3.2356 -0.0137
  114OSM   H14B11851   1.220   1.856  11.208  0.8811 -0.1622 -1.7619
  114OSM   H14C11852   1.352   1.952  11.262  1.1791 -0.2597 -0.5072
  114OSM    C1311853   1.530   1.778  11.317  0.0427 -1.1137  0.1349
  114OSM   H13A11854   1.524   1.820  11.417  2.4932  0.8379 -0.4234
  114OSM   H13B11855   1.589   1.835  11.247 -0.7593 -0.9986 -0.4581
  114OSM   H13C11856   1.598   1.695  11.331  1.8686  0.4801  1.2590
  114OSM    C1211857   1.412   1.709  11.111 -0.2446  0.1591  0.8224
  114OSM   H12A11858   1.485   1.629  11.102 -2.4232 -1.7558 -1.3497
  114OSM   H12B11859   1.455   1.790  11.055  0.3991 -1.3114 -0.9201
  114OSM    C1111860   1.287   1.648  11.041  0.3948 -0.0728  0.4636
  114OSM   H11A11861   1.307   1.660  10.932 -1.3460  1.4228  0.2680
  114OSM   H11B11862   1.193   1.705  11.056 -0.0921 -0.4696 -0.9145
  114OSM      P11863   1.339   1.386  11.018 -0.2222 -0.1485 -0.2295
  114OSM    O1311864   1.460   1.388  11.096 -0.2417 -0.0848 -0.3781
  114OSM    O1411865   1.245   1.270  11.009 -0.8725 -0.0499  0.4339
  114OSM    O1111866   1.385   1.432  10.878  0.5181  0.5827  0.6847
  114OSM    O1211867   1.252   1.510  11.060 -1.0878 -0.0648  0.4203
  114OSM    C1S11868   1.339   1.359  10.759  0.3707  1.1218 -0.4795
  114OSM    H1S11869   1.233   1.391  10.744 -0.1542  1.1418  2.6652
  114OSM    H1T11870   1.359   1.250  10.774  0.2114  1.0135 -1.0284
  114OSM     NF11871   1.378   1.299  10.520 -0.4379 -0.4723  0.0376
  114OSM    HNF11872   1.434   1.224  10.487 -0.4728  0.4715 -2.3460
  114OSM    C2S11873   1.423   1.386  10.632  0.0589 -0.8201  0.9122
  114OSM    H2S11874   1.409   1.491  10.598 -1.3510 -1.0875  0.6020
  114OSM    C3S11875   1.575   1.373  10.664 -0.5509  0.3701  0.1402
  114OSM    H3S11876   1.584   1.266  10.694  0.7471  0.3798 -0.1891
  114OSM     O311877   1.608   1.470  10.764 -0.4841 -0.3657  0.1299
  114OSM    HO311878   1.522   1.491  10.802 -0.9980 -2.4712  0.2536
  114OSM    C4S11879   1.650   1.390  10.533 -0.2317 -0.2027 -0.3173
  114OSM    H4S11880   1.683   1.293  10.493  1.1794 -0.2922  0.9731
  114OSM    C5S11881   1.709   1.498  10.487 -0.8182 -0.0755  0.3130
  114OSM    H5S11882   1.695   1.596  10.536  0.8947  0.6869 -0.6488
  114OSM    C6S11883   1.787   1.508  10.361 -0.5687  0.4714  0.3301
  114OSM    H6S11884   1.889   1.548  10.379 -0.5923  0.9648 -0.5674
  114OSM    H6T11885   1.736   1.585  10.299  0.7499  0.1620 -1.2000
  114OSM    C7S11886   1.789   1.382  10.274 -0.1691  0.9495  0.1252
  114OSM    H7S11887   1.690   1.332  10.279 -1.6415  3.7726  2.9313
  114OSM    H7T11888   1.860   1.310  10.320 -0.8513  0.3109  0.1916
  114OSM    C8S11889   1.841   1.399  10.124  0.0442 -0.7333  0.3710
  114OSM    H8S11890   1.929   1.465  10.114 -0.2813 -0.2702  0.5538
  114OSM    H8T11891   1.760   1.442  10.061 -1.2028 -0.8413  1.8567
  114OSM    C9S11892   1.878   1.264  10.064  0.1466  0.7898 -0.4020
  114OSM    H9S11893   1.786   1.202  10.066  0.9180 -0.4665  2.4065
  114OSM    H9T11894   1.964   1.220  10.119  1.3972  2.3751 -1.0158
  114OSM   C10S11895   1.936   1.282   9.926  0.2205 -0.1797 -0.2932
  114OSM   H10S11896   2.047   1.290   9.935  0.0476  0.7529  1.4265
  114OSM   H10T11897   1.893   1.376   9.887 -0.6186 -0.0799  0.8349
  114OSM   C11S11898   1.911   1.169   9.823  0.7682 -0.1715  0.1859
  114OSM   H11S11899   1.800   1.158   9.815  0.7057 -1.9156  2.3117
  114OSM   H11T11900   1.947   1.071   9.861  0.5074 -0.5516 -0.5247
  114OSM   C12S11901   1.988   1.193   9.691  0.1681 -0.2947 -0.3653
  114OSM   H12S11902   2.078   1.253   9.715  1.0366 -1.9889  0.8373
  114OSM   H12T11903   1.919   1.249   9.625  2.9117  3.1680 -0.5755
  114OSM   C13S11904   2.039   1.063   9.623 -0.6876  0.1704  0.1081
  114OSM   H13S11905   1.950   0.998   9.630 -1.5258  1.2543 -0.2551
  114OSM   H13T11906   2.122   1.018   9.683 -1.1496 -0.1277  0.5386
  114OSM   C14S11907   2.082   1.077   9.478 -0.5059 -0.2120 -0.1864
  114OSM   H14S11908   2.152   0.999   9.441  0.8931  0.0649  1.7505
  114OSM   H14T11909   2.135   1.172   9.458  1.2982 -1.6431 -2.9735
  114OSM   C15S11910   1.957   1.089   9.386  0.2210 -0.6478 -0.7076
  114OSM   H15S11911   1.894   1.176   9.415 -1.1376 -2.0287  0.7571
  114OSM   H15T11912   1.896   0.997   9.397 -1.6246  0.7365  1.9195
  114OSM   C16S11913   1.988   1.094   9.234 -0.8814  0.0586 -0.7348
  114OSM   H16S11914   2.056   1.179   9.209 -1.6231  1.4406  1.5796
  114OSM   H16T11915   1.888   1.114   9.190 -0.8603  1.4374 -0.2190
  114OSM   C17S11916   2.015   0.956   9.174 -0.6389  0.5450 -1.6928
  114OSM   H17S11917   1.930   0.892   9.208 -0.6838  2.0355  1.2938
  114OSM   H17T11918   2.107   0.911   9.216 -2.2740 -2.6405 -1.1934
  114OSM   C18S11919   2.012   0.959   9.022 -0.2534  0.2769 -0.5260
  114OSM   H18S11920   1.912   0.999   8.996 -0.4091 -0.4337 -1.0384
  114OSM   H18T11921   2.028   0.859   8.978  0.9747  0.5244 -0.6864
  114OSM   H18U11922   2.091   1.029   8.987 -0.5999  1.1217  0.3129
  114OSM    C1F11923   1.262   1.332  10.454 -0.0017  0.1437 -0.0213
  114OSM     OF11924   1.195   1.433  10.473  0.3172  0.0465  0.1578
  114OSM    C2F11925   1.214   1.238  10.353  0.1591  0.3209  0.2363
  114OSM    H2F11926   1.120   1.191  10.390  1.0318 -1.5625  0.1995
  114OSM    H2G11927   1.277   1.149  10.334 -2.3306 -1.3164 -1.0056
  114OSM    C3F11928   1.210   1.311  10.211 -0.5466 -0.1550 -0.5838
  114OSM    H3F11929   1.133   1.389  10.226 -0.7425 -0.8670  3.0372
  114OSM    H3G11930   1.181   1.243  10.128  0.2616  1.5772 -2.3819
  114OSM    C4F11931   1.341   1.358  10.158 -0.4307  0.2545 -0.2891
  114OSM    H4F11932   1.417   1.278  10.171 -1.7774 -0.8380  1.3831
  114OSM    H4G11933   1.377   1.449  10.211 -0.2710 -0.3293  0.6363
  114OSM    C5F11934   1.342   1.396  10.006 -1.0506 -0.2401 -0.1339
  114OSM    H5F11935   1.325   1.504   9.987 -1.9760 -0.2411  0.6254
  114OSM    H5G11936   1.259   1.336   9.963 -1.8739 -0.8361  2.1190
  114OSM    C6F11937   1.474   1.346   9.934  0.0486  0.4816  0.0531
  114OSM    H6F11938   1.483   1.235   9.931  0.5072  0.4673  1.1693
  114OSM    H6G11939   1.558   1.384   9.997  1.4640  0.2315 -1.6169
  114OSM    C7F11940   1.472   1.399   9.792 -0.0664 -1.3126 -0.1603
  114OSM    H7F11941   1.499   1.506   9.795 -3.5679 -0.1290 -3.3836
  114OSM    H7G11942   1.365   1.391   9.763 -0.1183 -0.9512 -0.0745
  114OSM    C8F11943   1.572   1.326   9.698  0.7433  0.2362 -0.1270
  114OSM    H8F11944   1.554   1.217   9.687  0.1662  0.1535  1.4378
  114OSM    H8G11945   1.668   1.345   9.750  2.0898 -2.6859 -1.3475
  114OSM    C9F11946   1.563   1.389   9.562  0.5468 -0.6546  1.0675
  114OSM    H9F11947   1.633   1.473   9.546 -0.4578 -0.1375 -1.0184
  114OSM   C10F11948   1.477   1.356   9.465 -0.0577 -0.4311 -0.1408
  114OSM   H10F11949   1.489   1.399   9.364 -0.2916 -0.4125 -0.1625
  114OSM   C11F11950   1.371   1.252   9.463 -0.2784  0.3879 -0.2696
  114OSM   H11F11951   1.355   1.212   9.565 -0.1280  1.6096  0.2533
  114OSM   H11G11952   1.403   1.163   9.404 -0.9302  0.9789 -1.5573
  114OSM   C12F11953   1.247   1.315   9.408  1.0667  0.1748 -0.2152
  114OSM   H12F11954   1.214   1.403   9.468 -0.8360 -1.1886  0.8554
  114OSM   H12G11955   1.167   1.239   9.418 -1.8036  3.0048 -0.0279
  114OSM   C13F11956   1.256   1.339   9.252 -0.1251 -0.1056 -0.0454
  114OSM   H13F11957   1.288   1.239   9.215  1.9280  0.8473 -1.0145
  114OSM   H13G11958   1.341   1.409   9.240 -1.5788  1.6216 -0.5266
  114OSM   C14F11959   1.125   1.382   9.183  0.1990  0.2662  0.2629
  114OSM   H14F11960   1.071   1.470   9.225 -4.3875 -0.1752 -3.7914
  114OSM   H14G11961   1.066   1.293   9.211  0.3668 -0.2123 -0.8651
  114OSM   C15F11962   1.141   1.392   9.029 -0.2727  0.2628 -0.3430
  114OSM   H15F11963   1.236   1.447   9.010 -0.2936 -0.3789 -2.6409
  114OSM   H15G11964   1.059   1.453   8.985  0.5225  0.8103 -1.0937
  114OSM   C16F11965   1.152   1.261   8.950 -0.3939 -1.0457  0.2328
  114OSM   H16F11966   1.072   1.206   9.004 -0.2126 -1.2338  0.3116
  114OSM   H16G11967   1.248   1.208   8.969 -0.6588 -1.4856  0.3772
  114OSM   C17F11968   1.129   1.271   8.794  0.4413 -0.1930  0.0916
  114OSM   H17F11969   1.218   1.326   8.756  1.2237 -0.4854  1.4436
  114OSM   H17G11970   1.040   1.335   8.775  1.4422  1.4364  0.6133
  114OSM   C18F11971   1.112   1.133   8.734  0.0237  0.0945  0.0013
  114OSM   H18F11972   1.185   1.056   8.768 -2.0171 -1.6034  0.7315
  114OSM   H18G11973   1.122   1.138   8.623  1.4787 -1.4010  0.0274
  114OSM   H18H11974   1.014   1.092   8.765  1.2814 -1.4797  2.1354
  115OSM      N11975   1.210   4.842  11.333 -1.3822 -0.2649  0.9437
  115OSM    C1511976   1.204   4.962  11.256 -0.2910  0.4475  0.0284
  115OSM   H15A11977   1.131   4.976  11.177  1.3422 -1.0983 -1.8333
  115OSM   H15B11978   1.296   4.986  11.206 -1.6675  2.6799 -1.6446
  115OSM   H15C11979   1.180   5.043  11.324 -0.4870 -1.2633  2.1217
  115OSM    C1411980   1.315   4.859  11.447  0.3303 -0.1772 -0.3908
  115OSM   H14A11981   1.416   4.876  11.413 -0.1463  3.9173 -0.2598
  115OSM   H14B11982   1.324   4.776  11.516  1.3185 -2.0304 -2.5973
  115OSM   H14C11983   1.291   4.944  11.510 -0.1605 -1.2741  0.9638
  115OSM    C1311984   1.081   4.809  11.390  0.4214 -0.3991  0.7608
  115OSM   H13A11985   1.058   4.878  11.469  1.3883 -0.0313  0.7325
  115OSM   H13B11986   1.069   4.707  11.422  2.8640 -1.2734 -0.8535
  115OSM   H13C11987   1.007   4.819  11.311  1.5626 -0.1742 -0.3115
  115OSM    C1211988   1.258   4.722  11.250 -0.1823 -0.0452 -0.0479
  115OSM   H12A11989   1.292   4.640  11.313  0.5069  0.4899  0.2873
  115OSM   H12B11990   1.351   4.751  11.204  0.0495 -1.9100 -0.8599
  115OSM    C1111991   1.164   4.664  11.147  0.0088  0.4291  0.3313
  115OSM   H11A11992   1.070   4.624  11.192  0.3212  0.7288  1.2636
  115OSM   H11B11993   1.217   4.587  11.088  0.5229  0.9308  0.1365
  115OSM      P11994   1.199   4.810  10.927  0.1589  0.6981  0.5394
  115OSM    O1311995   1.162   4.953  10.896 -0.2955  0.8575  0.2302
  115OSM    O1411996   1.340   4.765  10.945 -0.6888  0.2518  0.0330
  115OSM    O1111997   1.145   4.712  10.819  0.1983  0.4075  0.3004
  115OSM    O1211998   1.115   4.760  11.052 -0.6261  0.5364 -0.8929
  115OSM    C1S11999   1.187   4.722  10.681  0.1942  0.5017 -0.4844
  115OSM    H1S12000   1.267   4.647  10.664  1.3720  1.6854 -0.3516
  115OSM    H1T12001   1.226   4.824  10.658  1.8166 -0.3381 -1.5917
  115OSM     NF12002   1.140   4.638  10.449 -0.2293  0.2539 -0.0582
  115OSM    HNF12003   1.131   4.700  10.371 -0.9049 -2.4716 -2.3188
  115OSM    C2S12004   1.077   4.666  10.577 -0.0045  0.7360  0.2271
  115OSM    H2S12005   1.039   4.574  10.627  0.1212  1.0665  0.9363
  115OSM    C3S12006   0.975   4.780  10.569  0.0897 -0.4900  1.1918
  115OSM    H3S12007   1.040   4.869  10.552  1.6060 -1.4539  1.7324
  115OSM     O312008   0.900   4.805  10.686  0.0607 -0.2197  0.2454
  115OSM    HO312009   0.960   4.771  10.753  2.5240  1.7155 -0.8115
  115OSM    C4S12010   0.880   4.767  10.451  0.2829 -0.4152 -0.5818
  115OSM    H4S12011   0.922   4.835  10.374  1.8949  0.0982  0.6936
  115OSM    C5S12012   0.759   4.709  10.435  0.4415  0.3589 -0.0679
  115OSM    H5S12013   0.717   4.653  10.520  0.8400  1.0759  0.6122
  115OSM    C6S12014   0.673   4.718  10.310 -0.5773  0.2262 -0.3049
  115OSM    H6S12015   0.568   4.747  10.330 -1.0061  0.1089 -2.1726
  115OSM    H6T12016   0.664   4.611  10.279 -0.1506 -0.1191  0.6915
  115OSM    C7S12017   0.730   4.796  10.188 -0.6468  0.9570 -0.2844
  115OSM    H7S12018   0.837   4.770  10.175 -0.9535 -0.2281 -0.5757
  115OSM    H7T12019   0.727   4.905  10.208 -0.0765  1.2108 -1.4895
  115OSM    C8S12020   0.655   4.759  10.065  1.0373  0.0634 -0.2133
  115OSM    H8S12021   0.556   4.808  10.074  0.2830 -1.3501 -0.7293
  115OSM    H8T12022   0.630   4.651  10.061  1.5618 -0.0358 -2.8044
  115OSM    C9S12023   0.728   4.789   9.939  0.1853 -0.0104 -0.3715
  115OSM    H9S12024   0.825   4.736   9.945  0.8326  1.2128  0.4602
  115OSM    H9T12025   0.761   4.894   9.958  0.2938 -0.1869  0.4406
  115OSM   C10S12026   0.652   4.777   9.807 -0.2639 -0.9345  0.6968
  115OSM   H10S12027   0.545   4.775   9.836 -0.5620 -2.4583 -0.3655
  115OSM   H10T12028   0.669   4.680   9.756  0.6734  0.4164 -1.7289
  115OSM   C11S12029   0.679   4.884   9.707 -0.3824  0.0376 -0.1519
  115OSM   H11S12030   0.788   4.882   9.690 -0.2306 -1.9355  0.8125
  115OSM   H11T12031   0.655   4.977   9.763 -3.5789 -0.9378  0.3521
  115OSM   C12S12032   0.592   4.883   9.586 -0.3260 -0.2938  0.0870
  115OSM   H12S12033   0.635   4.966   9.527  0.8398 -1.7852 -1.2337
  115OSM   H12T12034   0.488   4.907   9.618 -0.2898 -2.8417  2.5699
  115OSM   C13S12035   0.585   4.756   9.515 -0.9808  0.1737  0.2928
  115OSM   H13S12036   0.522   4.680   9.566 -0.4231 -0.1780  0.4749
  115OSM   H13T12037   0.686   4.716   9.494 -0.5692  0.9368  0.7416
  115OSM   C14S12038   0.524   4.775   9.374  0.2442  0.2030 -0.4503
  115OSM   H14S12039   0.420   4.814   9.373  0.3971  0.6197 -0.2838
  115OSM   H14T12040   0.514   4.674   9.329  0.2191  0.2705 -0.5945
  115OSM   C15S12041   0.599   4.868   9.280  0.6283  1.0800 -0.6419
  115OSM   H15S12042   0.707   4.842   9.273  0.6592  0.1173  2.0681
  115OSM   H15T12043   0.598   4.962   9.340  1.6014 -0.2718  1.6703
  115OSM   C16S12044   0.539   4.886   9.137 -0.8035 -0.5131 -0.2071
  115OSM   H16S12045   0.429   4.884   9.150 -0.4817 -2.3189  4.1965
  115OSM   H16T12046   0.561   4.798   9.073 -3.6872 -0.9636 -0.7052
  115OSM   C17S12047   0.602   5.008   9.065  0.4388  0.5460 -0.2544
  115OSM   H17S12048   0.682   4.961   9.004  0.6309  0.8621 -0.2518
  115OSM   H17T12049   0.656   5.080   9.130  1.0032  0.1342 -0.2724
  115OSM   C18S12050   0.497   5.069   8.973 -0.4083 -0.4474  0.1582
  115OSM   H18S12051   0.409   5.105   9.030  0.0894  0.7687  0.2078
  115OSM   H18T12052   0.465   4.979   8.917  2.9879 -1.2215 -0.8065
  115OSM   H18U12053   0.539   5.150   8.908 -1.2403  0.4861  0.7550
  115OSM    C1F12054   1.221   4.536  10.428  0.1269 -0.2517  0.3783
  115OSM     OF12055   1.251   4.470  10.525  0.1397  0.2172  0.7955
  115OSM    C2F12056   1.276   4.505  10.291  0.1837  0.6096  0.5770
  115OSM    H2F12057   1.364   4.438  10.302  1.2906  2.0270  0.5262
  115OSM    H2G12058   1.314   4.592  10.235 -1.6402 -0.5000 -2.6285
  115OSM    C3F12059   1.171   4.417  10.215 -0.1419 -0.2955  0.4451
  115OSM    H3F12060   1.147   4.330  10.279  1.8237 -1.4320 -0.2755
  115OSM    H3G12061   1.227   4.367  10.133  2.3727 -0.4704  2.1422
  115OSM    C4F12062   1.045   4.485  10.175 -0.2151 -0.2963 -0.1062
  115OSM    H4F12063   1.074   4.577  10.119 -0.4829  0.3330  0.7633
  115OSM    H4G12064   0.996   4.526  10.266  1.3787  1.8970 -0.1626
  115OSM    C5F12065   0.951   4.393  10.090 -0.3830 -0.3220  0.7523
  115OSM    H5F12066   0.961   4.296  10.144  1.5702 -0.1730  0.7451
  115OSM    H5G12067   1.010   4.378   9.997 -1.1037  0.6148  0.1298
  115OSM    C6F12068   0.808   4.437  10.069 -0.4955 -0.6699 -0.1918
  115OSM    H6F12069   0.803   4.538  10.023 -1.4484 -1.2147 -1.2953
  115OSM    H6G12070   0.764   4.441  10.171 -1.8294  2.9236 -0.7541
  115OSM    C7F12071   0.731   4.343   9.976 -0.3678 -0.3952  0.4557
  115OSM    H7F12072   0.731   4.244  10.028 -1.8853  0.2708  1.8283
  115OSM    H7G12073   0.786   4.323   9.882 -1.8764  0.4135 -0.6415
  115OSM    C8F12074   0.580   4.378   9.954  0.4546  0.7124  0.0271
  115OSM    H8F12075   0.557   4.465   9.890  1.2182  0.4468 -0.6279
  115OSM    H8G12076   0.543   4.407  10.055 -0.9359  0.6128 -0.4272
  115OSM    C9F12077   0.509   4.255   9.904  0.2473  0.1551  0.0680
  115OSM    H9F12078   0.497   4.181   9.985 -3.1545  0.5630  0.1114
  115OSM   C10F12079   0.467   4.221   9.779 -0.6321  0.3214  0.8050
  115OSM   H10F12080   0.411   4.128   9.765  1.0177 -0.6984  0.7107
  115OSM   C11F12081   0.481   4.310   9.662 -0.8197 -0.4989 -0.3295
  115OSM   H11F12082   0.497   4.417   9.688  0.4166 -0.5812 -0.6892
  115OSM   H11G12083   0.383   4.315   9.612 -1.5707 -0.8394  1.0590
  115OSM   C12F12084   0.601   4.277   9.569 -0.4541 -0.4492  0.1647
  115OSM   H12F12085   0.589   4.189   9.503  0.8204  0.0623 -0.7991
  115OSM   H12G12086   0.692   4.258   9.630  0.5674  0.2049 -1.0994
  115OSM   C13F12087   0.626   4.395   9.470  0.1188  1.4221 -0.2999
  115OSM   H13F12088   0.646   4.490   9.525 -2.8760  0.7362  2.2779
  115OSM   H13G12089   0.526   4.407   9.423  0.4805 -1.2677 -1.9536
  115OSM   C14F12090   0.709   4.361   9.355 -0.2774 -0.4419 -0.8602
  115OSM   H14F12091   0.687   4.256   9.329 -1.7476 -0.8409  1.6591
  115OSM   H14G12092   0.814   4.344   9.385 -0.6606  0.0136  0.8629
  115OSM   C15F12093   0.687   4.457   9.235  0.5232  0.2362 -0.1764
  115OSM   H15F12094   0.696   4.558   9.281  0.0231  0.7924 -1.2672
  115OSM   H15G12095   0.583   4.452   9.198  0.2553 -0.0708  0.5916
  115OSM   C16F12096   0.790   4.443   9.130 -0.2754  0.0777 -0.5455
  115OSM   H16F12097   0.786   4.345   9.077 -2.4186  0.0234 -0.3332
  115OSM   H16G12098   0.892   4.451   9.174 -0.9465  1.2940  0.8472
  115OSM   C17F12099   0.778   4.554   9.023 -0.1579 -0.5582  0.0231
  115OSM   H17F12100   0.859   4.547   8.948  1.4258 -0.4126  1.6652
  115OSM   H17G12101   0.814   4.650   9.066  1.0844 -1.5980  1.4081
  115OSM   C18F12102   0.650   4.544   8.945  0.1696 -0.3061  0.4593
  115OSM   H18F12103   0.639   4.626   8.870  0.6474  0.3952  1.1345
  115OSM   H18G12104   0.561   4.546   9.012 -0.9251  2.3666 -0.8961
  115OSM   H18H12105   0.650   4.450   8.887  1.4331  0.2718 -0.5317
  116OSM      N12106   5.092   3.773  11.116  0.0840  0.5380  0.0844
  116OSM    C1512107   5.119   3.625  11.145  0.5075 -0.0892 -0.1762
  116OSM   H15A12108   5.064   3.566  11.074  2.0043  1.7091 -2.9921
  116OSM   H15B12109   5.081   3.607  11.245  2.0367  1.2066  0.6950
  116OSM   H15C12110   5.222   3.593  11.144 -0.1841 -2.5307  0.2910
  116OSM    C1412111   4.957   3.793  11.171 -0.1516 -0.1431 -0.0165
  116OSM   H14A12112   4.960   3.794  11.279  1.2255 -1.1335 -0.0225
  116OSM   H14B12113   4.887   3.720  11.133  1.0034 -1.0359 -0.4710
  116OSM   H14C12114   4.922   3.892  11.147 -1.6515 -0.7399 -0.4031
  116OSM    C1312115   5.188   3.860  11.196 -0.0179  0.0456 -0.0278
  116OSM   H13A12116   5.141   3.955  11.215 -2.4812 -0.7969 -1.4333
  116OSM   H13B12117   5.280   3.889  11.147  0.5954 -0.1801  0.9410
  116OSM   H13C12118   5.218   3.812  11.288 -0.9112  0.1291  0.3158
  116OSM    C1212119   5.102   3.809  10.963  0.0208  0.8476 -1.2932
  116OSM   H12A12120   5.194   3.777  10.917  0.7875  1.2382 -0.0889
  116OSM   H12B12121   5.106   3.916  10.954 -0.2498  1.1599  1.5105
  116OSM    C1112122   4.985   3.759  10.872  0.4834 -0.5346  0.9551
  116OSM   H11A12123   4.992   3.814  10.776  2.7195  0.5468  1.6587
  116OSM   H11B12124   4.887   3.793  10.912 -0.1409 -1.9094  0.6343
  116OSM      P12125   5.110   3.531  10.800 -0.2634  0.1856  0.1531
  116OSM    O1312126   5.220   3.626  10.762 -0.2417 -0.9232  0.4040
  116OSM    O1412127   5.147   3.440  10.911  0.0339  0.3266  0.1857
  116OSM    O1112128   5.060   3.454  10.671  0.2167  0.2245  0.1617
  116OSM    O1212129   4.980   3.617  10.854 -0.0255 -0.1317  0.2350
  116OSM    C1S12130   5.030   3.510  10.539 -0.6900 -0.3683  0.0367
  116OSM    H1S12131   4.993   3.614  10.551  0.5847 -0.0662  1.7200
  116OSM    H1T12132   4.957   3.447  10.483  0.4919 -1.8604  0.0916
  116OSM     NF12133   5.131   3.567  10.309 -0.7901 -0.6009  0.4205
  116OSM    HNF12134   5.139   3.529  10.217 -0.3969  0.9374 -0.2015
  116OSM    C2S12135   5.153   3.509  10.441 -0.1546  0.1562 -0.0279
  116OSM    H2S12136   5.227   3.574  10.492 -1.2536  1.9324 -0.6212
  116OSM    C3S12137   5.231   3.373  10.427  0.0189  0.3169 -0.3421
  116OSM    H3S12138   5.158   3.319  10.363  0.0489 -1.6657  1.1953
  116OSM     O312139   5.253   3.295  10.541  0.8075 -0.2136 -0.3803
  116OSM    HO312140   5.191   3.338  10.600  0.4384  0.4327 -1.2178
  116OSM    C4S12141   5.352   3.380  10.337 -0.1857 -0.3878  0.4108
  116OSM    H4S12142   5.422   3.460  10.366  0.6176 -1.3425  1.1959
  116OSM    C5S12143   5.385   3.287  10.243 -0.1919  0.1742 -0.3530
  116OSM    H5S12144   5.318   3.204  10.220  0.9483 -1.3256  1.3637
  116OSM    C6S12145   5.503   3.294  10.156 -0.5845 -0.6365 -0.8447
  116OSM    H6S12146   5.549   3.193  10.153 -1.1246 -0.9651  0.7471
  116OSM    H6T12147   5.583   3.361  10.193 -0.2202 -1.2266 -0.5391
  116OSM    C7S12148   5.465   3.325  10.009  0.3864  0.1969  0.2533
  116OSM    H7S12149   5.413   3.423  10.004 -2.7712 -1.0823  3.4856
  116OSM    H7T12150   5.382   3.258   9.980  0.0924  1.0125 -0.8363
  116OSM    C8S12151   5.580   3.304   9.902 -0.1839 -0.2140  0.2048
  116OSM    H8S12152   5.631   3.207   9.923  0.1138 -0.3332 -1.0138
  116OSM    H8T12153   5.656   3.383   9.916  1.1365 -0.7818 -2.9262
  116OSM    C9S12154   5.526   3.324   9.760 -0.5302  0.2757 -0.4591
  116OSM    H9S12155   5.459   3.413   9.763 -1.0726 -0.1610  0.4759
  116OSM    H9T12156   5.455   3.242   9.739  1.4565 -1.4400 -0.8610
  116OSM   C10S12157   5.617   3.332   9.645 -0.3403  1.2737  0.4156
  116OSM   H10S12158   5.699   3.257   9.646 -1.0486  0.4423 -0.6381
  116OSM   H10T12159   5.671   3.428   9.661  1.5738  0.0888  1.3364
  116OSM   C11S12160   5.553   3.332   9.507 -0.0776  0.0379 -0.5115
  116OSM   H11S12161   5.467   3.403   9.506 -0.1094  0.0229 -2.2614
  116OSM   H11T12162   5.515   3.232   9.479 -0.1390 -0.4222  1.1085
  116OSM   C12S12163   5.667   3.356   9.404  0.5824  0.1291 -0.2735
  116OSM   H12S12164   5.739   3.274   9.423 -1.8977 -1.9268  0.9841
  116OSM   H12T12165   5.710   3.457   9.419  2.4805 -0.6502 -0.2568
  116OSM   C13S12166   5.613   3.342   9.264  0.2125  0.3338  0.8661
  116OSM   H13S12167   5.515   3.393   9.259  1.0542  1.9854  0.3870
  116OSM   H13T12168   5.609   3.234   9.238 -0.1514  0.8165 -1.2501
  116OSM   C14S12169   5.704   3.407   9.163 -0.0591 -0.2671  0.2003
  116OSM   H14S12170   5.806   3.365   9.172 -0.0976 -0.6134 -0.7858
  116OSM   H14T12171   5.708   3.516   9.184 -0.9340  0.0186 -0.9796
  116OSM   C15S12172   5.651   3.395   9.022  0.4665  0.1112  0.5488
  116OSM   H15S12173   5.543   3.421   9.022  0.5020  0.3284  1.6537
  116OSM   H15T12174   5.651   3.284   9.009 -0.9267  0.1704 -0.1959
  116OSM   C16S12175   5.723   3.476   8.911  0.1454 -0.6559 -0.1291
  116OSM   H16S12176   5.824   3.437   8.885  0.1142 -1.5579  0.9835
  116OSM   H16T12177   5.744   3.579   8.946 -3.2347 -0.9801  3.5392
  116OSM   C17S12178   5.646   3.480   8.779 -0.6766  0.2948 -0.4241
  116OSM   H17S12179   5.544   3.511   8.809 -0.5700 -0.6239  1.0056
  116OSM   H17T12180   5.639   3.383   8.725 -1.8869 -0.0020  0.2334
  116OSM   C18S12181   5.705   3.592   8.686 -0.4848 -0.0198  0.1724
  116OSM   H18S12182   5.761   3.663   8.750 -0.0327  0.7001 -0.9885
  116OSM   H18T12183   5.624   3.649   8.635 -1.9143 -0.7261  1.5620
  116OSM   H18U12184   5.776   3.540   8.620 -1.6146 -0.7091 -0.5363
  116OSM    C1F12185   5.077   3.690  10.294 -0.5841 -0.1189 -0.3867
  116OSM     OF12186   5.071   3.774  10.378  0.4459  0.0515 -0.0670
  116OSM    C2F12187   5.030   3.720  10.160  0.1686 -0.0795  0.6538
  116OSM    H2F12188   5.080   3.650  10.089  2.4764  2.6041 -0.5621
  116OSM    H2G12189   5.060   3.820  10.123 -0.5467 -0.8234 -2.2469
  116OSM    C3F12190   4.873   3.712  10.152  0.6528 -0.4403 -0.1836
  116OSM    H3F12191   4.835   3.787  10.225  0.1421  0.1625 -1.0449
  116OSM    H3G12192   4.831   3.616  10.188  1.4394 -0.2701  1.2863
  116OSM    C4F12193   4.824   3.737  10.012  0.3155  0.0134  0.4938
  116OSM    H4F12194   4.859   3.836   9.975  0.5246  0.3530  1.5853
  116OSM    H4G12195   4.714   3.746  10.026  0.4874 -0.1654  2.1045
  116OSM    C5F12196   4.868   3.624   9.919  0.9869  0.2781  0.5983
  116OSM    H5F12197   4.854   3.524   9.965 -1.4583  1.0628  1.7498
  116OSM    H5G12198   4.974   3.636   9.891  0.3750 -0.2825 -2.2848
  116OSM    C6F12199   4.794   3.618   9.779  0.3717 -0.2474 -0.5487
  116OSM    H6F12200   4.789   3.718   9.729  0.7316 -0.8312 -1.7894
  116OSM    H6G12201   4.686   3.594   9.792  0.4107 -1.4304 -2.2017
  116OSM    C7F12202   4.845   3.519   9.679 -0.4396 -0.7275  0.3514
  116OSM    H7F12203   4.955   3.516   9.692 -0.6728 -1.8797  2.4647
  116OSM    H7G12204   4.826   3.556   9.576 -1.1334 -1.4760  0.2050
  116OSM    C8F12205   4.801   3.380   9.700 -0.0437  0.6511 -0.2310
  116OSM    H8F12206   4.805   3.359   9.809  2.7227 -0.9980 -0.5774
  116OSM    H8G12207   4.868   3.309   9.647 -0.7328  0.1949 -0.5112
  116OSM    C9F12208   4.650   3.361   9.657 -0.4514 -0.7627 -0.0035
  116OSM    H9F12209   4.586   3.367   9.746  1.6182  2.2016  1.4796
  116OSM   C10F12210   4.598   3.310   9.550 -0.5768 -0.3870  0.2957
  116OSM   H10F12211   4.489   3.307   9.538 -0.3067  0.1584 -3.1606
  116OSM   C11F12212   4.665   3.257   9.425  0.0499 -0.3566  0.3415
  116OSM   H11F12213   4.610   3.168   9.387 -1.7882  0.5702  0.7085
  116OSM   H11G12214   4.770   3.235   9.454  0.7798 -0.1204 -1.9165
  116OSM   C12F12215   4.670   3.359   9.312  0.9770 -0.1896  0.5824
  116OSM   H12F12216   4.752   3.432   9.331  1.0439  0.7087 -2.5200
  116OSM   H12G12217   4.581   3.422   9.293 -0.4251 -2.0563  0.6705
  116OSM   C13F12218   4.695   3.288   9.177  0.2938  0.1549  0.8198
  116OSM   H13F12219   4.626   3.206   9.147  1.2142  0.3745 -2.1664
  116OSM   H13G12220   4.799   3.250   9.185  1.0842  1.8376 -0.7792
  116OSM   C14F12221   4.695   3.384   9.055 -0.1008  0.1717  0.7578
  116OSM   H14F12222   4.771   3.463   9.065 -0.3985  0.8647 -1.8094
  116OSM   H14G12223   4.598   3.438   9.059 -0.7035 -0.9335  3.0596
  116OSM   C15F12224   4.716   3.305   8.926  0.7431 -0.5771  0.0651
  116OSM   H15F12225   4.628   3.237   8.926  0.3593 -0.0832  0.2983
  116OSM   H15G12226   4.809   3.245   8.937 -0.4563 -2.2154  2.1214
  116OSM   C16F12227   4.728   3.377   8.799  0.1679 -0.6610  0.1306
  116OSM   H16F12228   4.727   3.306   8.713 -0.6857  2.0487 -2.2498
  116OSM   H16G12229   4.831   3.418   8.790  0.1862 -0.4015  1.3745
  116OSM   C17F12230   4.627   3.487   8.784  0.0550  0.3194  0.2147
  116OSM   H17F12231   4.649   3.569   8.856 -0.8339  1.9550 -1.2897
  116OSM   H17G12232   4.526   3.444   8.803 -0.3918  1.7356  1.2462
  116OSM   C18F12233   4.626   3.548   8.642 -1.1169 -0.0948 -0.1300
  116OSM   H18F12234   4.562   3.636   8.618 -0.2426  0.5481 -0.1437
  116OSM   H18G12235   4.593   3.466   8.574  0.0349  0.7884 -1.8284
  116OSM   H18H12236   4.730   3.573   8.611 -1.3152  0.5044 -0.3257
  117OSM      N12237   6.330   3.113  10.886 -0.2011  1.0395 -0.0362
  117OSM    C1512238   6.308   3.054  10.751  0.0961 -0.3505 -0.2139
  117OSM   H15A12239   6.205   3.026  10.735 -1.1814  2.1108  2.7784
  117OSM   H15B12240   6.365   2.962  10.746 -0.0164 -0.4749  0.5641
  117OSM   H15C12241   6.336   3.118  10.669 -2.2030 -0.0532 -0.8255
  117OSM    C1412242   6.247   3.235  10.913 -0.3441 -0.4280 -0.2152
  117OSM   H14A12243   6.268   3.328  10.862  1.9287  0.4016  2.0342
  117OSM   H14B12244   6.255   3.261  11.018 -0.2019 -3.3189  0.5615
  117OSM   H14C12245   6.143   3.211  10.900 -0.1945 -0.8346 -0.6608
  117OSM    C1312246   6.295   3.009  10.991 -0.0560  0.0402  0.0599
  117OSM   H13A12247   6.194   2.974  10.977  0.2001 -0.5811 -0.2541
  117OSM   H13B12248   6.307   3.061  11.085  0.1929 -0.2457  0.1867
  117OSM   H13C12249   6.365   2.927  10.986 -0.6289 -0.4990  0.6924
  117OSM    C1212250   6.480   3.150  10.898 -0.4974 -0.4312  0.1793
  117OSM   H12A12251   6.546   3.071  10.865 -0.6127 -0.5220  0.1595
  117OSM   H12B12252   6.523   3.161  10.996  0.0204  0.1979 -0.1121
  117OSM    C1112253   6.522   3.278  10.826 -0.4721 -0.5166  0.0699
  117OSM   H11A12254   6.495   3.368  10.886 -0.9258  0.0182 -0.9146
  117OSM   H11B12255   6.471   3.287  10.728 -1.9634 -0.4740  0.8226
  117OSM      P12256   6.764   3.326  10.895 -0.1542  0.2965 -0.0658
  117OSM    O1312257   6.719   3.313  11.032  0.7328 -0.4358 -0.5150
  117OSM    O1412258   6.904   3.289  10.874  0.6722  0.4323 -0.1554
  117OSM    O1112259   6.752   3.478  10.853  0.3671  0.1435  0.6413
  117OSM    O1212260   6.663   3.256  10.794  0.2917 -0.3124 -0.3728
  117OSM    C1S12261   6.764   3.507  10.712 -0.5226  0.7432 -0.5927
  117OSM    H1S12262   6.666   3.482  10.665 -1.0012  1.2006  0.1458
  117OSM    H1T12263   6.845   3.446  10.667  0.3992  2.1845 -0.9282
  117OSM     NF12264   6.807   3.689  10.536 -0.0489  0.3966  0.5098
  117OSM    HNF12265   6.899   3.691  10.499 -0.9766 -0.4775 -2.0409
  117OSM    C2S12266   6.793   3.661  10.680 -0.3660 -0.0723 -0.9558
  117OSM    H2S12267   6.709   3.714  10.730  0.6252 -0.5228  1.3380
  117OSM    C3S12268   6.920   3.712  10.762  0.3142  0.1692  0.0944
  117OSM    H3S12269   7.013   3.663  10.725  0.1811 -2.4075  2.7321
  117OSM     O312270   6.925   3.685  10.900  0.3819 -0.3815  0.2692
  117OSM    HO312271   6.867   3.610  10.915  0.4437 -0.4593  0.1260
  117OSM    C4S12272   6.930   3.860  10.741 -0.4470 -0.0352  0.2049
  117OSM    H4S12273   6.862   3.929  10.793 -0.1459 -2.1477  3.7221
  117OSM    C5S12274   7.022   3.932  10.665  0.7862 -0.1814  0.2587
  117OSM    H5S12275   7.097   3.877  10.606  0.6944  0.5991 -0.6267
  117OSM    C6S12276   7.020   4.087  10.632  0.4334  0.3897 -0.2251
  117OSM    H6S12277   7.122   4.129  10.628 -0.2189  1.9934 -1.6673
  117OSM    H6T12278   6.965   4.145  10.709 -3.4854 -1.5861 -1.2529
  117OSM    C7S12279   6.939   4.129  10.507  0.2528 -0.3043  0.9663
  117OSM    H7S12280   6.961   4.232  10.471 -0.1638 -0.5240  0.0519
  117OSM    H7T12281   6.832   4.125  10.537 -0.6148  0.7600 -1.7243
  117OSM    C8S12282   6.974   4.044  10.379 -0.3898  0.2954  0.3861
  117OSM    H8S12283   6.969   3.938  10.409  0.1894 -0.3977 -1.7708
  117OSM    H8T12284   7.079   4.060  10.346 -1.0577 -0.0919 -2.1015
  117OSM    C9S12285   6.886   4.063  10.258  0.1541 -0.4243  0.3986
  117OSM    H9S12286   6.790   4.023  10.297  0.9770 -1.8581  1.0371
  117OSM    H9T12287   6.916   3.986  10.184 -1.3244 -0.3903 -0.2721
  117OSM   C10S12288   6.877   4.212  10.210  0.5893 -0.6123  0.3800
  117OSM   H10S12289   6.968   4.274  10.223 -0.2532  0.7241  0.0308
  117OSM   H10T12290   6.814   4.262  10.286  0.3737  1.1187 -0.8708
  117OSM   C11S12291   6.826   4.225  10.066 -0.2344  0.8878  0.4615
  117OSM   H11S12292   6.823   4.330  10.029 -0.9361  1.4768  2.1245
  117OSM   H11T12293   6.730   4.170  10.051  0.0005  0.1204  1.6402
  117OSM   C12S12294   6.920   4.148   9.967  0.1580 -0.2141 -0.0073
  117OSM   H12S12295   6.959   4.054  10.012 -1.5499 -1.8387 -1.6875
  117OSM   H12T12296   6.996   4.218   9.926 -1.1839 -0.1127 -2.5406
  117OSM   C13S12297   6.842   4.096   9.844 -0.1557 -0.1232 -0.6497
  117OSM   H13S12298   6.773   4.177   9.812 -0.6542  0.0056  0.6824
  117OSM   H13T12299   6.767   4.018   9.868 -0.5957 -0.9611 -4.2380
  117OSM   C14S12300   6.930   4.060   9.730 -0.0204 -0.7969 -0.2093
  117OSM   H14S12301   7.007   3.983   9.755 -0.5391 -0.6324  2.1148
  117OSM   H14T12302   6.990   4.146   9.694 -1.2883  0.1268 -0.1646
  117OSM   C15S12303   6.849   3.997   9.612  0.4830  0.5448 -0.4449
  117OSM   H15S12304   6.911   3.999   9.520 -1.6576 -2.6278 -2.1314
  117OSM   H15T12305   6.756   4.056   9.602 -1.8970 -2.9180 -0.5639
  117OSM   C16S12306   6.806   3.848   9.645  0.4508  0.4188  0.0685
  117OSM   H16S12307   6.749   3.853   9.741  1.3552  0.2207  0.6323
  117OSM   H16T12308   6.904   3.797   9.658 -0.1568 -0.6547  0.6383
  117OSM   C17S12309   6.723   3.777   9.532 -0.2710  0.0306  0.2652
  117OSM   H17S12310   6.773   3.795   9.434  0.9847 -0.3176  0.8220
  117OSM   H17T12311   6.630   3.839   9.527  1.1767  2.2298 -1.1727
  117OSM   C18S12312   6.702   3.624   9.549  0.4678  0.0407 -0.4349
  117OSM   H18S12313   6.648   3.589   9.459  0.1642  0.6547 -0.4934
  117OSM   H18T12314   6.633   3.606   9.635 -0.6605  0.7605 -1.1711
  117OSM   H18U12315   6.798   3.569   9.561  0.0606 -0.3051  1.6476
  117OSM    C1F12316   6.703   3.680  10.455  0.1660  0.0512 -0.1330
  117OSM     OF12317   6.592   3.672  10.500  0.1299 -0.1433 -0.2213
  117OSM    C2F12318   6.735   3.693  10.313 -0.3521  0.6198 -1.3394
  117OSM    H2F12319   6.798   3.606  10.282 -0.0989  0.4637 -0.4034
  117OSM    H2G12320   6.797   3.784  10.301  0.6369  0.4436  1.7402
  117OSM    C3F12321   6.619   3.717  10.225  0.2298 -0.5184  0.7093
  117OSM    H3F12322   6.587   3.821  10.248  2.1741  0.2671  0.1564
  117OSM    H3G12323   6.540   3.639  10.233 -1.0981  0.4579 -1.8348
  117OSM    C4F12324   6.642   3.718  10.074 -0.4483  0.3346  0.1676
  117OSM    H4F12325   6.671   3.618  10.036 -0.5057  1.5582 -3.4390
  117OSM    H4G12326   6.732   3.784  10.067 -1.8376  2.3515  0.5645
  117OSM    C5F12327   6.525   3.790  10.009  0.0644 -0.1290  0.3617
  117OSM    H5F12328   6.567   3.890   9.985 -0.5351  0.0993  0.2396
  117OSM    H5G12329   6.432   3.794  10.070 -0.7243 -0.6971 -0.7533
  117OSM    C6F12330   6.481   3.719   9.880 -0.2975  0.5773 -0.3780
  117OSM    H6F12331   6.441   3.618   9.903  1.4951  0.0384  0.5245
  117OSM    H6G12332   6.574   3.715   9.820  1.2704 -0.0067  1.9509
  117OSM    C7F12333   6.365   3.785   9.806 -0.5668  0.2538 -0.3054
  117OSM    H7F12334   6.278   3.798   9.873 -1.4858 -0.6666 -1.2864
  117OSM    H7G12335   6.330   3.712   9.730  0.2479 -4.4311  3.3037
  117OSM    C8F12336   6.388   3.932   9.742 -0.6289  1.2782  0.6956
  117OSM    H8F12337   6.481   3.915   9.683 -1.2406 -0.1207  0.1004
  117OSM    H8G12338   6.402   4.011   9.818  0.1303  0.4373  1.4599
  117OSM    C9F12339   6.265   3.966   9.664  0.0269 -0.8488  0.4948
  117OSM    H9F12340   6.194   4.026   9.722  1.6261  0.4307  1.2083
  117OSM   C10F12341   6.233   3.935   9.538 -0.2071  0.1655 -0.0882
  117OSM   H10F12342   6.149   3.979   9.484 -0.3668 -1.1549 -0.9647
  117OSM   C11F12343   6.322   3.851   9.446 -0.1444  0.0177 -0.0186
  117OSM   H11F12344   6.268   3.775   9.385  0.9522 -1.0861  0.3303
  117OSM   H11G12345   6.404   3.808   9.508  0.8777  2.0165  0.0881
  117OSM   C12F12346   6.380   3.948   9.344  0.5256 -0.0521  0.0347
  117OSM   H12F12347   6.445   4.018   9.401  1.6471 -2.4827  1.8817
  117OSM   H12G12348   6.302   3.991   9.278 -0.4352  0.0257  1.1871
  117OSM   C13F12349   6.474   3.870   9.251  0.9142 -0.8922 -0.2226
  117OSM   H13F12350   6.405   3.792   9.210 -0.9115  1.8535 -2.7488
  117OSM   H13G12351   6.557   3.808   9.290  2.2325 -0.3934 -2.0993
  117OSM   C14F12352   6.540   3.957   9.137 -0.0418 -0.1038 -0.0210
  117OSM   H14F12353   6.590   4.041   9.190  1.7059  0.7997 -2.8577
  117OSM   H14G12354   6.456   3.998   9.078 -1.8198 -2.5977  0.6185
  117OSM   C15F12355   6.640   3.878   9.053 -0.1045 -0.2092  0.2380
  117OSM   H15F12356   6.596   3.784   9.013 -2.9694 -0.2718  3.1641
  117OSM   H15G12357   6.729   3.856   9.116  0.0693  2.6711  1.1619
  117OSM   C16F12358   6.685   3.958   8.933  0.1496 -0.1465  0.2137
  117OSM   H16F12359   6.598   4.012   8.888  1.2048  2.0468  0.6677
  117OSM   H16G12360   6.726   3.896   8.850 -0.5917  0.9327 -0.9972
  117OSM   C17F12361   6.792   4.060   8.974  0.0430  0.1023 -0.1296
  117OSM   H17F12362   6.888   4.005   8.977  0.1694  0.3545  0.5352
  117OSM   H17G12363   6.767   4.098   9.075 -1.2238 -2.0908  0.4379
  117OSM   C18F12364   6.804   4.173   8.878  0.2030 -0.6518 -0.1385
  117OSM   H18F12365   6.878   4.156   8.797  0.5922  1.2924 -0.2470
  117OSM   H18G12366   6.820   4.274   8.922  0.9738 -0.6635 -0.3743
  117OSM   H18H12367   6.718   4.168   8.809  0.9624 -1.8384 -1.0435
  118OSM      N12368   0.388   6.277  10.872 -0.0189  0.6421  0.0979
  118OSM    C1512369   0.275   6.349  10.816  0.6224 -0.5175 -0.4714
  118OSM   H15A12370   0.191   6.335  10.882 -1.4103  4.7959 -1.4376
  118OSM   H15B12371   0.242   6.309  10.721 -1.1542 -1.4809  0.5017
  118OSM   H15C12372   0.289   6.456  10.807 -1.9020 -0.0902 -0.0426
  118OSM    C1412373   0.421   6.335  11.011 -0.6812  0.3716  0.4731
  118OSM   H14A12374   0.355   6.306  11.092 -2.4699  2.1591 -0.2330
  118OSM   H14B12375   0.411   6.443  11.007  1.0170  0.5312 -0.0954
  118OSM   H14C12376   0.524   6.312  11.031 -0.7460 -0.0913  0.2702
  118OSM    C1312377   0.353   6.130  10.886  0.9723  0.0799 -0.6586
  118OSM   H13A12378   0.334   6.085  10.790  2.4874  1.1324 -1.5013
  118OSM   H13B12379   0.268   6.108  10.948  1.7911 -1.5562 -0.0707
  118OSM   H13C12380   0.427   6.078  10.945  1.8143  2.1253  0.2102
  118OSM    C1212381   0.505   6.289  10.788 -0.1676 -0.6216  0.1620
  118OSM   H12A12382   0.514   6.394  10.764 -2.2932 -0.4513 -0.1362
  118OSM   H12B12383   0.484   6.235  10.697  0.1599 -0.9129  0.2617
  118OSM    C1112384   0.650   6.253  10.840 -0.3721 -0.0183  0.3602
  118OSM   H11A12385   0.684   6.340  10.900  0.9480 -0.5778  0.4632
  118OSM   H11B12386   0.717   6.261  10.752  1.3852  0.8401  1.7147
  118OSM      P12387   0.729   6.000  10.844 -0.1025 -0.3481  0.2223
  118OSM    O1312388   0.806   5.938  10.950 -0.2141 -0.2339 -0.4772
  118OSM    O1412389   0.619   5.929  10.781 -0.5598  0.1095  0.2508
  118OSM    O1112390   0.829   6.061  10.735  0.2886  0.2495  0.1252
  118OSM    O1212391   0.663   6.135  10.909  0.2421 -0.3050 -0.4293
  118OSM    C1S12392   0.946   5.975  10.721  0.3555 -0.7689  0.1614
  118OSM    H1S12393   0.913   5.870  10.703 -2.5579 -0.0214  0.6344
  118OSM    H1T12394   1.009   5.980  10.812 -0.1867 -0.9451  0.5548
  118OSM     NF12395   1.131   5.921  10.554 -0.5324  0.5636 -0.0732
  118OSM    HNF12396   1.222   5.929  10.595 -0.4258  1.0831 -0.4060
  118OSM    C2S12397   1.034   6.023  10.593  0.0845 -0.5382  0.6839
  118OSM    H2S12398   0.964   6.030  10.507  3.1239  0.7057 -1.8549
  118OSM    C3S12399   1.086   6.164  10.628 -0.3668 -0.0999  0.3291
  118OSM    H3S12400   1.162   6.148  10.707 -0.7380  1.1978  0.9813
  118OSM     O312401   0.986   6.258  10.681  0.5648  0.0783 -0.6995
  118OSM    HO312402   0.919   6.201  10.719  0.4706 -0.9668 -2.3167
  118OSM    C4S12403   1.164   6.209  10.509 -0.0319 -0.3293  0.7447
  118OSM    H4S12404   1.274   6.208  10.518  0.0659  2.5489  1.0038
  118OSM    C5S12405   1.109   6.270  10.398  0.5568  0.2253 -0.0303
  118OSM    H5S12406   1.000   6.286  10.407  0.7087  0.3688  2.3300
  118OSM    C6S12407   1.177   6.315  10.276 -1.1088 -0.3408 -0.4868
  118OSM    H6S12408   1.284   6.339  10.296 -0.5976  0.6464 -3.8005
  118OSM    H6T12409   1.141   6.407  10.225  1.1363 -0.0969 -1.7542
  118OSM    C7S12410   1.191   6.208  10.171 -0.2429 -0.3422  0.6616
  118OSM    H7S12411   1.089   6.170  10.147 -0.1013  0.4243 -1.2760
  118OSM    H7T12412   1.242   6.116  10.208 -1.3203 -2.4747 -2.7296
  118OSM    C8S12413   1.256   6.268  10.045 -0.0525  0.8426  0.2271
  118OSM    H8S12414   1.365   6.269  10.067  0.3632 -0.5370 -1.5134
  118OSM    H8T12415   1.209   6.365  10.017 -0.5966  0.5496  0.1051
  118OSM    C9S12416   1.242   6.183   9.920  0.3612  0.2366 -0.4940
  118OSM    H9S12417   1.137   6.191   9.887  0.5916 -1.8056 -1.9071
  118OSM    H9T12418   1.264   6.076   9.939  2.7292  0.6895 -0.3688
  118OSM   C10S12419   1.344   6.236   9.816  0.3080  0.4560  0.0341
  118OSM   H10S12420   1.451   6.217   9.840  0.0390  0.6108  1.4523
  118OSM   H10T12421   1.338   6.346   9.805  1.5068  0.4513 -0.7675
  118OSM   C11S12422   1.316   6.172   9.679 -0.3936  0.6565  0.2172
  118OSM   H11S12423   1.217   6.212   9.648 -0.8770 -1.1263 -0.7221
  118OSM   H11T12424   1.312   6.061   9.689  0.5545  0.7473  1.9421
  118OSM   C12S12425   1.420   6.205   9.567 -0.9454 -0.2198 -0.0870
  118OSM   H12S12426   1.526   6.186   9.593 -0.4912  1.5515 -0.5380
  118OSM   H12T12427   1.425   6.313   9.544  0.2239 -0.3082 -0.2915
  118OSM   C13S12428   1.379   6.128   9.441 -0.0831  0.2623  0.5058
  118OSM   H13S12429   1.286   6.183   9.414 -0.1084 -0.4414 -0.9453
  118OSM   H13T12430   1.357   6.020   9.433 -5.3072  1.1805 -1.4321
  118OSM   C14S12431   1.477   6.160   9.326  0.5653 -0.8770 -0.2622
  118OSM   H14S12432   1.580   6.165   9.366  0.3532  0.6804  0.1536
  118OSM   H14T12433   1.454   6.263   9.289 -1.7191 -1.6302 -1.1387
  118OSM   C15S12434   1.449   6.071   9.210 -0.7718  0.0622 -0.4594
  118OSM   H15S12435   1.340   6.074   9.193 -0.8952  2.1362  0.4901
  118OSM   H15T12436   1.488   5.970   9.233  5.3943  2.0217 -0.5178
  118OSM   C16S12437   1.523   6.115   9.088 -0.1646  0.0394  0.2820
  118OSM   H16S12438   1.633   6.118   9.103 -0.1066 -0.5811  0.0259
  118OSM   H16T12439   1.498   6.215   9.046  1.5500  0.7023  0.7678
  118OSM   C17S12440   1.497   6.013   8.972 -0.3953 -0.2399 -0.2298
  118OSM   H17S12441   1.387   6.010   8.963 -0.4839  0.3454  0.5464
  118OSM   H17T12442   1.525   5.908   8.994 -0.4846 -0.8136 -2.5689
  118OSM   C18S12443   1.570   6.038   8.842  0.3467 -0.1690 -0.0107
  118OSM   H18S12444   1.667   5.984   8.835  0.8271  0.3453  2.0234
  118OSM   H18T12445   1.600   6.144   8.826 -2.0924  0.6843  0.6076
  118OSM   H18U12446   1.504   6.002   8.760  0.3608 -1.5053  0.5395
  118OSM    C1F12447   1.100   5.805  10.495 -0.4234 -0.6765 -0.1334
  118OSM     OF12448   0.984   5.776  10.463  0.7126 -0.6708 -0.1954
  118OSM    C2F12449   1.209   5.703  10.476  0.1792 -0.4735  0.2970
  118OSM    H2F12450   1.196   5.620  10.549  1.5693  0.6794  1.9297
  118OSM    H2G12451   1.310   5.737  10.507 -0.1117  0.0741  0.6555
  118OSM    C3F12452   1.216   5.646  10.329  0.8380  0.0493 -0.6833
  118OSM    H3F12453   1.117   5.611  10.292  1.1577  1.0878 -2.6520
  118OSM    H3G12454   1.268   5.549  10.342 -0.6682 -0.4872  2.1118
  118OSM    C4F12455   1.294   5.747  10.246 -0.0338  0.3341  0.2351
  118OSM    H4F12456   1.390   5.761  10.300 -0.3823 -0.2574  1.0449
  118OSM    H4G12457   1.242   5.841  10.217  0.5811  0.1002 -1.7326
  118OSM    C5F12458   1.335   5.680  10.114  0.6056  0.7173 -0.5902
  118OSM    H5F12459   1.236   5.654  10.072  0.4565 -1.4972  0.9418
  118OSM    H5G12460   1.392   5.587  10.132  0.5887  0.3631 -2.2742
  118OSM    C6F12461   1.414   5.753  10.010  0.1903  0.2379 -0.5572
  118OSM    H6F12462   1.513   5.770  10.057 -0.9443 -0.9079  2.4709
  118OSM    H6G12463   1.354   5.844   9.986 -3.3923 -1.7687  0.0597
  118OSM    C7F12464   1.434   5.664   9.887 -0.1217 -0.3153 -0.2119
  118OSM    H7F12465   1.442   5.558   9.917  0.8623 -0.3599 -0.5919
  118OSM    H7G12466   1.534   5.683   9.842  0.9594 -1.0018  1.7553
  118OSM    C8F12467   1.327   5.673   9.784  0.2873  0.1819 -0.2955
  118OSM    H8F12468   1.329   5.780   9.755 -2.1649 -0.1345 -1.9176
  118OSM    H8G12469   1.228   5.665   9.834 -0.2108  2.6715 -0.7397
  118OSM    C9F12470   1.343   5.568   9.673  0.6056  0.1929  0.0834
  118OSM    H9F12471   1.328   5.464   9.705  2.3293  0.1135  0.7568
  118OSM   C10F12472   1.377   5.589   9.546 -0.3687  0.0996  0.4942
  118OSM   H10F12473   1.381   5.503   9.478 -0.2234  0.0207  0.6047
  118OSM   C11F12474   1.409   5.718   9.479  0.0105  0.2330 -0.1732
  118OSM   H11F12475   1.519   5.718   9.462  0.0688  1.5683  0.1600
  118OSM   H11G12476   1.365   5.809   9.524  0.0245  0.1925 -0.0764
  118OSM   C12F12477   1.357   5.708   9.334 -1.0021  0.6575  0.8221
  118OSM   H12F12478   1.355   5.807   9.284  0.2893  0.8345  1.1053
  118OSM   H12G12479   1.248   5.683   9.332 -1.1055  0.9239 -2.2658
  118OSM   C13F12480   1.428   5.606   9.238 -0.0093 -0.4359 -0.7865
  118OSM   H13F12481   1.395   5.502   9.259 -1.5008  0.0622 -0.5085
  118OSM   H13G12482   1.538   5.606   9.251 -0.0318 -1.9226 -0.4553
  118OSM   C14F12483   1.393   5.635   9.096  0.2235  0.1076  0.2180
  118OSM   H14F12484   1.396   5.744   9.070  0.4107 -0.0792 -0.5856
  118OSM   H14G12485   1.288   5.608   9.074  1.1833 -1.9927 -2.3583
  118OSM   C15F12486   1.483   5.569   8.995 -1.1027 -0.0202 -0.1224
  118OSM   H15F12487   1.497   5.459   9.002 -0.7869  0.0401  0.2183
  118OSM   H15G12488   1.582   5.617   9.004 -0.8837 -0.6208  0.8933
  118OSM   C16F12489   1.443   5.611   8.852 -0.3106  0.0104  0.1983
  118OSM   H16F12490   1.449   5.722   8.847 -1.0791  0.1785  2.0798
  118OSM   H16G12491   1.338   5.577   8.844 -0.2468  0.1952 -1.8147
  118OSM   C17F12492   1.529   5.549   8.740  0.4642 -0.4146  0.0892
  118OSM   H17F12493   1.469   5.553   8.646 -0.5184 -1.4822  0.6455
  118OSM   H17G12494   1.537   5.440   8.757  1.5674 -0.4823 -0.7810
  118OSM   C18F12495   1.666   5.604   8.720  0.5694  0.4132  0.6561
  118OSM   H18F12496   1.668   5.707   8.678 -0.6618  0.1814 -0.0293
  118OSM   H18G12497   1.713   5.528   8.653 -1.0663  0.0396 -0.1320
  118OSM   H18H12498   1.721   5.599   8.816  0.2950 -0.2398  0.7809
  119OSM      N12499   3.573   3.652  11.295  0.2139 -0.0164  0.0890
  119OSM    C1512500   3.525   3.703  11.427 -0.2892  0.0215  0.5159
  119OSM   H15A12501   3.605   3.745  11.486  0.7499 -3.2125  1.6328
  119OSM   H15B12502   3.487   3.622  11.488  2.1883 -2.7927 -1.4016
  119OSM   H15C12503   3.446   3.776  11.421  1.2996  1.8787  1.3717
  119OSM    C1412504   3.688   3.748  11.259  0.3058 -0.2928  0.3875
  119OSM   H14A12505   3.743   3.712  11.174  1.0210 -0.0687  0.7473
  119OSM   H14B12506   3.757   3.759  11.341 -0.2728 -0.5545  0.9189
  119OSM   H14C12507   3.657   3.850  11.240 -0.8849 -0.9395 -1.4046
  119OSM    C1312508   3.624   3.517  11.315 -0.2473 -0.0365  0.6424
  119OSM   H13A12509   3.645   3.481  11.216  2.7431  1.5197  0.5904
  119OSM   H13B12510   3.551   3.449  11.358 -0.5440 -0.9281 -1.1568
  119OSM   H13C12511   3.722   3.511  11.361 -0.1935 -1.8514  0.3973
  119OSM    C1212512   3.461   3.648  11.194  0.3244  0.2613  0.6245
  119OSM   H12A12513   3.413   3.745  11.188 -1.7039 -0.7967 -2.1932
  119OSM   H12B12514   3.381   3.584  11.229  0.0080 -0.8800 -1.9336
  119OSM    C1112515   3.485   3.601  11.047  1.1675 -0.0874  0.6055
  119OSM   H11A12516   3.384   3.610  11.002 -0.1069  1.2314  3.4592
  119OSM   H11B12517   3.507   3.493  11.062  3.1098  0.1130 -0.4240
  119OSM      P12518   3.694   3.585  10.899 -0.1445 -0.0410 -0.1377
  119OSM    O1312519   3.777   3.669  10.813 -0.4428  0.7706  0.1337
  119OSM    O1412520   3.761   3.496  10.994 -0.2936  0.2250 -0.5178
  119OSM    O1112521   3.605   3.497  10.796 -0.0246 -0.0071  0.0593
  119OSM    O1212522   3.589   3.674  10.985 -0.1454  0.2717  0.1890
  119OSM    C1S12523   3.503   3.580  10.727  0.2725  0.1474 -1.0685
  119OSM    H1S12524   3.515   3.690  10.728 -0.5749  0.2473 -0.8526
  119OSM    H1T12525   3.400   3.554  10.762  1.5747  0.7258  3.9800
  119OSM     NF12526   3.411   3.622  10.500  0.2195  0.5266 -0.7097
  119OSM    HNF12527   3.314   3.630  10.524  0.3800 -1.1089  0.6970
  119OSM    C2S12528   3.499   3.535  10.572  0.0063 -0.1321 -1.0354
  119OSM    H2S12529   3.602   3.545  10.531 -0.2536  0.8108 -1.4676
  119OSM    C3S12530   3.465   3.382  10.556  0.2142 -0.1663 -0.5130
  119OSM    H3S12531   3.362   3.369  10.597  0.8855  1.8375  2.1076
  119OSM     O312532   3.548   3.297  10.637  0.4822 -0.2660  0.0092
  119OSM    HO312533   3.580   3.361  10.700  0.7468 -0.2813 -0.1118
  119OSM    C4S12534   3.464   3.352  10.405 -0.0729  0.0288 -1.0367
  119OSM    H4S12535   3.370   3.386  10.359  0.1190  2.6028  0.2592
  119OSM    C5S12536   3.564   3.296  10.334 -0.6835  0.2715 -0.0554
  119OSM    H5S12537   3.661   3.275  10.380 -0.2145  1.0536 -0.6528
  119OSM    C6S12538   3.549   3.253  10.186 -0.8726 -0.4986  0.6739
  119OSM    H6S12539   3.652   3.246  10.146 -1.0044  2.3057 -0.3866
  119OSM    H6T12540   3.493   3.336  10.137  0.2468 -0.0168  0.1804
  119OSM    C7S12541   3.470   3.125  10.149 -0.4077  0.0517  0.5714
  119OSM    H7S12542   3.372   3.143  10.197  0.6828  2.1175  2.2062
  119OSM    H7T12543   3.522   3.035  10.187  3.0362  1.0200 -1.4487
  119OSM    C8S12544   3.460   3.113   9.996 -0.2815  0.0123  0.1114
  119OSM    H8S12545   3.560   3.110   9.948 -0.9093  0.4722 -1.2828
  119OSM    H8T12546   3.395   3.198   9.965 -3.3457 -1.8648  0.8507
  119OSM    C9S12547   3.388   2.979   9.971  0.4071 -0.1066  0.6618
  119OSM    H9S12548   3.294   2.980  10.029 -0.3801 -1.4515 -0.5347
  119OSM    H9T12549   3.456   2.895   9.997  1.1401 -0.2619 -1.4816
  119OSM   C10S12550   3.350   2.972   9.816 -0.0963 -0.1459  0.3381
  119OSM   H10S12551   3.321   3.073   9.782  0.7648 -0.1676 -0.4908
  119OSM   H10T12552   3.260   2.907   9.812  1.4984 -2.3815 -2.0322
  119OSM   C11S12553   3.457   2.913   9.718 -0.2113 -0.4470 -0.0811
  119OSM   H11S12554   3.454   2.802   9.713  1.8953 -0.5582  0.2593
  119OSM   H11T12555   3.562   2.933   9.748 -0.0435 -1.2201 -0.1398
  119OSM   C12S12556   3.449   2.981   9.590 -0.1557 -0.2498 -0.1734
  119OSM   H12S12557   3.455   3.091   9.594  0.0374 -0.2981  1.2497
  119OSM   H12T12558   3.352   2.954   9.543  0.4572 -0.5319 -1.3247
  119OSM   C13S12559   3.558   2.922   9.496 -0.6515 -0.2981 -0.4205
  119OSM   H13S12560   3.545   2.813   9.478  0.6089 -1.3224  3.6713
  119OSM   H13T12561   3.654   2.929   9.552  1.7185 -0.9998 -4.0434
  119OSM   C14S12562   3.571   3.000   9.364  0.1726  0.6254 -0.0300
  119OSM   H14S12563   3.577   3.108   9.386  1.5967  1.0823 -2.2430
  119OSM   H14T12564   3.475   2.989   9.309  0.1085  0.3470  0.1365
  119OSM   C15S12565   3.687   2.970   9.268 -0.0273  0.4096 -0.3092
  119OSM   H15S12566   3.777   2.919   9.309 -0.5925 -1.7411 -1.5377
  119OSM   H15T12567   3.727   3.068   9.235  1.9295  0.7751  2.7363
  119OSM   C16S12568   3.636   2.876   9.151 -0.0433 -0.1246  0.0084
  119OSM   H16S12569   3.543   2.917   9.107 -0.6087 -0.5865  0.7530
  119OSM   H16T12570   3.616   2.777   9.198  0.8000  0.2240  1.1534
  119OSM   C17S12571   3.748   2.866   9.035  0.0997  0.2337 -0.2042
  119OSM   H17S12572   3.760   2.962   8.980 -2.8499  1.4992  1.1374
  119OSM   H17T12573   3.700   2.794   8.965 -1.4068  2.2355 -1.3086
  119OSM   C18S12574   3.888   2.820   9.075  0.7397  0.2556  0.0996
  119OSM   H18S12575   3.886   2.714   9.109  0.4638  0.6820  1.4449
  119OSM   H18T12576   3.922   2.882   9.160  0.2763  1.1992 -0.3952
  119OSM   H18U12577   3.950   2.837   8.984  0.2150 -1.1891 -0.5573
  119OSM    C1F12578   3.459   3.730  10.434  0.0271 -0.0122  0.1590
  119OSM     OF12579   3.580   3.761  10.437 -0.2035  0.2151 -0.3554
  119OSM    C2F12580   3.358   3.816  10.356 -0.0091  0.5068  0.0605
  119OSM    H2F12581   3.355   3.919  10.397 -3.8259  1.5752 -2.2607
  119OSM    H2G12582   3.256   3.773  10.363  0.2586 -0.6354 -2.1045
  119OSM    C3F12583   3.400   3.818  10.202  0.0554  0.5727 -0.9353
  119OSM    H3F12584   3.504   3.855  10.214 -0.4058  1.2728  1.4355
  119OSM    H3G12585   3.337   3.884  10.138 -1.3299 -0.6088 -0.8361
  119OSM    C4F12586   3.394   3.670  10.141 -0.8539 -0.4122  0.2793
  119OSM    H4F12587   3.291   3.629  10.142 -1.0483 -0.0361 -1.4386
  119OSM    H4G12588   3.452   3.606  10.211  0.5717 -0.4580 -0.8983
  119OSM    C5F12589   3.469   3.664  10.014  0.3089 -0.1972  0.3969
  119OSM    H5F12590   3.495   3.559   9.990  0.5810  0.0731 -0.5176
  119OSM    H5G12591   3.561   3.723  10.034  0.6890 -0.9047  0.7441
  119OSM    C6F12592   3.381   3.714   9.898  0.2166  0.2454  0.1118
  119OSM    H6F12593   3.382   3.825   9.897 -1.6188  0.3034  1.1498
  119OSM    H6G12594   3.283   3.661   9.902  1.3341 -1.8375  1.3040
  119OSM    C7F12595   3.441   3.671   9.763  0.0607  0.5423 -0.4166
  119OSM    H7F12596   3.432   3.562   9.747 -1.4343  0.8706 -2.0175
  119OSM    H7G12597   3.549   3.697   9.763 -0.1550  1.6525 -2.5180
  119OSM    C8F12598   3.360   3.733   9.653 -0.2591  0.4071 -0.4415
  119OSM    H8F12599   3.321   3.830   9.690 -1.6234 -0.2190 -0.2012
  119OSM    H8G12600   3.277   3.661   9.639  0.3238 -0.6224  1.1249
  119OSM    C9F12601   3.428   3.758   9.524  0.1522  0.0050 -0.0948
  119OSM    H9F12602   3.494   3.845   9.516  0.7148 -0.4791 -0.8643
  119OSM   C10F12603   3.394   3.707   9.404  0.2239 -0.2857  0.0494
  119OSM   H10F12604   3.455   3.738   9.318 -0.3507 -2.1704 -1.0873
  119OSM   C11F12605   3.284   3.611   9.373  0.1659  0.1826 -0.7388
  119OSM   H11F12606   3.190   3.631   9.430  2.9547  3.3219  3.3649
  119OSM   H11G12607   3.307   3.504   9.390  2.6603  0.7042 -0.5420
  119OSM   C12F12608   3.241   3.608   9.229  0.2029 -0.1119  0.0619
  119OSM   H12F12609   3.191   3.705   9.208 -0.3325  0.5559  3.7093
  119OSM   H12G12610   3.157   3.536   9.219 -2.6994  2.9667  0.4093
  119OSM   C13F12611   3.340   3.557   9.118  0.2056  0.4673  0.8247
  119OSM   H13F12612   3.379   3.455   9.138 -1.7063 -0.8200 -1.4908
  119OSM   H13G12613   3.426   3.624   9.098  0.4545  0.7874  2.7483
  119OSM   C14F12614   3.272   3.533   8.980 -0.4512 -0.5463 -0.3196
  119OSM   H14F12615   3.200   3.449   8.986 -2.0851  0.7863 -0.6804
  119OSM   H14G12616   3.347   3.500   8.904 -0.6148  0.7904 -1.0972
  119OSM   C15F12617   3.198   3.657   8.936 -0.4842 -0.0027  0.0588
  119OSM   H15F12618   3.260   3.732   8.883  0.0413 -0.7497 -0.3985
  119OSM   H15G12619   3.147   3.723   9.010 -2.0863  1.7707 -2.4741
  119OSM   C16F12620   3.094   3.610   8.840 -0.5636  0.2260 -0.4348
  119OSM   H16F12621   3.040   3.520   8.877  0.6009 -0.3550 -0.1120
  119OSM   H16G12622   3.157   3.579   8.754 -1.5186 -0.0877 -1.0331
  119OSM   C17F12623   2.998   3.715   8.793  0.1467  0.0378  0.7028
  119OSM   H17F12624   3.037   3.818   8.776  2.9566 -0.9656  0.5614
  119OSM   H17G12625   2.920   3.724   8.872 -0.8307  1.0110 -0.3461
  119OSM   C18F12626   2.930   3.670   8.656  0.3362  0.7245  0.0607
  119OSM   H18F12627   2.999   3.689   8.571  0.2719  1.4824  0.1719
  119OSM   H18G12628   2.831   3.720   8.643  0.2587  0.0128 -2.7949
  119OSM   H18H12629   2.899   3.564   8.660 -1.1404  1.1029 -0.5795
  120OSM      N12630   5.628   2.170  10.910 -0.6233  0.7294  0.5391
  120OSM    C1512631   5.686   2.144  11.047 -0.1584  0.7190  0.5462
  120OSM   H15A12632   5.687   2.038  11.064 -3.5266 -0.1773 -3.3374
  120OSM   H15B12633   5.643   2.206  11.124 -0.4079  0.9174  0.2494
  120OSM   H15C12634   5.788   2.180  11.054 -0.3276  1.1822  0.6489
  120OSM    C1412635   5.715   2.103  10.814  0.5799 -0.1347 -0.4803
  120OSM   H14A12636   5.810   2.155  10.810  1.0384 -0.8615  0.4815
  120OSM   H14B12637   5.669   2.114  10.717  1.3188 -1.4379 -1.0051
  120OSM   H14C12638   5.727   1.997  10.830  2.0999 -0.3381 -2.5456
  120OSM    C1312639   5.483   2.125  10.897 -0.3380  0.2317  0.3196
  120OSM   H13A12640   5.443   2.135  10.797  1.3907 -1.1977 -0.5680
  120OSM   H13B12641   5.422   2.184  10.964 -2.8307 -1.5895 -0.1669
  120OSM   H13C12642   5.476   2.019  10.916 -0.4252 -0.0853 -1.3836
  120OSM    C1212643   5.622   2.317  10.880  0.0523 -0.3522  0.0776
  120OSM   H12A12644   5.540   2.363  10.934  0.0138  1.2502 -1.2607
  120OSM   H12B12645   5.593   2.329  10.777  0.8822  1.4899  0.0169
  120OSM    C1112646   5.751   2.401  10.903 -0.7758 -1.2827  0.1914
  120OSM   H11A12647   5.773   2.402  11.012 -1.6736  3.1875  0.5546
  120OSM   H11B12648   5.731   2.509  10.884  1.6470 -0.9065 -0.6133
  120OSM      P12649   5.938   2.437  10.713 -0.0510 -0.0506  0.1800
  120OSM    O1312650   5.998   2.556  10.773  0.2145  0.1649  0.1420
  120OSM    O1412651   6.028   2.343  10.641 -0.0569  0.2759  0.0808
  120OSM    O1112652   5.820   2.476  10.622 -0.2621 -0.3327 -0.1681
  120OSM    O1212653   5.868   2.358  10.830  0.1537  0.4320  0.2975
  120OSM    C1S12654   5.830   2.510  10.483  0.5004 -0.0733 -0.2353
  120OSM    H1S12655   5.917   2.573  10.457  1.1143 -1.4969 -1.8924
  120OSM    H1T12656   5.734   2.560  10.456  0.2676 -0.7095 -0.6152
  120OSM     NF12657   5.842   2.437  10.252  0.0881 -0.1639 -0.3582
  120OSM    HNF12658   5.764   2.446  10.191 -0.5538  4.5917  0.7104
  120OSM    C2S12659   5.830   2.388  10.383  0.1022 -0.3897 -0.5296
  120OSM    H2S12660   5.915   2.320  10.401  0.8697  0.3727 -1.2428
  120OSM    C3S12661   5.697   2.305  10.407 -0.3888 -0.4506  0.2728
  120OSM    H3S12662   5.615   2.358  10.354  1.0947 -2.0206 -4.0396
  120OSM     O312663   5.669   2.266  10.541 -0.1271  0.1097 -0.3454
  120OSM    HO312664   5.730   2.323  10.588  0.0857 -1.7656  1.8294
  120OSM    C4S12665   5.708   2.182  10.320  0.1604  0.1727  0.9654
  120OSM    H4S12666   5.676   2.190  10.215 -1.1468 -2.3513  1.0944
  120OSM    C5S12667   5.766   2.073  10.355  0.6613 -0.1805 -0.2115
  120OSM    H5S12668   5.806   2.071  10.457 -2.8295 -2.7216  1.3192
  120OSM    C6S12669   5.789   1.943  10.269 -0.6413 -0.3997 -0.3599
  120OSM    H6S12670   5.752   1.850  10.318  0.2476 -1.4713 -1.6445
  120OSM    H6T12671   5.898   1.925  10.256 -0.5179  0.5574 -0.7298
  120OSM    C7S12672   5.735   1.950  10.129 -0.1780  0.0840 -0.1909
  120OSM    H7S12673   5.794   2.022  10.068  3.9730 -1.0306  2.1695
  120OSM    H7T12674   5.627   1.975  10.135  0.0753  0.9828  0.8214
  120OSM    C8S12675   5.743   1.812  10.054 -0.3062 -0.4349  0.2373
  120OSM    H8S12676   5.696   1.736  10.120 -1.3589 -1.1688 -1.3014
  120OSM    H8T12677   5.851   1.786  10.053 -0.1130 -0.0421  2.9993
  120OSM    C9S12678   5.676   1.803   9.914 -0.3580 -0.8443 -0.3947
  120OSM    H9S12679   5.694   1.697   9.885 -2.2176 -1.5672  0.8956
  120OSM    H9T12680   5.723   1.868   9.837 -1.3049  1.4774  0.8862
  120OSM   C10S12681   5.524   1.814   9.915  1.1002  0.3919 -0.3100
  120OSM   H10S12682   5.492   1.920   9.930 -0.3312 -0.2098  1.1487
  120OSM   H10T12683   5.504   1.769  10.014  0.6957 -0.3797 -0.7321
  120OSM   C11S12684   5.446   1.752   9.800 -0.1283 -0.5457  0.7473
  120OSM   H11S12685   5.481   1.647   9.789  0.2874 -0.2391 -1.2155
  120OSM   H11T12686   5.474   1.800   9.704  2.4835 -0.5234  1.4511
  120OSM   C12S12687   5.294   1.743   9.821  1.2525 -0.1575 -0.2196
  120OSM   H12S12688   5.254   1.843   9.794  2.4040  0.4946  0.3645
  120OSM   H12T12689   5.257   1.723   9.924 -1.1509 -0.9093 -1.1576
  120OSM   C13S12690   5.237   1.635   9.725  0.0989 -0.1973 -0.2712
  120OSM   H13S12691   5.128   1.630   9.747  0.2361  2.4758  1.5278
  120OSM   H13T12692   5.281   1.534   9.741 -1.1822 -0.9585 -1.3182
  120OSM   C14S12693   5.255   1.678   9.579 -0.4421 -0.1300  0.5407
  120OSM   H14S12694   5.362   1.676   9.551 -1.1144  0.1589 -2.4014
  120OSM   H14T12695   5.227   1.783   9.557  2.2750  0.3866 -0.9255
  120OSM   C15S12696   5.171   1.600   9.468  0.1207  0.6067  0.0317
  120OSM   H15S12697   5.062   1.603   9.487  0.3619  1.1325  1.4700
  120OSM   H15T12698   5.209   1.496   9.473 -0.1098  0.3026 -3.0130
  120OSM   C16S12699   5.194   1.658   9.332  0.0575  0.1696  0.0437
  120OSM   H16S12700   5.302   1.671   9.309  0.1754 -1.5241 -0.4241
  120OSM   H16T12701   5.132   1.750   9.318 -0.2855 -0.0351  0.2079
  120OSM   C17S12702   5.145   1.553   9.232  0.3401  0.0197 -0.3649
  120OSM   H17S12703   5.047   1.512   9.266  1.0637 -0.5378  1.0962
  120OSM   H17T12704   5.213   1.465   9.229 -1.0936 -1.2326  1.4756
  120OSM   C18S12705   5.123   1.607   9.094 -0.3166  0.1533  0.2363
  120OSM   H18S12706   5.208   1.672   9.063  0.9576 -1.3609  0.3999
  120OSM   H18T12707   5.028   1.664   9.087  0.4339  1.3456 -0.7932
  120OSM   H18U12708   5.121   1.520   9.025 -0.0516  0.9198 -0.7655
  120OSM    C1F12709   5.951   2.481  10.199 -1.2373 -0.3170 -0.7865
  120OSM     OF12710   6.058   2.453  10.249  0.1846  0.0912  0.2139
  120OSM    C2F12711   5.938   2.568  10.074 -0.3175 -0.1324 -0.2132
  120OSM    H2F12712   5.939   2.676  10.103  0.0429  0.3041 -1.7948
  120OSM    H2G12713   5.844   2.543  10.020  0.1110  3.7049 -3.1656
  120OSM    C3F12714   6.062   2.547   9.987  0.1601 -0.0444 -0.6410
  120OSM    H3F12715   6.088   2.439   9.978 -0.9618 -0.4736  0.7203
  120OSM    H3G12716   6.149   2.589  10.041  1.3535 -0.3543 -2.2757
  120OSM    C4F12717   6.063   2.606   9.837  0.2862 -0.7712  0.0898
  120OSM    H4F12718   6.161   2.573   9.798  0.2835 -2.0560  1.0905
  120OSM    H4G12719   6.053   2.717   9.847  0.7375 -0.5878 -1.3330
  120OSM    C5F12720   5.939   2.561   9.760  0.6944  0.2534  0.7066
  120OSM    H5F12721   5.840   2.590   9.802 -0.0214 -0.2755 -0.5539
  120OSM    H5G12722   5.926   2.451   9.763 -2.1002  0.4069 -1.7061
  120OSM    C6F12723   5.917   2.593   9.606 -0.3489 -0.4386 -0.1361
  120OSM    H6F12724   5.926   2.700   9.577  1.0135 -0.8268 -1.2616
  120OSM    H6G12725   5.809   2.574   9.586 -1.1716  2.3221  1.1099
  120OSM    C7F12726   6.021   2.515   9.521 -0.4522  0.1981  0.3138
  120OSM    H7F12727   6.023   2.409   9.555  1.9797 -0.1057 -0.5592
  120OSM    H7G12728   6.115   2.567   9.547 -0.8444  0.8736  0.3974
  120OSM    C8F12729   6.002   2.520   9.373 -0.3661 -0.5646 -0.2494
  120OSM    H8F12730   6.098   2.486   9.327  1.0381  1.1264  1.3108
  120OSM    H8G12731   5.986   2.627   9.348 -0.0702  0.5880  3.7809
  120OSM    C9F12732   5.886   2.433   9.329 -0.4874  0.1893  0.1141
  120OSM    H9F12733   5.840   2.384   9.416 -0.7707 -1.0557 -0.7076
  120OSM   C10F12734   5.842   2.397   9.207  0.7295  0.5793  0.2540
  120OSM   H10F12735   5.760   2.324   9.209 -0.5561  1.9575 -0.6362
  120OSM   C11F12736   5.885   2.428   9.070 -0.2435 -0.0571  0.2549
  120OSM   H11F12737   5.881   2.344   8.998  1.2660 -2.5317  2.8357
  120OSM   H11G12738   5.987   2.473   9.070 -0.0869 -0.3484 -1.3941
  120OSM   C12F12739   5.798   2.533   8.996 -0.5801 -0.6255  0.2091
  120OSM   H12F12740   5.846   2.563   8.901 -2.3811  0.1224 -0.5295
  120OSM   H12G12741   5.779   2.613   9.072 -1.8389 -1.2809  0.6166
  120OSM   C13F12742   5.659   2.474   8.956  0.2322 -0.2020 -0.5332
  120OSM   H13F12743   5.586   2.558   8.951  0.1168 -0.1387  1.4007
  120OSM   H13G12744   5.634   2.407   9.041  0.1201  0.6511  0.1217
  120OSM   C14F12745   5.664   2.415   8.812  0.1357  0.0009 -0.3825
  120OSM   H14F12746   5.575   2.351   8.796  1.8008 -2.8067  0.6970
  120OSM   H14G12747   5.748   2.342   8.810  1.3443  1.3445 -2.9696
  120OSM   C15F12748   5.693   2.514   8.697  0.3468  0.5207 -0.3463
  120OSM   H15F12749   5.803   2.534   8.696  0.4714 -0.1512 -1.1373
  120OSM   H15G12750   5.641   2.611   8.708  0.9617  0.6586  1.8001
  120OSM   C16F12751   5.648   2.455   8.566 -0.5055  0.2961  0.0477
  120OSM   H16F12752   5.539   2.476   8.559 -1.0039  1.1216  5.4801
  120OSM   H16G12753   5.663   2.345   8.561 -1.1494  0.2095 -0.0265
  120OSM   C17F12754   5.710   2.512   8.440 -0.0717 -0.4006  0.2042
  120OSM   H17F12755   5.666   2.613   8.429 -0.0391 -0.5889 -2.0197
  120OSM   H17G12756   5.675   2.458   8.349 -1.5367 -1.5628  1.3892
  120OSM   C18F12757   5.864   2.524   8.425 -0.0411 -0.0217  0.0245
  120OSM   H18F12758   5.904   2.621   8.462  1.2761 -0.6812  0.3640
  120OSM   H18G12759   5.884   2.540   8.316 -3.1613  0.5805 -0.5492
  120OSM   H18H12760   5.911   2.443   8.484  0.7549  0.6778  0.3678
  121OSM      N12761   6.635   3.908  11.394  0.2962  0.0142  0.5926
  121OSM    C1512762   6.490   3.889  11.428 -0.2759 -0.4456  0.2856
  121OSM   H15A12763   6.436   3.982  11.427 -0.6238 -0.5990 -2.1361
  121OSM   H15B12764   6.475   3.846  11.526 -1.9964  2.5955  1.5006
  121OSM   H15C12765   6.436   3.824  11.361 -1.4525 -0.4663  1.2162
  121OSM    C1412766   6.698   3.989  11.504 -0.2167 -0.3699  0.5731
  121OSM   H14A12767   6.704   3.940  11.600 -0.1859  1.4432  1.5436
  121OSM   H14B12768   6.639   4.078  11.518 -3.4052 -2.1464 -0.6177
  121OSM   H14C12769   6.803   4.007  11.484  0.3732 -2.0296  1.9151
  121OSM    C1312770   6.715   3.778  11.379  0.3575  0.0588 -0.7535
  121OSM   H13A12771   6.671   3.721  11.298 -1.0449  0.0127  0.0152
  121OSM   H13B12772   6.710   3.721  11.470 -1.9210  0.1151 -0.7849
  121OSM   H13C12773   6.813   3.795  11.336  0.8642 -0.3241  0.2189
  121OSM    C1212774   6.637   3.994  11.262  0.2676  0.4401 -0.3175
  121OSM   H12A12775   6.741   4.011  11.238  0.6139  0.7001  1.2752
  121OSM   H12B12776   6.594   4.090  11.282  0.7687  0.7815 -0.8403
  121OSM    C1112777   6.570   3.930  11.138  0.0977 -0.5221  0.4852
  121OSM   H11A12778   6.594   3.822  11.129  1.0230 -0.1405 -2.9183
  121OSM   H11B12779   6.620   3.966  11.046  0.0231  1.5786  1.2267
  121OSM      P12780   6.372   4.069  11.085  0.0464  0.0900 -0.0925
  121OSM    O1312781   6.233   4.084  11.137 -0.1817  0.4633  0.3823
  121OSM    O1412782   6.466   4.185  11.120 -0.0402  0.1750 -0.3044
  121OSM    O1112783   6.370   4.057  10.932  0.4322 -0.2230  0.9937
  121OSM    O1212784   6.429   3.939  11.148 -0.2291 -0.8907  0.6742
  121OSM    C1S12785   6.391   3.925  10.867  0.5984 -0.3518  0.3356
  121OSM    H1S12786   6.308   3.854  10.886  1.9719 -1.8014  1.1211
  121OSM    H1T12787   6.478   3.873  10.913 -0.0515 -2.9704 -1.2047
  121OSM     NF12788   6.398   3.806  10.659  0.0181 -0.3316  0.1668
  121OSM    HNF12789   6.476   3.767  10.610  1.0094  1.7638 -0.0639
  121OSM    C2S12790   6.411   3.939  10.717 -0.3562 -0.8114  1.0514
  121OSM    H2S12791   6.325   4.001  10.683  1.0204  0.4249 -0.3231
  121OSM    C3S12792   6.537   4.012  10.679 -0.0311 -0.1126  0.7203
  121OSM    H3S12793   6.622   3.944  10.702 -0.8837 -0.7996  1.9614
  121OSM     O312794   6.571   4.129  10.753  0.0072 -0.4875  0.2310
  121OSM    HO312795   6.508   4.132  10.826  1.3980 -2.4282  1.5899
  121OSM    C4S12796   6.536   4.041  10.526 -0.7153 -0.0371 -0.3040
  121OSM    H4S12797   6.572   3.955  10.467 -2.2414  0.9242 -2.7859
  121OSM    C5S12798   6.496   4.151  10.464  0.0550 -1.1824 -0.1555
  121OSM    H5S12799   6.471   4.237  10.527  2.4682  0.2514 -1.0138
  121OSM    C6S12800   6.508   4.185  10.315  0.1050 -0.1132  0.3574
  121OSM    H6S12801   6.545   4.095  10.261 -0.5797  0.6804 -1.5307
  121OSM    H6T12802   6.586   4.264  10.301  0.9621 -0.8504  0.8641
  121OSM    C7S12803   6.368   4.224  10.248 -0.3123  0.0422 -0.0358
  121OSM    H7S12804   6.337   4.319  10.296 -0.5985  0.8973 -1.8339
  121OSM    H7T12805   6.293   4.147  10.277  1.6274 -1.2362  1.9615
  121OSM    C8S12806   6.380   4.242  10.100  0.2161 -0.1297  0.1728
  121OSM    H8S12807   6.293   4.273  10.037  0.1494 -1.3705 -0.3802
  121OSM    H8T12808   6.407   4.140  10.063  0.6307 -0.0031  0.1193
  121OSM    C9S12809   6.483   4.352  10.068 -0.1293 -0.6981 -0.0196
  121OSM    H9S12810   6.564   4.359  10.144 -0.9838  2.6596  0.7919
  121OSM    H9T12811   6.427   4.444  10.097 -0.7335 -1.2079  0.4704
  121OSM   C10S12812   6.541   4.349   9.928  0.7082 -0.2431  0.0202
  121OSM   H10S12813   6.603   4.257   9.922  0.7209 -0.5360  3.1389
  121OSM   H10T12814   6.609   4.434   9.908  1.8147  0.0200  4.0838
  121OSM   C11S12815   6.426   4.351   9.832  0.4920  0.0179 -0.0194
  121OSM   H11S12816   6.346   4.423   9.859  0.1123  0.1654 -1.4407
  121OSM   H11T12817   6.370   4.256   9.833  1.0243 -0.3022 -0.1032
  121OSM   C12S12818   6.471   4.371   9.687 -0.4702 -0.3188  0.6365
  121OSM   H12S12819   6.543   4.290   9.660 -0.5300 -0.2212  0.1721
  121OSM   H12T12820   6.529   4.465   9.672  0.5712 -1.2851 -2.1887
  121OSM   C13S12821   6.351   4.368   9.591 -0.7160  0.2833  0.2396
  121OSM   H13S12822   6.301   4.467   9.595  1.9539  1.7032  0.9773
  121OSM   H13T12823   6.279   4.286   9.608 -3.5163  2.2715 -1.1676
  121OSM   C14S12824   6.405   4.371   9.447 -0.2699 -0.1727 -0.9181
  121OSM   H14S12825   6.484   4.296   9.427  1.7123  1.7132 -0.5099
  121OSM   H14T12826   6.467   4.463   9.436  2.1997 -1.4785  1.0171
  121OSM   C15S12827   6.295   4.365   9.342  0.2983 -0.1688 -0.3113
  121OSM   H15S12828   6.225   4.450   9.353  0.0647 -0.3867 -0.1297
  121OSM   H15T12829   6.233   4.276   9.363  1.8960 -1.1565  0.4115
  121OSM   C16S12830   6.334   4.356   9.191  0.2599  0.1376  0.0257
  121OSM   H16S12831   6.432   4.302   9.190  0.5172  0.6124 -0.7781
  121OSM   H16T12832   6.340   4.456   9.145  0.2804  0.1453  0.0451
  121OSM   C17S12833   6.227   4.285   9.109  0.3355  0.4581 -0.3636
  121OSM   H17S12834   6.208   4.180   9.138 -1.4453  0.3386 -1.8265
  121OSM   H17T12835   6.275   4.281   9.009  2.0456 -0.3281  0.4463
  121OSM   C18S12836   6.091   4.364   9.088 -0.2334  0.4797  0.5665
  121OSM   H18S12837   6.022   4.376   9.174  0.3960  2.5410  0.8279
  121OSM   H18T12838   6.032   4.320   9.005 -2.9227  1.5995  1.7546
  121OSM   H18U12839   6.116   4.467   9.057  2.4883 -0.2756 -0.0500
  121OSM    C1F12840   6.293   3.719  10.672 -0.4823  0.4119  0.0733
  121OSM     OF12841   6.187   3.750  10.724 -0.3202 -0.5001 -0.4027
  121OSM    C2F12842   6.324   3.579  10.617 -0.6613 -0.3842  0.1923
  121OSM    H2F12843   6.401   3.532  10.683  3.4361 -0.9781 -4.4498
  121OSM    H2G12844   6.355   3.589  10.511 -0.6617  0.2991  0.2529
  121OSM    C3F12845   6.192   3.494  10.610  0.1145 -0.4553  0.3467
  121OSM    H3F12846   6.128   3.543  10.534  1.3985  0.9095  0.0891
  121OSM    H3G12847   6.132   3.485  10.703 -0.9868  2.5341  0.0310
  121OSM    C4F12848   6.215   3.345  10.571  0.3538  0.1756 -0.1533
  121OSM    H4F12849   6.118   3.296  10.550  0.3709  0.3326 -0.6208
  121OSM    H4G12850   6.260   3.295  10.659 -1.3591 -1.4492 -0.1355
  121OSM    C5F12851   6.314   3.315  10.456  0.0470  0.2837 -0.0104
  121OSM    H5F12852   6.306   3.208  10.430 -0.7587  0.4274 -0.3454
  121OSM    H5G12853   6.417   3.338  10.493  0.5683  1.6567 -2.1318
  121OSM    C6F12854   6.300   3.390  10.323 -0.0173  0.3285  0.6030
  121OSM    H6F12855   6.289   3.500  10.329  0.3844  0.8119 -3.8825
  121OSM    H6G12856   6.206   3.357  10.273  0.4172 -0.1618  0.0955
  121OSM    C7F12857   6.413   3.359  10.223 -0.3283 -0.1185  0.1536
  121OSM    H7F12858   6.430   3.250  10.213  2.0637  0.3434 -1.5862
  121OSM    H7G12859   6.505   3.410  10.259  0.8090 -2.0310  0.0922
  121OSM    C8F12860   6.391   3.403  10.076  0.0936  0.4430  0.3383
  121OSM    H8F12861   6.353   3.508  10.080  1.0236  0.7551  2.0295
  121OSM    H8G12862   6.301   3.346  10.046  0.1252  0.0386  0.9846
  121OSM    C9F12863   6.504   3.375   9.976  0.0415 -0.9068 -0.5621
  121OSM    H9F12864   6.602   3.385  10.025  1.0768 -1.7775 -2.3524
  121OSM   C10F12865   6.499   3.340   9.848  0.5193  0.4565  0.8938
  121OSM   H10F12866   6.589   3.342   9.785 -0.7550  0.5893 -0.9956
  121OSM   C11F12867   6.370   3.312   9.766  0.4910  0.6290 -0.4357
  121OSM   H11F12868   6.315   3.407   9.751 -0.4438  0.2257  0.3394
  121OSM   H11G12869   6.299   3.247   9.821  0.6750  0.3930 -0.4722
  121OSM   C12F12870   6.395   3.239   9.633  0.4327  0.2899 -0.0956
  121OSM   H12F12871   6.299   3.206   9.587  0.2554 -2.1666  1.7958
  121OSM   H12G12872   6.449   3.142   9.644 -0.7984 -0.2945  1.1823
  121OSM   C13F12873   6.457   3.322   9.523 -0.4195 -0.5286 -0.4429
  121OSM   H13F12874   6.567   3.325   9.543 -0.3812 -1.3916 -0.5102
  121OSM   H13G12875   6.421   3.426   9.539 -2.7996 -1.7400  3.5900
  121OSM   C14F12876   6.426   3.281   9.384  0.4358  0.5018  0.2896
  121OSM   H14F12877   6.323   3.310   9.353  0.0073 -0.7967  0.4206
  121OSM   H14G12878   6.429   3.173   9.358 -0.1583  0.5956 -0.1910
  121OSM   C15F12879   6.501   3.369   9.285 -0.0873  0.1636  0.8859
  121OSM   H15F12880   6.609   3.384   9.304  0.1563  0.0099 -0.2996
  121OSM   H15G12881   6.454   3.469   9.299 -2.3398 -0.8027  0.6197
  121OSM   C16F12882   6.496   3.328   9.142 -0.3923  0.6988  0.5200
  121OSM   H16F12883   6.397   3.285   9.115  0.9050 -2.8453  0.8695
  121OSM   H16G12884   6.570   3.246   9.133  0.1186  1.3470 -2.0695
  121OSM   C17F12885   6.525   3.434   9.029 -0.4035  0.5299  0.1203
  121OSM   H17F12886   6.454   3.518   9.046 -0.9672  0.5114 -1.8999
  121OSM   H17G12887   6.506   3.414   8.922  0.1423  3.4438 -0.5928
  121OSM   C18F12888   6.670   3.481   9.018 -0.0701  0.1684  0.2434
  121OSM   H18F12889   6.729   3.393   8.983  1.5911  1.2952  0.1029
  121OSM   H18G12890   6.704   3.503   9.122  0.6303 -3.0942  0.8378
  121OSM   H18H12891   6.686   3.560   8.942 -0.3125  1.2213  1.2509
  122OSM      N12892   0.057   2.098  10.777 -0.4377  0.5170 -0.2704
  122OSM    C1512893   0.056   1.958  10.717 -0.1554 -0.0217  0.5145
  122OSM   H15A12894   0.062   1.885  10.797  0.4547 -1.8791 -1.1414
  122OSM   H15B12895   0.144   1.942  10.657  0.6551 -0.0841  1.6767
  122OSM   H15C12896  -0.033   1.946  10.658  0.2709  1.5001 -0.5229
  122OSM    C1412897   0.160   2.098  10.886  0.2059 -0.2164 -0.1372
  122OSM   H14A12898   0.133   2.028  10.963 -2.3914 -0.1639 -0.8863
  122OSM   H14B12899   0.184   2.196  10.923  1.9994 -0.7861  0.2900
  122OSM   H14C12900   0.252   2.064  10.841 -2.0666 -1.3795 -4.5093
  122OSM    C1312901   0.093   2.193  10.664 -0.1710  0.4077  0.1696
  122OSM   H13A12902   0.008   2.256  10.644  0.4580  2.1960  2.7060
  122OSM   H13B12903   0.117   2.133  10.577 -0.2569  0.3634  0.1759
  122OSM   H13C12904   0.179   2.252  10.691 -0.4332  0.9967 -0.2741
  122OSM    C1212905  -0.075   2.130  10.845  0.0601  1.2712  0.0644
  122OSM   H12A12906  -0.062   2.223  10.899  1.0035  0.6000  1.0325
  122OSM   H12B12907  -0.098   2.043  10.904 -1.4139 -0.0688 -2.3430
  122OSM    C1112908  -0.191   2.160  10.746 -0.2537  0.9684  0.6324
  122OSM   H11A12909  -0.174   2.254  10.689  0.8603 -0.2946 -1.2777
  122OSM   H11B12910  -0.286   2.167  10.803  0.1589  0.3186  1.4211
  122OSM      P12911  -0.341   1.977  10.622  0.0461  0.3486 -0.3246
  122OSM    O1312912  -0.324   1.881  10.510 -0.5154 -0.1034 -0.2556
  122OSM    O1412913  -0.379   1.914  10.752 -0.3459  0.1052 -0.3046
  122OSM    O1112914  -0.449   2.077  10.574  0.4070 -0.0117 -0.1317
  122OSM    O1212915  -0.204   2.059  10.643  0.0744  0.1823 -0.3312
  122OSM    C1S12916  -0.430   2.197  10.498 -0.2805  0.1757  0.6885
  122OSM    H1S12917  -0.322   2.224  10.497 -0.3988  0.6557  0.4717
  122OSM    H1T12918  -0.497   2.274  10.542 -1.5157  0.5120 -1.6468
  122OSM     NF12919  -0.433   2.318  10.283  0.6185  0.3892 -0.2784
  122OSM    HNF12920  -0.513   2.361  10.241  0.1932 -1.7244 -1.8018
  122OSM    C2S12921  -0.466   2.191  10.346 -0.0256  0.6696 -0.0514
  122OSM    H2S12922  -0.388   2.120  10.310  0.0584  1.5593 -1.7346
  122OSM    C3S12923  -0.612   2.134  10.325 -0.8533 -0.2197 -0.0290
  122OSM    H3S12924  -0.683   2.213  10.358  0.7103  0.7378  1.1756
  122OSM     O312925  -0.639   2.004  10.392 -0.0953  0.1779  0.1705
  122OSM    HO312926  -0.559   1.980  10.440 -0.7896 -0.9444  0.7831
  122OSM    C4S12927  -0.629   2.128  10.176 -0.2372  0.3083  0.0377
  122OSM    H4S12928  -0.664   2.225  10.139  0.6190  1.4731  2.1111
  122OSM    C5S12929  -0.608   2.026  10.084 -0.1694  0.0338 -1.0535
  122OSM    H5S12930  -0.579   1.927  10.123 -3.1771 -0.6047 -0.2039
  122OSM    C6S12931  -0.629   2.029   9.941 -0.1408 -0.2156 -0.3919
  122OSM    H6S12932  -0.736   2.047   9.916 -0.8601 -2.3873  0.8551
  122OSM    H6T12933  -0.609   1.926   9.905 -0.1490 -0.2125 -0.4050
  122OSM    C7S12934  -0.548   2.128   9.868 -0.1574 -0.7802  0.1031
  122OSM    H7S12935  -0.444   2.090   9.875 -1.0143 -2.9358  3.4485
  122OSM    H7T12936  -0.555   2.230   9.910 -1.4128 -0.7218 -0.2073
  122OSM    C8S12937  -0.582   2.127   9.717  0.3672 -0.0893 -0.6376
  122OSM    H8S12938  -0.686   2.158   9.692  0.4713  0.8481  0.0361
  122OSM    H8T12939  -0.560   2.023   9.683 -0.1220  0.1252 -1.6854
  122OSM    C9S12940  -0.496   2.213   9.633  0.3358  0.3911  1.4817
  122OSM    H9S12941  -0.391   2.178   9.647 -0.0849 -1.1065  1.0959
  122OSM    H9T12942  -0.509   2.322   9.649 -0.4468  0.3013  1.4942
  122OSM   C10S12943  -0.534   2.193   9.485  0.4666  0.0260 -0.6162
  122OSM   H10S12944  -0.640   2.228   9.481  1.1192  2.2956  0.2766
  122OSM   H10T12945  -0.531   2.086   9.458  0.9103 -0.0003 -0.4601
  122OSM   C11S12946  -0.453   2.276   9.389 -0.0336 -0.2219 -0.8622
  122OSM   H11S12947  -0.346   2.246   9.397  0.4074  1.6213  1.1042
  122OSM   H11T12948  -0.461   2.383   9.417  0.8970 -0.0028 -1.3859
  122OSM   C12S12949  -0.497   2.253   9.243  0.1692 -0.0270  0.9131
  122OSM   H12S12950  -0.603   2.283   9.232  0.1580 -0.0237  1.0379
  122OSM   H12T12951  -0.471   2.145   9.239 -0.9329 -0.2815  0.3072
  122OSM   C13S12952  -0.428   2.331   9.133 -0.1093 -0.2619  0.2740
  122OSM   H13S12953  -0.333   2.277   9.113  0.2975 -0.4141  2.4102
  122OSM   H13T12954  -0.401   2.435   9.163 -1.1582 -0.4179  1.8951
  122OSM   C14S12955  -0.518   2.329   9.002  0.7241 -0.4710 -0.1367
  122OSM   H14S12956  -0.624   2.320   9.033  1.2473 -0.8457  1.6508
  122OSM   H14T12957  -0.501   2.233   8.949 -2.1927 -1.6678  0.8791
  122OSM   C15S12958  -0.488   2.451   8.911  0.4287  0.3232 -0.0753
  122OSM   H15S12959  -0.390   2.435   8.860 -0.2204 -0.7941 -1.0192
  122OSM   H15T12960  -0.490   2.540   8.977 -1.4768  0.8289 -0.7495
  122OSM   C16S12961  -0.595   2.461   8.802  0.7971  0.1100 -0.4881
  122OSM   H16S12962  -0.696   2.457   8.849  1.2931 -1.7930  0.5335
  122OSM   H16T12963  -0.599   2.371   8.736 -0.8111 -1.2835  1.3819
  122OSM   C17S12964  -0.583   2.597   8.733 -0.1035 -0.1091  0.2455
  122OSM   H17S12965  -0.609   2.575   8.627  0.1919 -1.1804  0.3856
  122OSM   H17T12966  -0.475   2.621   8.742  0.1809 -0.1697 -2.1630
  122OSM   C18S12967  -0.681   2.697   8.792 -0.5750 -0.3749 -0.1602
  122OSM   H18S12968  -0.759   2.730   8.720  0.4289 -0.8848 -1.5170
  122OSM   H18T12969  -0.626   2.791   8.814 -0.1325 -0.0772 -2.3357
  122OSM   H18U12970  -0.736   2.665   8.884 -1.6353  0.0470 -0.6295
  122OSM    C1F12971  -0.312   2.367  10.271  0.0926 -0.6098  0.4982
  122OSM     OF12972  -0.219   2.287  10.283  0.3940 -0.6315  0.0849
  122OSM    C2F12973  -0.290   2.511  10.237  0.1225  0.4943 -0.1428
  122OSM    H2F12974  -0.344   2.568  10.316  3.4475  1.1820  1.8060
  122OSM    H2G12975  -0.344   2.527  10.141 -2.4893  2.1065  1.4720
  122OSM    C3F12976  -0.151   2.571  10.247  0.2645  0.1680  0.3361
  122OSM    H3F12977  -0.077   2.498  10.207  0.1343  1.0593 -1.6284
  122OSM    H3G12978  -0.132   2.598  10.353 -0.5601  1.3927  0.1970
  122OSM    C4F12979  -0.140   2.697  10.157 -0.1277 -0.0054  0.0323
  122OSM    H4F12980  -0.175   2.776  10.227 -0.3752 -0.8667  0.9217
  122OSM    H4G12981  -0.216   2.688  10.076 -1.0012 -1.6049  0.9609
  122OSM    C5F12982  -0.002   2.723  10.101  0.7783 -0.1798  0.5676
  122OSM    H5F12983  -0.006   2.810  10.032 -1.9782 -1.4902 -1.0901
  122OSM    H5G12984   0.034   2.637  10.040  1.7988  0.2190  0.5981
  122OSM    C6F12985   0.107   2.752  10.217  0.2823  0.4695 -0.8732
  122OSM    H6F12986   0.096   2.678  10.298 -2.5704 -0.2859 -1.8243
  122OSM    H6G12987   0.072   2.843  10.271  0.3417  0.2463 -0.4615
  122OSM    C7F12988   0.253   2.754  10.163  0.4420  0.0207  0.3344
  122OSM    H7F12989   0.283   2.648  10.147  2.3414  0.5178  0.3993
  122OSM    H7G12990   0.317   2.786  10.248  2.2970 -1.2899 -0.5002
  122OSM    C8F12991   0.270   2.842  10.036  0.4365 -0.5258  0.0900
  122OSM    H8F12992   0.243   2.945  10.067  2.0006 -0.5379  1.6266
  122OSM    H8G12993   0.203   2.818   9.951  1.3383  0.6083 -0.9775
  122OSM    C9F12994   0.420   2.832   9.998  0.0901 -0.3490 -0.0761
  122OSM    H9F12995   0.483   2.802  10.083  1.3113  1.0558 -0.4488
  122OSM   C10F12996   0.485   2.851   9.883  0.3571  0.1446  0.0704
  122OSM   H10F12997   0.592   2.827   9.896  0.3130  0.3741  0.9257
  122OSM   C11F12998   0.430   2.884   9.745  0.7705  0.6414  0.4797
  122OSM   H11F12999   0.331   2.932   9.759  1.5713  1.8342  2.3174
  122OSM   H11G13000   0.426   2.790   9.685 -0.7884  1.0185 -0.0631
  122OSM   C12F13001   0.505   2.983   9.653  0.4355 -0.1935  0.1021
  122OSM   H12F13002   0.613   2.958   9.654  0.0883 -1.8047  0.8310
  122OSM   H12G13003   0.484   3.079   9.705  0.9873 -0.4502  0.8084
  122OSM   C13F13004   0.438   2.989   9.517  0.4013  0.0728 -0.3483
  122OSM   H13F13005   0.328   2.991   9.524  0.1846  3.1044 -2.4354
  122OSM   H13G13006   0.470   2.903   9.455  2.3380 -0.1189  0.8304
  122OSM   C14F13007   0.468   3.121   9.444  0.3955 -0.0990  0.7890
  122OSM   H14F13008   0.431   3.204   9.508 -2.1704  0.1702 -0.9327
  122OSM   H14G13009   0.414   3.128   9.348 -0.8763  0.7293  1.5383
  122OSM   C15F13010   0.618   3.144   9.417 -0.4363  0.8177  0.3274
  122OSM   H15F13011   0.648   3.067   9.342 -1.4773  0.1647  0.5657
  122OSM   H15G13012   0.684   3.125   9.504  0.6740 -0.3896 -0.7310
  122OSM   C16F13013   0.637   3.288   9.366  0.8989  0.4640  0.4784
  122OSM   H16F13014   0.562   3.353   9.415  1.4345  1.0995  0.4664
  122OSM   H16G13015   0.615   3.305   9.259 -1.1662  3.1661  1.2196
  122OSM   C17F13016   0.784   3.329   9.380  0.1164  0.1042 -0.1707
  122OSM   H17F13017   0.850   3.256   9.328  0.0499  0.1247 -0.2820
  122OSM   H17G13018   0.829   3.314   9.481  0.3869  2.0728  0.0402
  122OSM   C18F13019   0.815   3.463   9.326 -0.1210 -0.7583 -0.1493
  122OSM   H18F13020   0.790   3.464   9.218  1.8994 -1.3205 -0.6604
  122OSM   H18G13021   0.922   3.491   9.338 -0.2713 -0.6661  1.1884
  122OSM   H18H13022   0.758   3.545   9.375  1.9672  0.5383  0.2589
  123OSM      N13023   4.229   1.613   6.021 -0.1998  0.0130 -0.1716
  123OSM    C1513024   4.150   1.740   5.995 -0.1544 -0.2016  0.1825
  123OSM   H15A13025   4.140   1.802   6.083  0.3454  0.0852  0.0414
  123OSM   H15B13026   4.058   1.721   5.941  1.7075 -4.3483 -1.9969
  123OSM   H15C13027   4.211   1.798   5.927 -0.8683 -0.0039 -0.2988
  123OSM    C1413028   4.238   1.527   5.900  0.7934  0.3743  0.4935
  123OSM   H14A13029   4.291   1.435   5.919  1.5097  0.5750 -0.4152
  123OSM   H14B13030   4.294   1.574   5.819  1.5671 -1.1648  0.1056
  123OSM   H14C13031   4.139   1.509   5.862  1.5325  0.1108 -1.4437
  123OSM    C1313032   4.370   1.654   6.050 -0.2267 -0.0676 -0.5690
  123OSM   H13A13033   4.431   1.567   6.065  0.0697  0.0805 -0.8964
  123OSM   H13B13034   4.379   1.717   6.138  1.0612  1.0593 -1.4595
  123OSM   H13C13035   4.411   1.707   5.965 -0.7452  0.6077 -0.4173
  123OSM    C1213036   4.166   1.553   6.143  0.6492  0.1601  0.5110
  123OSM   H12A13037   4.062   1.533   6.123  0.9213  0.3313 -1.2381
  123OSM   H12B13038   4.153   1.626   6.222 -0.8251  1.2228 -0.6584
  123OSM    C1113039   4.219   1.417   6.196 -0.0270 -0.4692  0.0911
  123OSM   H11A13040   4.168   1.395   6.292  0.9881 -0.8439  0.5575
  123OSM   H11B13041   4.327   1.427   6.220  0.4347  2.4286 -2.5935
  123OSM      P13042   4.072   1.226   6.078 -0.5255 -0.2021 -0.0415
  123OSM    O1313043   3.968   1.308   6.013  0.8887  0.0451 -0.2013
  123OSM    O1413044   4.116   1.110   5.999  0.3561  0.1532 -0.1835
  123OSM    O1113045   4.021   1.179   6.223 -0.4195  0.6309 -0.8017
  123OSM    O1213046   4.204   1.311   6.107 -0.0324  0.4755  0.0658
  123OSM    C1S13047   4.119   1.118   6.308 -0.7766 -0.0528 -0.3683
  123OSM    H1S13048   4.214   1.173   6.327 -0.6789 -1.0136  2.5090
  123OSM    H1T13049   4.159   1.028   6.258  0.1303  0.3228 -0.3395
  123OSM     NF13050   4.163   1.079   6.547  0.8233  0.5928  0.0286
  123OSM    HNF13051   4.195   0.987   6.565  2.6775  1.2986  0.5270
  123OSM    C2S13052   4.057   1.091   6.449 -0.2227  0.0300 -1.0136
  123OSM    H2S13053   3.995   1.178   6.476  0.7677  0.1205  1.2022
  123OSM    C3S13054   3.962   0.969   6.452  0.1084  0.5586 -0.0345
  123OSM    H3S13055   4.032   0.883   6.455  0.1900  0.4155 -3.2019
  123OSM     O313056   3.866   0.959   6.346 -0.0732 -0.0818  0.4588
  123OSM    HO313057   3.894   1.014   6.272 -2.7747  0.1899 -0.4558
  123OSM    C4S13058   3.884   0.970   6.583 -0.3853 -0.6157  0.3967
  123OSM    H4S13059   3.941   0.925   6.666 -0.9622 -1.7441  0.2090
  123OSM    C5S13060   3.762   1.023   6.611  0.0301 -0.3731 -1.2412
  123OSM    H5S13061   3.697   1.064   6.532 -1.2615  0.4037  0.1550
  123OSM    C6S13062   3.702   1.021   6.755  0.4263 -0.4504  0.5725
  123OSM    H6S13063   3.618   0.949   6.766 -0.0617 -0.0787 -0.5309
  123OSM    H6T13064   3.657   1.119   6.781  1.3736 -0.0998  0.8961
  123OSM    C7S13065   3.805   0.996   6.866  0.2889 -0.0292 -0.3623
  123OSM    H7S13066   3.898   1.052   6.843  0.9107 -0.5144  0.8899
  123OSM    H7T13067   3.822   0.887   6.873  1.8628  0.1874 -0.5270
  123OSM    C8S13068   3.742   1.045   6.998 -0.4114  0.6066  0.5852
  123OSM    H8S13069   3.656   0.977   7.015  0.8762 -1.3096 -0.1777
  123OSM    H8T13070   3.694   1.143   6.980 -0.9476 -0.0135 -1.6153
  123OSM    C9S13071   3.844   1.050   7.110 -0.0414  1.0805  0.8559
  123OSM    H9S13072   3.926   1.120   7.087 -1.1613  2.3824  0.6987
  123OSM    H9T13073   3.881   0.948   7.136  1.9829  1.3332 -0.7794
  123OSM   C10S13074   3.778   1.115   7.235 -0.3947  0.9092 -0.1954
  123OSM   H10S13075   3.682   1.070   7.270 -0.3871  2.0660  1.4577
  123OSM   H10T13076   3.750   1.220   7.211 -2.0606  0.3710 -0.7885
  123OSM   C11S13077   3.866   1.085   7.358  0.0222 -0.4117 -0.1286
  123OSM   H11S13078   3.962   1.140   7.350  0.6091 -0.3199  4.6144
  123OSM   H11T13079   3.887   0.976   7.361  0.7545 -0.2936 -0.7305
  123OSM   C12S13080   3.796   1.114   7.490 -0.5178 -0.6124  0.6350
  123OSM   H12S13081   3.703   1.056   7.508 -0.7595  0.8265  5.0188
  123OSM   H12T13082   3.764   1.220   7.482 -0.8577 -0.7783 -0.3163
  123OSM   C13S13083   3.899   1.113   7.604 -0.0796 -0.4628  0.2554
  123OSM   H13S13084   3.975   1.193   7.590 -0.5572  0.1472  1.0563
  123OSM   H13T13085   3.946   1.012   7.611  2.5418  0.4898 -2.1698
  123OSM   C14S13086   3.821   1.146   7.734 -0.3413 -0.4998 -0.1743
  123OSM   H14S13087   3.739   1.071   7.746 -2.3959  1.6431 -0.0520
  123OSM   H14T13088   3.775   1.247   7.723  0.9474 -0.0618 -1.8569
  123OSM   C15S13089   3.923   1.157   7.845 -0.0540 -0.8581 -0.0234
  123OSM   H15S13090   4.010   1.221   7.819  0.4806 -0.3852  2.6851
  123OSM   H15T13091   3.954   1.055   7.875 -0.8134 -1.6187 -1.7162
  123OSM   C16S13092   3.864   1.235   7.968  0.7157  0.0017  0.1596
  123OSM   H16S13093   3.796   1.321   7.949  1.9184  1.3410  1.6118
  123OSM   H16T13094   3.944   1.261   8.041 -0.3893 -0.4570  1.5773
  123OSM   C17S13095   3.776   1.141   8.064  0.1922  0.4475 -0.3309
  123OSM   H17S13096   3.856   1.083   8.115 -0.2418 -1.4415 -1.6887
  123OSM   H17T13097   3.709   1.073   8.007 -0.4399  0.5245  0.3006
  123OSM   C18S13098   3.692   1.216   8.167  0.2485 -0.2449 -0.3399
  123OSM   H18S13099   3.628   1.282   8.104 -0.3248 -0.8024 -0.3507
  123OSM   H18T13100   3.749   1.271   8.244 -3.7457  1.1575  1.9487
  123OSM   H18U13101   3.629   1.148   8.228  2.7327 -0.0309  2.7241
  123OSM    C1F13102   4.240   1.173   6.602 -0.4853 -0.0964  0.3627
  123OSM     OF13103   4.247   1.283   6.546 -0.0207  0.1537 -0.0505
  123OSM    C2F13104   4.329   1.139   6.708 -0.4022 -0.3251 -0.4440
  123OSM    H2F13105   4.432   1.131   6.668  0.4221 -0.3093  1.5640
  123OSM    H2G13106   4.312   1.044   6.763  1.5516 -0.4237  0.0703
  123OSM    C3F13107   4.331   1.251   6.815  0.3396  0.1162 -0.1722
  123OSM    H3F13108   4.375   1.345   6.775  1.0101  0.0854  0.4647
  123OSM    H3G13109   4.385   1.211   6.904  0.6024 -0.7513 -0.7110
  123OSM    C4F13110   4.190   1.286   6.875 -0.1814  0.6102 -0.0629
  123OSM    H4F13111   4.149   1.191   6.917  3.2040 -0.9361  0.0372
  123OSM    H4G13112   4.126   1.327   6.794 -0.3353  0.8019  0.1560
  123OSM    C5F13113   4.188   1.386   6.990  0.4142 -0.2782  0.1580
  123OSM    H5F13114   4.086   1.422   7.013  0.0740 -0.8911 -0.3589
  123OSM    H5G13115   4.250   1.475   6.966  0.2314 -0.4394 -0.9806
  123OSM    C6F13116   4.252   1.335   7.124  0.4246  0.0060 -0.9325
  123OSM    H6F13117   4.360   1.315   7.108  0.7909  0.6734  0.5114
  123OSM    H6G13118   4.195   1.245   7.156  0.1449  0.1196 -1.1122
  123OSM    C7F13119   4.242   1.448   7.229  0.2937  0.9949  0.6776
  123OSM    H7F13120   4.137   1.485   7.224 -0.2211 -0.4579  0.3393
  123OSM    H7G13121   4.305   1.534   7.199  0.8126  1.0589  1.8833
  123OSM    C8F13122   4.269   1.409   7.375 -0.7722 -0.0836 -0.2681
  123OSM    H8F13123   4.371   1.367   7.387  0.1206  1.8121 -0.7806
  123OSM    H8G13124   4.199   1.330   7.410 -1.2064  0.8424  0.9943
  123OSM    C9F13125   4.263   1.538   7.463 -0.2770 -0.4687  0.5223
  123OSM    H9F13126   4.204   1.620   7.419  0.5842 -0.2195 -0.2067
  123OSM   C10F13127   4.316   1.561   7.587 -0.3427  0.0822 -0.7034
  123OSM   H10F13128   4.289   1.658   7.633 -1.2004 -1.1240  1.4578
  123OSM   C11F13129   4.412   1.477   7.672  0.0427  0.0905 -0.0791
  123OSM   H11F13130   4.515   1.460   7.634 -0.5081 -2.9122 -0.4701
  123OSM   H11G13131   4.377   1.372   7.685 -0.2441  0.3224  1.1346
  123OSM   C12F13132   4.433   1.523   7.824 -0.3685  0.0173 -0.1504
  123OSM   H12F13133   4.443   1.634   7.824  0.9562 -0.0881  0.2470
  123OSM   H12G13134   4.524   1.481   7.871  0.2181  2.1947  0.8037
  123OSM   C13F13135   4.313   1.484   7.913  0.2041  0.1089  0.2662
  123OSM   H13F13136   4.302   1.374   7.915  1.6912 -0.1744 -2.4148
  123OSM   H13G13137   4.230   1.538   7.862  0.4078  0.5180  0.3581
  123OSM   C14F13138   4.328   1.539   8.056 -0.5894 -0.0773 -0.1354
  123OSM   H14F13139   4.320   1.649   8.043 -0.3019  0.0982  1.0531
  123OSM   H14G13140   4.423   1.516   8.109 -0.7317 -1.5416 -0.4688
  123OSM   C15F13141   4.217   1.503   8.156  0.3634 -0.3661  0.8288
  123OSM   H15F13142   4.246   1.402   8.194 -1.3303 -1.3518 -0.3907
  123OSM   H15G13143   4.119   1.500   8.104 -0.6838  0.5800  2.6591
  123OSM   C16F13144   4.199   1.604   8.272  0.0694  0.1524  0.0098
  123OSM   H16F13145   4.181   1.708   8.235  0.2812  0.0712 -0.3302
  123OSM   H16G13146   4.287   1.609   8.341 -0.4535  0.9718  0.6437
  123OSM   C17F13147   4.081   1.566   8.363 -0.3672  0.3276  0.1847
  123OSM   H17F13148   4.106   1.458   8.379  0.7695  0.8517  2.3269
  123OSM   H17G13149   3.984   1.579   8.311 -1.2719  1.3095  2.0540
  123OSM   C18F13150   4.066   1.632   8.500 -0.3713  0.7137  0.0389
  123OSM   H18F13151   4.026   1.734   8.481  0.7291  1.0816 -0.3403
  123OSM   H18G13152   4.162   1.628   8.555  1.2079 -4.4199 -2.4824
  123OSM   H18H13153   3.996   1.568   8.559  0.7442  2.7326  3.8505
  124OSM      N13154   2.267   4.886   6.352  0.6783  0.3058 -0.6926
  124OSM    C1513155   2.166   4.927   6.252  0.1568 -0.0613 -0.4584
  124OSM   H15A13156   2.154   4.845   6.183  0.1051 -0.3098 -0.1550
  124OSM   H15B13157   2.198   5.012   6.193 -0.0119  0.8628  0.7425
  124OSM   H15C13158   2.070   4.958   6.292 -0.4993 -1.8210 -0.5588
  124OSM    C1413159   2.394   4.863   6.274  0.0045 -0.0491 -0.1974
  124OSM   H14A13160   2.468   4.789   6.303  3.1816  2.3096 -1.6479
  124OSM   H14B13161   2.449   4.956   6.279 -0.4673  0.2115  0.3262
  124OSM   H14C13162   2.370   4.843   6.171 -2.1736 -2.4546  0.6779
  124OSM    C1313163   2.292   4.991   6.452  0.4664 -0.0546 -0.6264
  124OSM   H13A13164   2.331   4.945   6.542 -0.1354  0.5652 -0.0343
  124OSM   H13B13165   2.197   5.037   6.477 -0.9227 -2.0819 -1.8899
  124OSM   H13C13166   2.359   5.068   6.417  2.6909 -1.1618  0.9933
  124OSM    C1213167   2.219   4.763   6.422  0.7988  0.4218 -0.0031
  124OSM   H12A13168   2.300   4.718   6.479 -1.0796 -2.1591  0.8294
  124OSM   H12B13169   2.181   4.693   6.349 -0.3814  2.1229 -1.0839
  124OSM    C1113170   2.099   4.781   6.516 -0.6326  0.6041 -1.0340
  124OSM   H11A13171   2.106   4.873   6.578 -0.5159 -0.7054  1.0094
  124OSM   H11B13172   2.091   4.705   6.596 -0.7508  1.5521 -0.1193
  124OSM      P13173   1.879   4.670   6.454  0.2752 -0.0580 -0.0925
  124OSM    O1313174   1.749   4.700   6.396  0.7763 -0.6018 -0.3545
  124OSM    O1413175   1.938   4.544   6.415  0.3497 -0.0767 -0.3811
  124OSM    O1113176   1.862   4.662   6.613  0.1746 -0.4800  0.3636
  124OSM    O1213177   1.980   4.786   6.438  0.0862 -0.2623  0.2692
  124OSM    C1S13178   1.738   4.683   6.677 -0.1683  0.1735  0.1574
  124OSM    H1S13179   1.661   4.610   6.643  1.7219 -1.4044 -0.8921
  124OSM    H1T13180   1.708   4.786   6.647 -2.7273 -0.4681  0.2927
  124OSM     NF13181   1.644   4.747   6.894 -0.1765  0.2803  0.8033
  124OSM    HNF13182   1.684   4.831   6.930  0.8193  0.4700 -0.6742
  124OSM    C2S13183   1.746   4.666   6.836  0.0164  0.1904 -0.3171
  124OSM    H2S13184   1.718   4.559   6.849  0.7789  0.1040  0.8137
  124OSM    C3S13185   1.884   4.685   6.898 -0.2480 -0.2985 -0.3680
  124OSM    H3S13186   1.921   4.789   6.903 -1.3573  0.1444 -0.9522
  124OSM     O313187   1.987   4.613   6.828 -0.2058 -0.5904  0.6147
  124OSM    HO313188   1.942   4.609   6.742 -3.9809  0.3845  2.3245
  124OSM    C4S13189   1.891   4.615   7.031  0.3871 -0.1606  0.2637
  124OSM    H4S13190   1.927   4.512   7.026 -0.1462 -0.3746 -4.8592
  124OSM    C5S13191   1.878   4.674   7.149 -0.4488 -0.6214 -0.3841
  124OSM    H5S13192   1.863   4.783   7.153 -1.3832 -0.7856  1.8673
  124OSM    C6S13193   1.896   4.612   7.292 -0.1744  0.3847  0.3202
  124OSM    H6S13194   1.800   4.619   7.348 -1.1790 -2.1996 -0.9201
  124OSM    H6T13195   1.967   4.670   7.355 -1.0335  0.8972  0.8377
  124OSM    C7S13196   1.945   4.458   7.300  0.0171 -0.3884 -0.1345
  124OSM    H7S13197   2.046   4.464   7.255  0.2662 -0.2129  0.4484
  124OSM    H7T13198   1.877   4.394   7.239  0.0812 -0.9774  0.3985
  124OSM    C8S13199   1.945   4.389   7.441  0.3219  0.3879  0.3238
  124OSM    H8S13200   1.961   4.282   7.415  1.9859  0.8103 -0.4775
  124OSM    H8T13201   1.851   4.400   7.500  0.4536  1.3976  0.3560
  124OSM    C9S13202   2.058   4.440   7.530  0.1321  0.2722  0.0401
  124OSM    H9S13203   2.049   4.549   7.550  4.0019  0.8262 -0.4228
  124OSM    H9T13204   2.160   4.415   7.494 -0.0017 -0.4508  0.1577
  124OSM   C10S13205   2.076   4.357   7.659  0.1947 -0.4699  1.1996
  124OSM   H10S13206   1.996   4.395   7.725  0.0974 -0.2394  0.9494
  124OSM   H10T13207   2.170   4.378   7.714 -0.7051  2.0242  1.9038
  124OSM   C11S13208   2.061   4.208   7.643  0.4537  0.3168  0.0600
  124OSM   H11S13209   2.133   4.189   7.561 -0.0984  3.1879 -1.2005
  124OSM   H11T13210   1.963   4.189   7.594  0.3164  0.2397  0.3608
  124OSM   C12S13211   2.074   4.130   7.775 -1.1193  0.1327  0.0632
  124OSM   H12S13212   2.178   4.144   7.812 -0.9915  0.7679 -0.5028
  124OSM   H12T13213   2.060   4.021   7.759  0.6581 -0.1630  0.4046
  124OSM   C13S13214   2.000   4.176   7.906  0.0563  0.5045  0.3315
  124OSM   H13S13215   1.894   4.145   7.890  0.1505  0.7271 -0.7953
  124OSM   H13T13216   1.992   4.286   7.915 -0.7583  0.4997 -0.1987
  124OSM   C14S13217   2.046   4.095   8.027 -0.6131  0.3469 -0.7213
  124OSM   H14S13218   2.137   4.141   8.070 -0.1934 -2.0811  1.2478
  124OSM   H14T13219   2.076   3.989   8.011  0.7482  0.4706  0.7753
  124OSM   C15S13220   1.940   4.092   8.141 -0.1948  0.3696  0.0112
  124OSM   H15S13221   1.968   4.016   8.217 -1.0664 -0.5363 -0.5538
  124OSM   H15T13222   1.842   4.065   8.097 -0.2139  1.2106 -0.4669
  124OSM   C16S13223   1.912   4.223   8.210  0.4773  0.3530  0.1354
  124OSM   H16S13224   1.822   4.271   8.165  0.3603 -1.0056 -1.1468
  124OSM   H16T13225   1.993   4.298   8.193  0.7151  1.0361  3.6600
  124OSM   C17S13226   1.902   4.214   8.359 -0.2406  0.0168  0.2519
  124OSM   H17S13227   1.995   4.187   8.414 -1.2399 -0.2537  1.9004
  124OSM   H17T13228   1.821   4.142   8.385  1.1561 -0.9896  2.0890
  124OSM   C18S13229   1.866   4.346   8.422 -0.0396  0.8003 -0.1187
  124OSM   H18S13230   1.843   4.337   8.530  0.9172  0.8987  0.1016
  124OSM   H18T13231   1.784   4.401   8.371 -1.4796 -0.4113  0.7844
  124OSM   H18U13232   1.958   4.407   8.436  0.9187 -0.9565  1.7414
  124OSM    C1F13233   1.512   4.732   6.870 -0.1846  0.4578  0.7264
  124OSM     OF13234   1.469   4.634   6.813 -0.2009 -0.7648  0.5121
  124OSM    C2F13235   1.426   4.842   6.918  0.4993  0.1622 -0.0969
  124OSM    H2F13236   1.361   4.802   6.998  1.5904 -0.5411  0.4603
  124OSM    H2G13237   1.354   4.869   6.838  0.6863  0.6021 -0.1166
  124OSM    C3F13238   1.497   4.978   6.945 -0.1072 -0.4524  0.4751
  124OSM    H3F13239   1.540   5.019   6.851  2.6053 -0.2672  1.7270
  124OSM    H3G13240   1.571   4.952   7.023 -0.2921 -1.0097  0.4672
  124OSM    C4F13241   1.396   5.081   6.999  0.2369 -0.4741  0.1762
  124OSM    H4F13242   1.344   5.040   7.089 -0.9246  0.8094  0.1312
  124OSM    H4G13243   1.320   5.085   6.918  0.5272  1.8165 -0.0369
  124OSM    C5F13244   1.474   5.214   7.016  0.0554  0.0350  0.2829
  124OSM    H5F13245   1.395   5.290   6.997 -0.5305 -0.3541  1.0866
  124OSM    H5G13246   1.556   5.236   6.945 -0.9047 -1.0579 -1.2265
  124OSM    C6F13247   1.513   5.247   7.160 -0.0686 -0.1358  0.0216
  124OSM    H6F13248   1.434   5.211   7.229  0.8859 -2.4018  0.0095
  124OSM    H6G13249   1.526   5.357   7.174  2.2770 -0.3107 -0.5311
  124OSM    C7F13250   1.642   5.183   7.194 -0.6676 -0.5134  0.1503
  124OSM    H7F13251   1.728   5.212   7.129 -0.6357  0.8196  0.7633
  124OSM    H7G13252   1.633   5.075   7.170  0.8369 -0.2105 -2.1220
  124OSM    C8F13253   1.677   5.214   7.341  0.5801  0.2661 -0.2668
  124OSM    H8F13254   1.598   5.167   7.404  2.4002 -1.7966  0.6054
  124OSM    H8G13255   1.678   5.323   7.362  1.8213  0.4791 -1.3507
  124OSM    C9F13256   1.812   5.154   7.380  0.6418 -0.0496  0.0857
  124OSM    H9F13257   1.896   5.191   7.320  3.0543 -0.2880  3.1191
  124OSM   C10F13258   1.827   5.054   7.470  0.3450  0.0898 -0.5446
  124OSM   H10F13259   1.928   5.018   7.493 -0.0561 -0.8677 -0.1926
  124OSM   C11F13260   1.720   4.992   7.550 -0.2278  0.2559 -0.9136
  124OSM   H11F13261   1.629   4.976   7.488 -0.5622  2.3221 -1.0424
  124OSM   H11G13262   1.703   5.051   7.642  1.2680 -0.4941 -0.1309
  124OSM   C12F13263   1.761   4.853   7.601 -0.0944  0.8002  0.1354
  124OSM   H12F13264   1.841   4.857   7.678  0.3843  4.8286 -0.3625
  124OSM   H12G13265   1.811   4.804   7.514  1.2204  1.9910  0.1766
  124OSM   C13F13266   1.646   4.764   7.655 -0.1104 -0.0792 -0.3044
  124OSM   H13F13267   1.559   4.779   7.588  2.2033 -0.1899 -3.5210
  124OSM   H13G13268   1.613   4.790   7.758  0.0712  0.3490 -0.3515
  124OSM   C14F13269   1.691   4.615   7.652  0.1947 -0.4270  0.7034
  124OSM   H14F13270   1.796   4.610   7.686  1.1344  0.7371 -1.7887
  124OSM   H14G13271   1.686   4.569   7.551 -0.2520  0.5836  0.2522
  124OSM   C15F13272   1.600   4.531   7.747  0.3313 -0.2682 -0.1944
  124OSM   H15F13273   1.501   4.561   7.706  0.8739  1.6055 -0.2163
  124OSM   H15G13274   1.606   4.556   7.855 -0.7789  0.4945 -0.2959
  124OSM   C16F13275   1.632   4.381   7.733 -0.2798  0.4269 -0.1918
  124OSM   H16F13276   1.700   4.353   7.816  0.8552  2.3626 -0.4061
  124OSM   H16G13277   1.676   4.365   7.632 -0.6582 -1.6679 -0.0686
  124OSM   C17F13278   1.511   4.292   7.759  0.0903  0.1907  0.2966
  124OSM   H17F13279   1.451   4.294   7.666 -0.5412 -1.4187  0.6497
  124OSM   H17G13280   1.449   4.336   7.840 -0.7311  0.0617 -0.2552
  124OSM   C18F13281   1.545   4.152   7.799  0.5509  1.0743  0.4395
  124OSM   H18F13282   1.599   4.151   7.895 -0.7599  0.7088  1.2044
  124OSM   H18G13283   1.611   4.121   7.715  0.2920  0.4218  0.4656
  124OSM   H18H13284   1.461   4.078   7.796  0.6511  0.9412  0.8572
  125OSM      N13285   0.515   5.123   6.326 -0.1072  0.9566 -0.1713
  125OSM    C1513286   0.579   4.991   6.281 -0.2338 -0.2548  1.4480
  125OSM   H15A13287   0.519   4.962   6.196  1.4433 -1.1116  0.5076
  125OSM   H15B13288   0.589   4.912   6.353  2.8956 -0.7828  0.6101
  125OSM   H15C13289   0.679   5.002   6.239 -1.2222 -0.5909 -1.1879
  125OSM    C1413290   0.380   5.097   6.383 -0.0960 -0.3791 -0.9130
  125OSM   H14A13291   0.381   5.033   6.470 -3.3883  0.2877 -0.2593
  125OSM   H14B13292   0.313   5.043   6.318 -3.8182  0.4018  1.9031
  125OSM   H14C13293   0.322   5.183   6.411 -0.8894 -1.8936  2.7036
  125OSM    C1313294   0.603   5.189   6.426 -0.4046 -0.1601 -0.2798
  125OSM   H13A13295   0.550   5.256   6.492 -2.5519 -0.0136 -1.9983
  125OSM   H13B13296   0.687   5.240   6.382 -1.4751  0.6827 -1.4214
  125OSM   H13C13297   0.640   5.108   6.487 -0.8306  0.4535  0.8204
  125OSM    C1213298   0.489   5.215   6.211  1.0212 -0.1261 -0.3187
  125OSM   H12A13299   0.424   5.295   6.241 -0.5677 -1.3938 -0.2384
  125OSM   H12B13300   0.421   5.168   6.141  1.5596  1.4730 -1.9910
  125OSM    C1113301   0.604   5.276   6.125  0.0430  0.0638 -0.0299
  125OSM   H11A13302   0.547   5.331   6.047  2.0291  0.5979 -1.1919
  125OSM   H11B13303   0.666   5.199   6.074  0.6978  0.1098  0.6838
  125OSM      P13304   0.659   5.517   6.230  0.0686 -0.2282 -0.2048
  125OSM    O1313305   0.780   5.606   6.231  0.3941  0.0575  0.5454
  125OSM    O1413306   0.545   5.566   6.147  0.3322 -0.1183  0.0250
  125OSM    O1113307   0.615   5.517   6.377  0.0472  0.5844  0.5066
  125OSM    O1213308   0.688   5.368   6.195 -0.7165  0.0903  0.5852
  125OSM    C1S13309   0.569   5.629   6.447  0.2646 -0.7497  0.1479
  125OSM    H1S13310   0.482   5.677   6.398  0.2077 -1.5916 -0.6085
  125OSM    H1T13311   0.647   5.708   6.446 -1.5548  1.1472 -1.2933
  125OSM     NF13312   0.435   5.704   6.640  0.1711 -0.8196  0.5444
  125OSM    HNF13313   0.469   5.763   6.713  1.1595  1.1466 -1.3873
  125OSM    C2S13314   0.531   5.604   6.594  0.9011  0.0111  0.7709
  125OSM    H2S13315   0.474   5.509   6.598 -1.3331  1.2198 -0.1901
  125OSM    C3S13316   0.661   5.585   6.670  0.6432 -0.1998 -0.3465
  125OSM    H3S13317   0.736   5.661   6.642  1.9581 -1.1600  0.4576
  125OSM     O313318   0.722   5.463   6.625 -0.4879 -0.1740 -0.1162
  125OSM    HO313319   0.672   5.453   6.543 -2.0309 -2.1964  0.9972
  125OSM    C4S13320   0.636   5.580   6.815  0.4042  0.7198  0.0821
  125OSM    H4S13321   0.601   5.481   6.848  2.9882  0.2464  1.6869
  125OSM    C5S13322   0.651   5.672   6.908 -0.6110  0.0724  0.7073
  125OSM    H5S13323   0.677   5.774   6.879  2.9998 -1.2143 -1.2227
  125OSM    C6S13324   0.622   5.637   7.051  0.1273  0.0572 -0.3355
  125OSM    H6S13325   0.570   5.539   7.064 -0.4394  0.2128 -1.3308
  125OSM    H6T13326   0.557   5.711   7.103  0.6506 -0.9337  1.8657
  125OSM    C7S13327   0.749   5.635   7.138  0.2025 -0.2002  0.1613
  125OSM    H7S13328   0.789   5.737   7.124 -0.8931 -0.0544 -2.7163
  125OSM    H7T13329   0.829   5.564   7.108  1.6410  1.0573  0.9390
  125OSM    C8S13330   0.709   5.586   7.274  0.5565 -0.1864 -0.2847
  125OSM    H8S13331   0.687   5.477   7.270 -0.4587  0.0338 -1.9316
  125OSM    H8T13332   0.616   5.636   7.309  0.3743 -0.3030 -0.5907
  125OSM    C9S13333   0.810   5.608   7.388 -0.1231  0.5292  0.4752
  125OSM    H9S13334   0.847   5.713   7.383  2.6775 -0.3818 -0.0232
  125OSM    H9T13335   0.901   5.546   7.369  0.0274  0.4871  1.2976
  125OSM   C10S13336   0.764   5.569   7.530  0.5230  0.2486 -0.3168
  125OSM   H10S13337   0.719   5.468   7.537  0.4017  0.3622  0.7445
  125OSM   H10T13338   0.687   5.645   7.556  1.6349  1.5861 -0.7995
  125OSM   C11S13339   0.870   5.564   7.636 -0.2075  0.1947 -0.5225
  125OSM   H11S13340   0.894   5.671   7.654 -2.2745  0.1967  3.3137
  125OSM   H11T13341   0.957   5.509   7.595 -0.9092 -1.0705 -0.4004
  125OSM   C12S13342   0.826   5.496   7.768  0.5994  0.8038 -0.3844
  125OSM   H12S13343   0.787   5.395   7.741  0.1342  0.7058  0.5884
  125OSM   H12T13344   0.747   5.549   7.825  0.3340  0.2139 -0.1963
  125OSM   C13S13345   0.940   5.457   7.866 -0.1675 -0.2359  0.7327
  125OSM   H13S13346   1.029   5.443   7.801  0.2445  1.2007  0.9324
  125OSM   H13T13347   0.917   5.367   7.927 -1.6656  1.4720  2.8434
  125OSM   C14S13348   0.979   5.570   7.966  0.3734 -0.0472  0.6416
  125OSM   H14S13349   0.890   5.606   8.022 -0.3249  1.2895 -1.2299
  125OSM   H14T13350   1.005   5.662   7.909  0.8024  0.5042  1.6946
  125OSM   C15S13351   1.095   5.526   8.054  0.1643  0.0665 -0.5743
  125OSM   H15S13352   1.150   5.614   8.095 -1.4060  0.8883 -0.1312
  125OSM   H15T13353   1.174   5.468   8.003  1.2459 -0.6097  1.7678
  125OSM   C16S13354   1.038   5.448   8.175  0.1450  0.5450 -0.8811
  125OSM   H16S13355   0.962   5.374   8.141  2.1804 -0.8414 -2.6777
  125OSM   H16T13356   0.982   5.514   8.244 -1.6803 -2.8181  1.1198
  125OSM   C17S13357   1.149   5.372   8.258 -0.2307 -0.2006 -0.9661
  125OSM   H17S13358   1.107   5.329   8.351  1.9110 -0.4282 -0.0465
  125OSM   H17T13359   1.218   5.449   8.300 -3.0347  2.1945 -0.3463
  125OSM   C18S13360   1.229   5.251   8.197  0.4703 -0.0438  0.2191
  125OSM   H18S13361   1.150   5.198   8.138  2.1267 -1.1467 -1.0961
  125OSM   H18T13362   1.280   5.180   8.265  0.1769 -1.7502 -1.2391
  125OSM   H18U13363   1.302   5.285   8.121  0.8318  1.5865  1.2647
  125OSM    C1F13364   0.308   5.720   6.598 -0.1747 -0.4386  0.6208
  125OSM     OF13365   0.258   5.633   6.520 -0.4833 -0.3788 -0.3015
  125OSM    C2F13366   0.233   5.844   6.629 -0.7155  0.6725  0.4645
  125OSM    H2F13367   0.239   5.896   6.531 -0.1442 -0.2789 -0.0241
  125OSM    H2G13368   0.292   5.914   6.691  0.1642  0.5304 -0.1882
  125OSM    C3F13369   0.088   5.827   6.685 -0.4513 -0.5441 -0.1275
  125OSM    H3F13370   0.092   5.758   6.772  0.7208 -0.4409 -0.0858
  125OSM    H3G13371   0.028   5.774   6.608  0.2934 -0.2648 -0.9177
  125OSM    C4F13372   0.016   5.953   6.735 -1.0022 -0.3716 -0.6339
  125OSM    H4F13373   0.015   6.021   6.648  1.5942 -1.4736 -1.6148
  125OSM    H4G13374   0.084   5.988   6.815 -2.8497  2.7755 -0.2773
  125OSM    C5F13375  -0.116   5.924   6.802 -0.8404 -0.1905 -0.7487
  125OSM    H5F13376  -0.154   5.832   6.752 -0.7332  0.0528 -1.2800
  125OSM    H5G13377  -0.180   6.011   6.776  0.1992  0.3410 -1.5901
  125OSM    C6F13378  -0.100   5.894   6.956 -0.5156  0.5966  0.0257
  125OSM    H6F13379  -0.035   5.968   7.007  0.0708  0.7573 -0.9306
  125OSM    H6G13380  -0.040   5.800   6.961  1.2374  1.7078  1.4940
  125OSM    C7F13381  -0.234   5.870   7.027  0.2821 -0.1039 -0.2823
  125OSM    H7F13382  -0.290   5.789   6.976  0.4990 -1.6423  1.7893
  125OSM    H7G13383  -0.301   5.958   7.016 -1.7087 -1.4531  0.6043
  125OSM    C8F13384  -0.223   5.843   7.177 -0.6330 -1.4928 -0.1792
  125OSM    H8F13385  -0.170   5.746   7.174  2.1079 -0.1513  1.0636
  125OSM    H8G13386  -0.319   5.830   7.231 -0.0867  0.0139  1.2431
  125OSM    C9F13387  -0.137   5.947   7.244 -0.0481  0.2516  0.5453
  125OSM    H9F13388  -0.087   6.016   7.175  1.0908 -0.0194  1.0818
  125OSM   C10F13389  -0.124   5.962   7.377  0.2131  0.5419 -0.3570
  125OSM   H10F13390  -0.070   6.052   7.410  1.4599  0.0792 -1.0552
  125OSM   C11F13391  -0.185   5.872   7.482  0.3725  0.7940  0.0150
  125OSM   H11F13392  -0.115   5.835   7.561 -0.9793  0.2550  1.0030
  125OSM   H11G13393  -0.221   5.783   7.426  0.3175  0.9207 -0.1526
  125OSM   C12F13394  -0.303   5.935   7.555  0.5074 -0.2871 -0.3429
  125OSM   H12F13395  -0.360   5.856   7.609 -0.1436  2.3464  3.1637
  125OSM   H12G13396  -0.367   5.989   7.482 -0.9417  2.1143  2.4934
  125OSM   C13F13397  -0.261   6.031   7.664 -0.5609  0.2986  0.3003
  125OSM   H13F13398  -0.337   6.107   7.689 -0.7752  0.2681 -0.2438
  125OSM   H13G13399  -0.171   6.084   7.625 -0.5722  0.5780  0.6508
  125OSM   C14F13400  -0.207   5.953   7.795 -0.0925 -0.0493 -0.4731
  125OSM   H14F13401  -0.130   5.885   7.752 -1.0493 -0.1541 -2.0665
  125OSM   H14G13402  -0.291   5.888   7.827 -0.5962  0.8729  0.1280
  125OSM   C15F13403  -0.170   6.056   7.899  0.2871 -0.1548 -0.2971
  125OSM   H15F13404  -0.267   6.089   7.941  0.6356  1.8085 -0.9031
  125OSM   H15G13405  -0.115   6.144   7.859  0.6016  0.9691  2.3808
  125OSM   C16F13406  -0.089   6.006   8.024  0.4296 -0.5247  0.6206
  125OSM   H16F13407   0.007   5.975   7.977 -1.0897 -0.5362 -2.7248
  125OSM   H16G13408  -0.142   5.922   8.073 -0.9069  0.8773  1.6653
  125OSM   C17F13409  -0.076   6.115   8.137  0.3738 -0.1817  0.8589
  125OSM   H17F13410  -0.180   6.121   8.175 -0.5000  1.6694 -1.5147
  125OSM   H17G13411  -0.037   6.211   8.097  1.6562 -1.7706 -2.1145
  125OSM   C18F13412   0.021   6.065   8.246 -0.7021  0.7616  0.0376
  125OSM   H18F13413   0.121   6.050   8.199 -1.4638 -2.1577 -0.8308
  125OSM   H18G13414  -0.017   5.968   8.283 -0.2034 -0.0725 -1.5439
  125OSM   H18H13415   0.030   6.144   8.324  2.2009 -0.3801  0.9996
  126OSM      N13416   4.436   5.016   6.603 -0.4519 -0.2702 -0.2777
  126OSM    C1513417   4.518   4.949   6.498 -0.6293 -0.4661 -0.2620
  126OSM   H15A13418   4.469   4.857   6.468 -1.0313 -1.3617  2.8184
  126OSM   H15B13419   4.613   4.930   6.545  0.2340  1.4889 -1.0864
  126OSM   H15C13420   4.531   5.020   6.417 -1.6990  0.1823  0.1107
  126OSM    C1413421   4.301   5.018   6.553 -0.3188 -0.0535  0.2742
  126OSM   H14A13422   4.272   4.915   6.538 -0.4906 -0.2049  1.5349
  126OSM   H14B13423   4.290   5.065   6.456  0.3553 -0.6688 -0.1117
  126OSM   H14C13424   4.224   5.061   6.616 -0.8311 -1.6204  0.7679
  126OSM    C1313425   4.446   4.938   6.729  0.0993  0.3967  0.1020
  126OSM   H13A13426   4.546   4.943   6.769  0.4428  0.0918 -0.6926
  126OSM   H13B13427   4.427   4.837   6.695  0.0618  0.5091 -0.2179
  126OSM   H13C13428   4.380   4.960   6.811  2.2179  0.5744  1.8467
  126OSM    C1213429   4.486   5.164   6.621 -0.1327 -0.4432 -0.2317
  126OSM   H12A13430   4.411   5.217   6.678  1.1400  0.0329  1.0888
  126OSM   H12B13431   4.497   5.208   6.524 -0.6912 -1.4082 -0.7517
  126OSM    C1113432   4.627   5.181   6.683  0.2210  0.4323  0.2698
  126OSM   H11A13433   4.627   5.115   6.773 -1.2596 -2.3670 -1.6461
  126OSM   H11B13434   4.642   5.285   6.719  3.4344 -0.3072  1.3612
  126OSM      P13435   4.859   5.082   6.618  0.0948 -0.0779 -0.3003
  126OSM    O1313436   4.848   4.953   6.676  0.2587 -0.2300  0.4776
  126OSM    O1413437   4.936   5.087   6.492  0.3264  0.2301 -0.1106
  126OSM    O1113438   4.915   5.184   6.726 -0.3347 -0.2853 -0.4552
  126OSM    O1213439   4.717   5.146   6.588 -0.2820 -0.4519  0.2505
  126OSM    C1S13440   5.019   5.277   6.692  0.1263 -0.6901 -0.4093
  126OSM    H1S13441   4.982   5.379   6.672  3.0683  0.0713 -2.7007
  126OSM    H1T13442   5.061   5.258   6.591 -2.2215  1.1287 -1.8042
  126OSM     NF13443   5.208   5.406   6.803  0.4179  0.1023  0.5763
  126OSM    HNF13444   5.293   5.390   6.754 -0.3855 -1.3710 -0.4272
  126OSM    C2S13445   5.120   5.288   6.815 -0.1310 -0.1340  0.3961
  126OSM    H2S13446   5.058   5.301   6.906 -1.1193 -0.1706 -0.2544
  126OSM    C3S13447   5.209   5.160   6.837 -0.1096  0.9270 -0.4876
  126OSM    H3S13448   5.281   5.148   6.753  1.1829  0.4678  0.6653
  126OSM     O313449   5.124   5.047   6.839 -0.3579 -0.5231 -0.2616
  126OSM    HO313450   5.049   5.077   6.787 -0.0805  0.9424  0.1376
  126OSM    C4S13451   5.278   5.180   6.970  0.0303 -1.3834 -0.4274
  126OSM    H4S13452   5.220   5.229   7.050  0.6434 -1.7360  0.2450
  126OSM    C5S13453   5.405   5.158   6.997 -0.2169 -0.1244  0.0846
  126OSM    H5S13454   5.474   5.113   6.924  0.4286 -0.2666  0.7713
  126OSM    C6S13455   5.476   5.185   7.128  0.0828 -0.0230  0.3612
  126OSM    H6S13456   5.532   5.280   7.124 -2.2242  1.3657 -1.1675
  126OSM    H6T13457   5.539   5.095   7.144  1.0288  0.8601  1.8256
  126OSM    C7S13458   5.375   5.197   7.246 -0.2995 -0.1571  0.6072
  126OSM    H7S13459   5.308   5.109   7.251 -0.6908  0.2041  2.1535
  126OSM    H7T13460   5.317   5.292   7.244 -2.9984 -1.6995  1.0445
  126OSM    C8S13461   5.455   5.212   7.373 -0.0439  0.7579  0.0401
  126OSM    H8S13462   5.523   5.300   7.362 -0.1738  0.9574  0.8196
  126OSM    H8T13463   5.501   5.113   7.389 -2.6073 -0.3759  0.9654
  126OSM    C9S13464   5.361   5.239   7.492 -0.3314 -0.3699 -0.0145
  126OSM    H9S13465   5.297   5.150   7.508  0.3936 -0.7543  0.8187
  126OSM    H9T13466   5.291   5.324   7.479  0.8619  0.9651  1.7387
  126OSM   C10S13467   5.439   5.255   7.630 -0.0366 -0.0725  0.1998
  126OSM   H10S13468   5.465   5.363   7.638 -1.4378  0.3499 -0.5612
  126OSM   H10T13469   5.518   5.178   7.638 -1.5791 -1.6655  0.9373
  126OSM   C11S13470   5.343   5.237   7.747 -0.5587  0.1395 -0.4084
  126OSM   H11S13471   5.310   5.134   7.769 -0.5790  0.5806  1.7984
  126OSM   H11T13472   5.258   5.301   7.717 -1.8170 -1.9355 -1.5225
  126OSM   C12S13473   5.406   5.287   7.880  0.2731  0.1751 -1.0094
  126OSM   H12S13474   5.319   5.286   7.950 -0.3694 -2.0158 -1.7416
  126OSM   H12T13475   5.451   5.388   7.872 -1.8199  1.4756  1.7342
  126OSM   C13S13476   5.496   5.174   7.929  0.2573 -0.4563 -0.2883
  126OSM   H13S13477   5.583   5.165   7.861  0.8129  1.0368  0.1769
  126OSM   H13T13478   5.435   5.082   7.925 -0.8139  0.2087  0.1952
  126OSM   C14S13479   5.543   5.196   8.077  0.4601  0.1668 -0.0522
  126OSM   H14S13480   5.457   5.204   8.147 -2.1256  0.2351 -3.0188
  126OSM   H14T13481   5.596   5.294   8.081  1.0508 -0.1778  0.7261
  126OSM   C15S13482   5.637   5.084   8.123 -0.4336 -0.6137  0.8540
  126OSM   H15S13483   5.735   5.092   8.070  0.2128  0.0304  2.1009
  126OSM   H15T13484   5.580   4.991   8.108 -0.2461 -0.4254 -1.4174
  126OSM   C16S13485   5.672   5.090   8.269 -0.3176 -0.3093 -0.6615
  126OSM   H16S13486   5.579   5.082   8.329  0.3817 -0.5715  0.4167
  126OSM   H16T13487   5.739   5.173   8.300 -1.5983 -0.0495  1.5787
  126OSM   C17S13488   5.764   4.974   8.313 -0.3452 -0.2051  0.0663
  126OSM   H17S13489   5.836   5.007   8.391  0.6536 -0.4971 -0.7080
  126OSM   H17T13490   5.824   4.950   8.222 -0.4889  2.0833 -0.6903
  126OSM   C18S13491   5.674   4.863   8.366 -0.5707  0.4468 -0.0981
  126OSM   H18S13492   5.584   4.850   8.303  0.4541  1.7678 -1.9398
  126OSM   H18T13493   5.624   4.891   8.461 -1.4370  1.4156 -0.8232
  126OSM   H18U13494   5.722   4.763   8.375  0.2154  0.8883  0.9130
  126OSM    C1F13495   5.160   5.527   6.836 -1.1561 -0.6715 -0.2786
  126OSM     OF13496   5.053   5.550   6.886  0.3605 -0.1824 -0.4790
  126OSM    C2F13497   5.264   5.632   6.816  0.3143 -0.6696  0.0102
  126OSM    H2F13498   5.253   5.677   6.715 -0.3768  1.2566  0.8888
  126OSM    H2G13499   5.358   5.574   6.823  0.7818  0.2905  4.1948
  126OSM    C3F13500   5.253   5.757   6.916  0.9196  0.3887  0.2206
  126OSM    H3F13501   5.283   5.722   7.016  0.7633  0.9825  0.4814
  126OSM    H3G13502   5.149   5.796   6.917  0.1991 -1.4013  2.5242
  126OSM    C4F13503   5.351   5.873   6.901 -0.7161 -0.4837 -1.2323
  126OSM    H4F13504   5.331   5.932   6.809  1.1402  1.5524 -0.4070
  126OSM    H4G13505   5.455   5.835   6.894 -0.7485 -0.8008 -0.0564
  126OSM    C5F13506   5.342   5.982   7.017  0.3114  0.5129  0.0493
  126OSM    H5F13507   5.389   5.929   7.102 -1.6398  0.6140  1.2655
  126OSM    H5G13508   5.234   5.999   7.039  0.3035  0.7112 -0.1311
  126OSM    C6F13509   5.426   6.107   6.997 -0.1723 -0.6000  0.5151
  126OSM    H6F13510   5.397   6.157   6.902  2.4382  0.5282  0.2026
  126OSM    H6G13511   5.537   6.093   6.996  0.0451  0.3144 -3.1687
  126OSM    C7F13512   5.400   6.208   7.114 -0.7967 -0.1462  0.3317
  126OSM    H7F13513   5.292   6.229   7.096 -1.3677 -2.3635  0.9075
  126OSM    H7G13514   5.459   6.299   7.088  0.0497 -0.2188  1.8855
  126OSM    C8F13515   5.424   6.173   7.260 -0.1538  0.6610 -0.0673
  126OSM    H8F13516   5.348   6.105   7.303  0.8675 -1.1864 -1.0542
  126OSM    H8G13517   5.414   6.265   7.321  0.5360  0.3742  0.4982
  126OSM    C9F13518   5.567   6.120   7.278  0.7950 -0.0506 -0.0093
  126OSM    H9F13519   5.583   6.032   7.214  0.3392  0.2966 -0.5981
  126OSM   C10F13520   5.655   6.161   7.379 -0.1738  0.6996 -0.0827
  126OSM   H10F13521   5.751   6.108   7.382 -0.8209 -0.6039 -1.2420
  126OSM   C11F13522   5.629   6.271   7.477 -0.7486 -0.0667 -0.2319
  126OSM   H11F13523   5.522   6.294   7.495 -0.5360  1.5072 -0.8163
  126OSM   H11G13524   5.674   6.367   7.441 -0.7312 -0.5864 -1.6387
  126OSM   C12F13525   5.683   6.246   7.624 -0.5692 -0.1111  0.8479
  126OSM   H12F13526   5.678   6.348   7.668  2.9164  0.4393  0.2150
  126OSM   H12G13527   5.789   6.215   7.616 -0.3500  0.5938  0.9372
  126OSM   C13F13528   5.599   6.151   7.703 -0.8694 -0.5340 -0.1839
  126OSM   H13F13529   5.596   6.051   7.653 -0.7136 -0.5459 -0.1694
  126OSM   H13G13530   5.497   6.194   7.692 -0.1386  0.8983 -1.7407
  126OSM   C14F13531   5.636   6.121   7.858  0.2587 -0.0876  0.5682
  126OSM   H14F13532   5.730   6.063   7.851  0.1919 -0.0603 -1.0062
  126OSM   H14G13533   5.558   6.054   7.901 -1.0970  0.4857 -0.8973
  126OSM   C15F13534   5.658   6.244   7.942  0.7674 -0.5014  0.0860
  126OSM   H15F13535   5.567   6.306   7.928  0.0975 -1.9378 -2.6776
  126OSM   H15G13536   5.750   6.298   7.909  0.4211  1.4113  2.0092
  126OSM   C16F13537   5.684   6.212   8.097  0.2426 -0.1620  0.2689
  126OSM   H16F13538   5.585   6.213   8.149  0.5885  2.4062  1.0213
  126OSM   H16G13539   5.740   6.302   8.131 -0.6892  0.3196  0.5835
  126OSM   C17F13540   5.763   6.086   8.123 -0.1836  0.3409 -0.8941
  126OSM   H17F13541   5.863   6.080   8.075  0.1692  0.3004 -0.1824
  126OSM   H17G13542   5.706   6.001   8.081 -1.7543  0.3469  1.0859
  126OSM   C18F13543   5.793   6.055   8.268  0.8820 -0.1708  0.2451
  126OSM   H18F13544   5.859   6.133   8.310 -2.7919  3.1993  0.2958
  126OSM   H18G13545   5.833   5.952   8.279 -2.8675 -1.9710 -1.1107
  126OSM   H18H13546   5.705   6.037   8.333 -1.2018  2.6469 -1.5625
  127OSM      N13547   5.557   4.637   6.316  0.1795 -0.2914  0.3425
  127OSM    C1513548   5.468   4.518   6.286 -0.9264  0.0218  0.3253
  127OSM   H15A13549   5.525   4.428   6.266 -0.9105 -0.3801  2.0186
  127OSM   H15B13550   5.410   4.535   6.196 -0.4747  1.0355  0.2135
  127OSM   H15C13551   5.396   4.504   6.366 -0.3451 -0.7455  0.7327
  127OSM    C1413552   5.638   4.673   6.192 -0.1945  0.0531  0.0387
  127OSM   H14A13553   5.573   4.723   6.121 -1.1577  0.6367  1.3055
  127OSM   H14B13554   5.695   4.590   6.153  0.7765  0.3904  0.7023
  127OSM   H14C13555   5.708   4.753   6.214 -2.5567  2.3353 -0.2883
  127OSM    C1313556   5.463   4.760   6.341 -0.4031  0.0696  0.1684
  127OSM   H13A13557   5.385   4.745   6.268  0.9343 -1.6234 -0.9992
  127OSM   H13B13558   5.515   4.854   6.335 -3.3498  1.7398 -1.2846
  127OSM   H13C13559   5.413   4.757   6.436  0.2497 -1.1383  0.4987
  127OSM    C1213560   5.649   4.608   6.427  0.0115  0.3619  0.4730
  127OSM   H12A13561   5.695   4.512   6.410 -0.8017 -0.3030  1.7720
  127OSM   H12B13562   5.592   4.597   6.518  1.9788 -2.2384  1.5271
  127OSM    C1113563   5.763   4.716   6.449 -0.1122 -0.3138 -0.1130
  127OSM   H11A13564   5.800   4.705   6.553 -2.0864 -1.0685  0.5534
  127OSM   H11B13565   5.733   4.819   6.422  0.0659 -0.3291 -0.3847
  127OSM      P13566   5.960   4.556   6.385 -0.1644 -0.0948  0.0389
  127OSM    O1313567   5.883   4.436   6.347 -0.0627 -0.5491 -0.4428
  127OSM    O1413568   6.096   4.564   6.330 -0.0762 -0.6179 -0.0995
  127OSM    O1113569   5.983   4.544   6.537 -0.2319 -0.6442 -0.1332
  127OSM    O1213570   5.877   4.692   6.363  0.4578 -0.0208  1.0523
  127OSM    C1S13571   6.046   4.641   6.621 -0.6963 -0.1722 -0.6084
  127OSM    H1S13572   6.009   4.742   6.594  0.0736  0.7107  1.4295
  127OSM    H1T13573   6.154   4.630   6.598 -0.3146  0.7042  0.6711
  127OSM     NF13574   6.061   4.725   6.850  0.2181  0.7370  0.1255
  127OSM    HNF13575   6.145   4.707   6.900 -0.0920 -0.3491  0.2736
  127OSM    C2S13576   6.015   4.610   6.769  0.3869 -0.5014  0.1188
  127OSM    H2S13577   5.905   4.600   6.780  0.5079 -0.1875  1.8184
  127OSM    C3S13578   6.070   4.474   6.805  0.0614  0.5451 -0.3278
  127OSM    H3S13579   6.178   4.469   6.779  0.0788  0.4192 -0.2342
  127OSM     O313580   6.003   4.362   6.741 -0.3882 -0.1151  0.3168
  127OSM    HO313581   5.940   4.408   6.685 -0.3605 -1.3648 -0.7726
  127OSM    C4S13582   6.060   4.465   6.955 -0.2005  0.2911 -0.7278
  127OSM    H4S13583   6.124   4.536   7.010 -0.3255 -1.6736  2.1663
  127OSM    C5S13584   5.977   4.389   7.025  0.4852  0.2251  0.0593
  127OSM    H5S13585   5.905   4.328   6.970  1.5461 -0.7721 -0.2663
  127OSM    C6S13586   5.966   4.382   7.175  0.1870 -0.3593  0.6994
  127OSM    H6S13587   6.041   4.310   7.212  0.3409 -0.5556  0.0270
  127OSM    H6T13588   5.864   4.353   7.209 -0.6631 -0.7773 -1.9480
  127OSM    C7S13589   5.996   4.516   7.245 -0.0542  0.6411 -0.0345
  127OSM    H7S13590   5.926   4.600   7.227  2.0206  2.5800  0.4489
  127OSM    H7T13591   6.100   4.546   7.221  0.3481 -0.3045  0.4741
  127OSM    C8S13592   5.988   4.510   7.406 -0.1671 -0.3740  0.9715
  127OSM    H8S13593   6.054   4.427   7.440  0.4696  0.2961  1.3975
  127OSM    H8T13594   5.886   4.471   7.423  0.3054 -2.2377 -0.1357
  127OSM    C9S13595   6.021   4.645   7.468 -0.3536 -0.2207  0.1414
  127OSM    H9S13596   5.949   4.719   7.427 -0.4525 -0.4702 -0.1338
  127OSM    H9T13597   6.120   4.684   7.435 -0.8772  0.5093 -0.6090
  127OSM   C10S13598   6.029   4.638   7.620  0.4415  0.6702  0.3039
  127OSM   H10S13599   6.110   4.565   7.640 -0.8907 -2.0275 -3.0707
  127OSM   H10T13600   5.930   4.592   7.644  1.1653 -0.7523  0.6538
  127OSM   C11S13601   6.052   4.767   7.695  0.7543  0.1658  0.2610
  127OSM   H11S13602   5.956   4.822   7.693  1.1996  1.0675  1.8025
  127OSM   H11T13603   6.131   4.831   7.650 -0.5840  1.9910  0.4001
  127OSM   C12S13604   6.110   4.734   7.841  0.7372 -0.2475 -0.0769
  127OSM   H12S13605   6.132   4.837   7.878  0.1337  0.2366 -1.0528
  127OSM   H12T13606   6.208   4.683   7.853  0.4520 -0.4869  1.5658
  127OSM   C13S13607   6.002   4.656   7.920  0.3045  1.0179 -0.0234
  127OSM   H13S13608   5.957   4.582   7.850 -0.8554  1.9422 -0.3058
  127OSM   H13T13609   5.917   4.724   7.944 -1.7224 -1.0369 -1.0129
  127OSM   C14S13610   6.038   4.592   8.059 -0.6285 -0.3580 -0.0355
  127OSM   H14S13611   6.129   4.529   8.056  1.9865  3.1730 -1.5970
  127OSM   H14T13612   5.941   4.542   8.082 -1.2559  0.9480  0.2780
  127OSM   C15S13613   6.060   4.711   8.152 -0.0567  0.1464 -0.2284
  127OSM   H15S13614   5.970   4.776   8.139 -1.6003 -1.8051  0.0948
  127OSM   H15T13615   6.150   4.770   8.126 -0.7606  1.9964  1.2242
  127OSM   C16S13616   6.070   4.661   8.297 -0.2934  0.3233  0.2909
  127OSM   H16S13617   6.127   4.566   8.293 -2.6454 -1.1263 -0.9657
  127OSM   H16T13618   5.969   4.636   8.336 -0.6568  0.4761 -0.5336
  127OSM   C17S13619   6.139   4.770   8.387 -0.3081 -0.0072 -0.2698
  127OSM   H17S13620   6.097   4.871   8.372  1.4623  0.6320 -1.1459
  127OSM   H17T13621   6.240   4.776   8.342 -0.5925  0.7021 -0.8223
  127OSM   C18S13622   6.148   4.729   8.532  0.5659  0.4401  0.2133
  127OSM   H18S13623   6.195   4.631   8.556  0.0961  0.4648  1.3057
  127OSM   H18T13624   6.045   4.733   8.574 -0.3817 -1.5615 -1.6891
  127OSM   H18U13625   6.208   4.799   8.595  1.0794  0.3451 -0.1686
  127OSM    C1F13626   6.011   4.847   6.859 -0.5733 -0.8535  0.4685
  127OSM     OF13627   5.934   4.900   6.780  0.0840 -0.2379 -0.5451
  127OSM    C2F13628   6.065   4.928   6.980  0.2500 -0.6256 -0.5514
  127OSM    H2F13629   6.166   4.964   6.948  0.4663  0.5826  1.3509
  127OSM    H2G13630   6.076   4.861   7.068 -1.2670  1.8435  1.6396
  127OSM    C3F13631   5.967   5.037   7.033 -0.4863 -0.4926 -0.1750
  127OSM    H3F13632   5.860   5.004   7.034 -0.1153 -2.0150 -2.3330
  127OSM    H3G13633   5.969   5.127   6.968 -0.4436  1.0125  1.8486
  127OSM    C4F13634   5.996   5.095   7.170 -0.4028  0.9799  0.2819
  127OSM    H4F13635   6.088   5.156   7.160 -0.3653  1.1333  1.4220
  127OSM    H4G13636   6.031   5.010   7.233 -0.5412  0.9242  0.2846
  127OSM    C5F13637   5.874   5.174   7.219 -0.3525  0.8561 -0.3681
  127OSM    H5F13638   5.784   5.109   7.219  0.6177 -0.5196 -0.6898
  127OSM    H5G13639   5.858   5.267   7.160 -0.8935  0.8584 -0.2230
  127OSM    C6F13640   5.897   5.216   7.364 -0.2122 -0.1198 -0.5702
  127OSM    H6F13641   5.826   5.294   7.397 -2.1855 -2.2711  0.5107
  127OSM    H6G13642   6.003   5.248   7.379  0.1956 -1.6098 -0.0501
  127OSM    C7F13643   5.875   5.097   7.455 -0.0206 -1.0570  0.3863
  127OSM    H7F13644   5.940   5.013   7.421  1.4300  0.5140 -0.8626
  127OSM    H7G13645   5.768   5.066   7.448 -0.7255  1.4915 -1.3940
  127OSM    C8F13646   5.911   5.129   7.602  0.2093 -0.1754 -0.1090
  127OSM    H8F13647   6.015   5.169   7.610 -0.4370  1.3969  0.7835
  127OSM    H8G13648   5.903   5.033   7.658  1.9149 -0.1425  0.2659
  127OSM    C9F13649   5.824   5.238   7.652  0.0184  0.2664  1.1384
  127OSM    H9F13650   5.726   5.223   7.603  1.2064 -0.4432 -1.1801
  127OSM   C10F13651   5.848   5.342   7.736 -0.6797  0.3272 -0.7081
  127OSM   H10F13652   5.769   5.417   7.748 -1.2025 -0.1243 -1.2312
  127OSM   C11F13653   5.975   5.370   7.814 -0.4183 -0.4353 -0.3328
  127OSM   H11F13654   5.965   5.478   7.838 -1.4515 -0.5540 -0.1682
  127OSM   H11G13655   6.065   5.362   7.750 -0.7369  0.4203 -0.8984
  127OSM   C12F13656   5.988   5.278   7.937  0.6088 -0.2278  0.1833
  127OSM   H12F13657   6.000   5.173   7.901 -2.4083 -0.9081  0.9018
  127OSM   H12G13658   5.892   5.283   7.992  0.6258 -1.4005  0.3435
  127OSM   C13F13659   6.101   5.325   8.030  0.2329 -0.3100 -0.0478
  127OSM   H13F13660   6.069   5.427   8.061 -1.9695 -1.5502  2.0826
  127OSM   H13G13661   6.194   5.337   7.970 -0.9189 -0.4701 -1.9381
  127OSM   C14F13662   6.108   5.239   8.158 -0.9373 -0.1351  0.1454
  127OSM   H14F13663   6.112   5.132   8.131 -0.5602 -0.1872  0.4024
  127OSM   H14G13664   6.015   5.251   8.218 -0.8865 -2.1360  0.7067
  127OSM   C15F13665   6.219   5.265   8.261  0.3344 -0.1252  0.5552
  127OSM   H15F13666   6.219   5.372   8.293 -1.2155 -0.0009  0.2300
  127OSM   H15G13667   6.319   5.243   8.217 -0.6200 -1.8540 -0.8941
  127OSM   C16F13668   6.199   5.193   8.394 -0.9069 -0.1244 -0.4937
  127OSM   H16F13669   6.183   5.084   8.388 -0.0267 -0.4874  2.3730
  127OSM   H16G13670   6.106   5.234   8.440  0.2195  0.5673  1.2962
  127OSM   C17F13671   6.303   5.221   8.504  0.6289 -0.1976  0.1487
  127OSM   H17F13672   6.309   5.332   8.500 -0.4544 -0.1001  0.8451
  127OSM   H17G13673   6.400   5.184   8.466 -0.1477 -0.1881 -2.0089
  127OSM   C18F13674   6.274   5.172   8.644  0.1421 -0.6904 -0.0096
  127OSM   H18F13675   6.185   5.225   8.683  0.9629  0.6022  0.1784
  127OSM   H18G13676   6.358   5.190   8.715  2.1388 -2.0879 -1.8802
  127OSM   H18H13677   6.251   5.064   8.636 -1.8481 -0.3986  1.1586
  128OSM      N13678   2.042   1.712   6.209 -0.0862  0.2051 -0.5268
  128OSM    C1513679   1.978   1.698   6.074  0.5289  0.1153  0.3363
  128OSM   H15A13680   1.881   1.658   6.099  0.3817 -0.0451 -0.4594
  128OSM   H15B13681   2.036   1.629   6.013 -1.6939 -0.7580 -0.8844
  128OSM   H15C13682   1.968   1.796   6.030 -1.5331 -0.7305 -1.2218
  128OSM    C1413683   2.150   1.814   6.184 -0.5602  0.0713 -0.5063
  128OSM   H14A13684   2.108   1.911   6.160  1.0453  1.3792  1.6445
  128OSM   H14B13685   2.219   1.786   6.107 -0.8344 -0.0279 -0.7178
  128OSM   H14C13686   2.205   1.834   6.275  0.2771 -0.7776 -0.8134
  128OSM    C1313687   1.953   1.764   6.318  0.4355  0.0247 -0.5613
  128OSM   H13A13688   2.020   1.807   6.391 -0.2265  0.5809 -0.2759
  128OSM   H13B13689   1.887   1.690   6.361  1.2874  0.7666  2.2534
  128OSM   H13C13690   1.885   1.839   6.283 -3.1401 -2.2769  0.8866
  128OSM    C1213691   2.113   1.581   6.247  0.0984  1.0732 -0.0315
  128OSM   H12A13692   2.187   1.598   6.323 -1.9265 -0.6477  2.5079
  128OSM   H12B13693   2.175   1.550   6.165  1.3722  0.9719  0.9523
  128OSM    C1113694   2.025   1.467   6.300 -0.1495 -0.2216 -0.4323
  128OSM   H11A13695   1.967   1.498   6.390  0.5882 -1.3625  0.4740
  128OSM   H11B13696   2.090   1.395   6.354  0.5745  1.4152  0.9801
  128OSM      P13697   1.781   1.417   6.185  0.2030  0.0888  0.0703
  128OSM    O1313698   1.750   1.494   6.063 -0.9201 -0.2336 -0.5801
  128OSM    O1413699   1.730   1.278   6.200 -0.7442 -0.0398 -0.4351
  128OSM    O1113700   1.734   1.503   6.310  0.3980  0.0380 -0.1206
  128OSM    O1213701   1.942   1.404   6.206 -0.6839 -0.1627 -0.1094
  128OSM    C1S13702   1.695   1.447   6.438  0.4940 -0.5598  0.0727
  128OSM    H1S13703   1.776   1.380   6.477 -0.5706 -0.6895  2.2051
  128OSM    H1T13704   1.607   1.380   6.426  1.4267 -2.0898  1.3432
  128OSM     NF13705   1.681   1.504   6.678 -0.3189 -0.6300 -0.4918
  128OSM    HNF13706   1.592   1.502   6.723  1.0643 -0.6057  2.5238
  128OSM    C2S13707   1.676   1.562   6.549 -0.3993  0.2263 -0.7876
  128OSM    H2S13708   1.760   1.634   6.537  1.0225 -1.0133  1.0622
  128OSM    C3S13709   1.543   1.643   6.522  0.4940 -1.1675 -0.0835
  128OSM    H3S13710   1.451   1.581   6.516 -0.0172 -0.3098 -1.8545
  128OSM     O313711   1.559   1.705   6.396 -0.2428  0.0065  0.3966
  128OSM    HO313712   1.636   1.657   6.364  0.0773  1.3226 -0.9371
  128OSM    C4S13713   1.514   1.751   6.624  0.4387  0.3640  0.1215
  128OSM    H4S13714   1.462   1.711   6.712 -0.0358  1.5210  0.3866
  128OSM    C5S13715   1.552   1.880   6.629 -1.0984  0.3769 -0.2401
  128OSM    H5S13716   1.602   1.916   6.538  1.2839 -2.5111 -0.2014
  128OSM    C6S13717   1.531   1.979   6.744 -0.2375  0.3723 -0.2007
  128OSM    H6S13718   1.479   1.926   6.827  1.2709  0.5353  0.9045
  128OSM    H6T13719   1.463   2.060   6.713 -0.7689 -0.4608 -1.2795
  128OSM    C7S13720   1.652   2.024   6.816 -0.3624  0.6164  0.2625
  128OSM    H7S13721   1.612   2.073   6.908 -1.6095  0.4093 -0.1484
  128OSM    H7T13722   1.719   2.101   6.773  0.6276 -0.0101  0.6588
  128OSM    C8S13723   1.756   1.912   6.859  0.7408 -0.0493 -0.1774
  128OSM    H8S13724   1.845   1.960   6.906 -0.4433  1.0586  0.9924
  128OSM    H8T13725   1.799   1.859   6.771  1.3562  0.2571 -0.0709
  128OSM    C9S13726   1.710   1.824   6.976 -0.0589 -0.0401  0.1480
  128OSM    H9S13727   1.799   1.764   7.005 -0.0984 -1.1138 -1.7799
  128OSM    H9T13728   1.628   1.760   6.936 -0.6634  1.6213 -1.4224
  128OSM   C10S13729   1.675   1.904   7.101 -0.1186  0.0334  0.5129
  128OSM   H10S13730   1.570   1.939   7.091 -0.1699  0.3293  1.8506
  128OSM   H10T13731   1.735   1.997   7.114 -0.8521  0.7427 -0.9293
  128OSM   C11S13732   1.687   1.817   7.225 -0.6552  0.0324 -0.1778
  128OSM   H11S13733   1.795   1.789   7.227  0.1720  2.8062 -1.1694
  128OSM   H11T13734   1.637   1.718   7.217 -0.9159  0.0670  0.9239
  128OSM   C12S13735   1.654   1.897   7.357 -1.0543  0.4900  0.0099
  128OSM   H12S13736   1.658   1.814   7.432  2.2689 -1.2624 -1.8846
  128OSM   H12T13737   1.551   1.937   7.348 -1.0329  0.3947 -0.6762
  128OSM   C13S13738   1.760   1.997   7.398  0.0376  0.2971  0.8236
  128OSM   H13S13739   1.743   2.092   7.342  0.6616 -0.8826 -1.4915
  128OSM   H13T13740   1.857   1.965   7.354 -0.1287  2.2468 -1.1360
  128OSM   C14S13741   1.781   2.020   7.549 -0.3070 -0.6856  0.1760
  128OSM   H14S13742   1.815   1.929   7.603 -2.0367  0.0137  2.6413
  128OSM   H14T13743   1.685   2.048   7.598 -1.5131 -0.0647 -2.3690
  128OSM   C15S13744   1.888   2.117   7.583 -0.8137  0.0655  0.5108
  128OSM   H15S13745   1.862   2.210   7.528  0.8270 -0.4352 -1.1930
  128OSM   H15T13746   1.980   2.071   7.543  1.3765  2.9927  1.7780
  128OSM   C16S13747   1.917   2.162   7.727 -0.1794 -0.1554 -0.9743
  128OSM   H16S13748   1.855   2.252   7.744  1.5347  0.7161  1.1440
  128OSM   H16T13749   2.023   2.193   7.726  0.3971 -1.9395  0.1827
  128OSM   C17S13750   1.889   2.058   7.836  0.1245  0.3185 -0.3713
  128OSM   H17S13751   1.935   1.958   7.820 -1.0063 -0.6675  2.0183
  128OSM   H17T13752   1.781   2.033   7.837 -0.1976  1.6297  0.0911
  128OSM   C18S13753   1.926   2.096   7.980  0.0580 -0.2790  0.4423
  128OSM   H18S13754   2.035   2.115   7.986  0.1830  0.4768 -2.5233
  128OSM   H18T13755   1.888   2.030   8.062  2.3593  0.5067  2.2664
  128OSM   H18U13756   1.883   2.195   8.004 -0.1777 -0.5744  1.2792
  128OSM    C1F13757   1.792   1.445   6.738 -0.2752 -0.6941 -0.2089
  128OSM     OF13758   1.894   1.444   6.670 -0.3143  0.5297  0.0216
  128OSM    C2F13759   1.789   1.385   6.878  0.6024 -0.0644 -0.1065
  128OSM    H2F13760   1.702   1.317   6.885  0.1660  0.6668  2.5767
  128OSM    H2G13761   1.757   1.471   6.941 -0.9592  0.3342 -1.3776
  128OSM    C3F13762   1.913   1.312   6.915  0.2558 -0.0914 -0.1796
  128OSM    H3F13763   1.995   1.388   6.922  0.5109 -0.4472  0.8495
  128OSM    H3G13764   1.939   1.229   6.847 -4.7626 -1.2050 -1.1018
  128OSM    C4F13765   1.901   1.270   7.062  0.0957 -0.2992  0.3907
  128OSM    H4F13766   1.868   1.345   7.137 -0.5154 -1.3892  1.2571
  128OSM    H4G13767   1.996   1.225   7.097 -0.0907 -1.8245 -0.9426
  128OSM    C5F13768   1.804   1.149   7.080  1.2773 -0.5316  0.0892
  128OSM    H5F13769   1.829   1.081   6.996  0.2527 -1.9622  0.9146
  128OSM    H5G13770   1.698   1.177   7.069  1.9316  1.6745 -1.3468
  128OSM    C6F13771   1.825   1.082   7.222  0.1801  0.2930  0.1282
  128OSM    H6F13772   1.803   1.154   7.303 -1.5845 -0.1426  0.0781
  128OSM    H6G13773   1.930   1.047   7.230  0.0610 -0.8625 -2.3700
  128OSM    C7F13774   1.737   0.963   7.243 -0.5223 -0.3574  0.0632
  128OSM    H7F13775   1.783   0.915   7.332  0.9613 -1.7263 -1.3732
  128OSM    H7G13776   1.750   0.888   7.162 -0.7821  0.9759 -1.2705
  128OSM    C8F13777   1.585   0.995   7.264  1.0902 -0.2457 -0.3368
  128OSM    H8F13778   1.546   1.042   7.171  0.1045 -1.7894 -0.7454
  128OSM    H8G13779   1.571   1.074   7.341  0.3183  0.8529 -1.5564
  128OSM    C9F13780   1.520   0.861   7.298  0.5971  0.1043 -0.1253
  128OSM    H9F13781   1.525   0.782   7.222 -1.5050  1.3207 -1.6511
  128OSM   C10F13782   1.439   0.843   7.404 -0.4213  0.7555 -0.3952
  128OSM   H10F13783   1.394   0.743   7.407  0.2581  0.4595  2.1969
  128OSM   C11F13784   1.401   0.934   7.522  0.2147 -0.3426  0.0449
  128OSM   H11F13785   1.298   0.970   7.503 -0.2289 -1.4523  0.2695
  128OSM   H11G13786   1.467   1.024   7.520  0.2561 -0.3878 -0.7960
  128OSM   C12F13787   1.403   0.867   7.658  0.9800 -0.1319  0.0916
  128OSM   H12F13788   1.505   0.837   7.688  1.0302  0.3064  0.3873
  128OSM   H12G13789   1.349   0.771   7.648 -1.3603  1.3696 -3.7721
  128OSM   C13F13790   1.327   0.952   7.761 -1.3101  0.3363  0.4661
  128OSM   H13F13791   1.232   0.973   7.707 -1.8494 -0.1126  1.2265
  128OSM   H13G13792   1.383   1.048   7.769 -0.6157 -0.0288  0.0215
  128OSM   C14F13793   1.293   0.881   7.895 -0.7635 -0.2559 -0.1123
  128OSM   H14F13794   1.248   0.780   7.879 -1.9248  0.0942  0.8092
  128OSM   H14G13795   1.223   0.949   7.947 -0.8796  0.1468 -0.7893
  128OSM   C15F13796   1.414   0.865   7.988  0.4468  0.1881 -0.1092
  128OSM   H15F13797   1.482   0.953   7.996  1.3717 -0.3845 -1.2544
  128OSM   H15G13798   1.476   0.785   7.941 -0.8073 -0.6547 -0.3885
  128OSM   C16F13799   1.379   0.798   8.122 -0.0077 -0.4883  0.0423
  128OSM   H16F13800   1.328   0.702   8.101 -0.0878 -1.0666  2.5724
  128OSM   H16G13801   1.311   0.865   8.179 -1.4749 -1.5337 -0.4201
  128OSM   C17F13802   1.490   0.773   8.217 -0.5575 -0.2869 -0.8124
  128OSM   H17F13803   1.540   0.871   8.232 -0.6545 -0.4128  0.4344
  128OSM   H17G13804   1.572   0.715   8.169 -0.3773 -0.2158 -0.5946
  128OSM   C18F13805   1.439   0.699   8.349  0.3843  0.1200 -0.0092
  128OSM   H18F13806   1.519   0.652   8.410 -0.4300 -0.5260  0.5685
  128OSM   H18G13807   1.363   0.630   8.307 -1.7794  1.8439  0.8655
  128OSM   H18H13808   1.385   0.776   8.408 -2.5940 -0.4021 -1.8854
  129OSM      N13809   4.347   3.489   6.354  0.2075 -0.1467 -0.0389
  129OSM    C1513810   4.204   3.480   6.310 -0.6583  0.0716  0.1751
  129OSM   H15A13811   4.136   3.454   6.390  0.3659  0.2248  1.1252
  129OSM   H15B13812   4.190   3.411   6.228  1.2847  0.5594 -0.6213
  129OSM   H15C13813   4.169   3.575   6.274 -1.0229  0.2412  0.9469
  129OSM    C1413814   4.394   3.353   6.381 -0.2217  0.9420  0.1300
  129OSM   H14A13815   4.332   3.316   6.462 -2.3665  2.5516 -0.6689
  129OSM   H14B13816   4.498   3.357   6.411 -0.0655  1.2340 -0.4299
  129OSM   H14C13817   4.376   3.287   6.298 -2.2447  0.2291  1.0703
  129OSM    C1313818   4.424   3.559   6.243  0.5520  1.1808 -0.8832
  129OSM   H13A13819   4.529   3.571   6.266 -0.1116  3.8707  1.1971
  129OSM   H13B13820   4.389   3.660   6.225  1.2488  1.1062 -2.9049
  129OSM   H13C13821   4.422   3.504   6.150  0.3522 -0.2916 -0.0442
  129OSM    C1213822   4.361   3.570   6.484 -0.1275  0.4848  0.2298
  129OSM   H12A13823   4.294   3.522   6.554 -1.4154 -1.4130 -2.1620
  129OSM   H12B13824   4.315   3.668   6.485 -1.8851 -0.2775  2.1751
  129OSM    C1113825   4.505   3.586   6.552 -0.4668  0.1987  0.0471
  129OSM   H11A13826   4.531   3.482   6.579  0.3204 -0.0052 -1.3676
  129OSM   H11B13827   4.511   3.649   6.644  2.3297 -0.8606  0.6923
  129OSM      P13828   4.595   3.784   6.422 -0.5364  0.1424  0.3685
  129OSM    O1313829   4.652   3.800   6.292 -0.3535 -0.4259  0.7927
  129OSM    O1413830   4.466   3.845   6.459  0.0587  0.4254  0.1666
  129OSM    O1113831   4.709   3.833   6.532  0.6265  0.3151  0.4949
  129OSM    O1213832   4.602   3.631   6.456 -0.4598  0.2385 -0.3070
  129OSM    C1S13833   4.687   3.864   6.668  0.4401 -0.1174  0.3318
  129OSM    H1S13834   4.684   3.766   6.719 -1.9442 -1.7738 -2.6374
  129OSM    H1T13835   4.589   3.913   6.687  0.0440 -0.5860 -0.4295
  129OSM     NF13836   4.776   3.989   6.855 -1.1793 -0.0213 -0.5115
  129OSM    HNF13837   4.740   4.081   6.867  1.2974  1.0240 -0.5220
  129OSM    C2S13838   4.796   3.962   6.716 -0.8425 -0.6569 -0.7889
  129OSM    H2S13839   4.895   3.913   6.707  0.4263  1.8635 -1.8363
  129OSM    C3S13840   4.804   4.095   6.634  0.1157  0.0738  0.3411
  129OSM    H3S13841   4.734   4.178   6.654  1.5552  2.0131 -2.0196
  129OSM     O313842   4.801   4.079   6.496  0.1468  0.1083  0.2066
  129OSM    HO313843   4.792   3.984   6.485 -4.4941  0.4227 -0.4529
  129OSM    C4S13844   4.946   4.150   6.670  0.6588 -0.7107  0.1690
  129OSM    H4S13845   5.036   4.093   6.646  1.2490 -0.6736  2.1169
  129OSM    C5S13846   4.968   4.276   6.724  0.0034 -0.0630 -0.4466
  129OSM    H5S13847   4.880   4.339   6.743 -0.0016  0.2477 -1.4746
  129OSM    C6S13848   5.101   4.331   6.761  0.0084  0.0747 -0.4205
  129OSM    H6S13849   5.087   4.432   6.803  2.1338  0.2563 -0.0271
  129OSM    H6T13850   5.168   4.339   6.672 -0.9031 -0.7703 -1.2159
  129OSM    C7S13851   5.179   4.252   6.868  0.6819  0.0368  0.6906
  129OSM    H7S13852   5.284   4.284   6.884  1.0634 -0.6458 -0.3777
  129OSM    H7T13853   5.194   4.157   6.812 -0.8453  0.5277 -0.6241
  129OSM    C8S13854   5.115   4.252   7.005  0.4327 -0.1624 -0.0384
  129OSM    H8S13855   5.147   4.161   7.059  1.3731  0.2066  0.0616
  129OSM    H8T13856   5.005   4.252   6.998  0.3618  1.1758  0.6491
  129OSM    C9S13857   5.149   4.369   7.094 -0.2570  0.1220 -0.2855
  129OSM    H9S13858   5.122   4.469   7.054 -0.5180  0.1845  0.0409
  129OSM    H9T13859   5.260   4.370   7.103 -0.1929 -0.2661 -0.9405
  129OSM   C10S13860   5.085   4.369   7.236  0.8823 -0.2813  0.1972
  129OSM   H10S13861   5.125   4.289   7.302  0.7749  1.2858  2.2985
  129OSM   H10T13862   4.976   4.349   7.232  0.5163  1.1702  1.5724
  129OSM   C11S13863   5.115   4.499   7.315 -0.3406 -0.4175  0.2432
  129OSM   H11S13864   5.098   4.583   7.244  1.4670  0.4555  0.7874
  129OSM   H11T13865   5.220   4.521   7.343 -0.6796  2.0460 -0.1646
  129OSM   C12S13866   5.020   4.534   7.429 -0.1603  0.8032 -0.5659
  129OSM   H12S13867   4.913   4.545   7.403 -1.1171 -3.2858  0.7984
  129OSM   H12T13868   5.066   4.628   7.464  0.1130  0.0506  1.2024
  129OSM   C13S13869   5.040   4.424   7.542 -0.8005  0.1009 -0.3526
  129OSM   H13S13870   5.145   4.396   7.566  0.1740  0.8356 -3.2278
  129OSM   H13T13871   4.980   4.335   7.514 -1.1994  0.2321  0.0816
  129OSM   C14S13872   4.977   4.469   7.667 -0.0657  0.0799  0.6453
  129OSM   H14S13873   4.987   4.387   7.741 -0.9021 -0.3787  0.2554
  129OSM   H14T13874   4.875   4.501   7.638 -1.4027 -2.8312  1.8143
  129OSM   C15S13875   5.059   4.591   7.736  0.7598  0.1845 -0.3327
  129OSM   H15S13876   5.053   4.676   7.665 -1.5179 -0.1239 -0.6025
  129OSM   H15T13877   5.157   4.544   7.757 -0.2224 -1.4914  0.7981
  129OSM   C16S13878   5.009   4.655   7.866 -0.1405  0.4275 -0.0220
  129OSM   H16S13879   4.918   4.710   7.832 -0.7841 -1.6527 -2.0361
  129OSM   H16T13880   5.098   4.711   7.900 -1.7112  2.3072  1.1621
  129OSM   C17S13881   4.980   4.551   7.975  0.1315  1.0173  0.6886
  129OSM   H17S13882   5.075   4.495   7.989  0.6582  1.4976 -0.7882
  129OSM   H17T13883   4.908   4.474   7.938  2.1591 -0.8420  0.4068
  129OSM   C18S13884   4.946   4.625   8.105 -0.8096  0.1427 -0.7611
  129OSM   H18S13885   4.855   4.687   8.092 -3.1335 -3.1945 -1.5993
  129OSM   H18T13886   5.029   4.693   8.135  0.6879 -1.5819 -0.8462
  129OSM   H18U13887   4.928   4.546   8.181  1.0128 -0.2615 -0.7033
  129OSM    C1F13888   4.798   3.903   6.955  0.4897 -0.4575  0.1382
  129OSM     OF13889   4.883   3.813   6.939 -0.0708 -0.3037  0.4545
  129OSM    C2F13890   4.696   3.901   7.070 -0.3287 -0.3545 -0.0102
  129OSM    H2F13891   4.618   3.822   7.061  0.9735 -1.9893  2.0322
  129OSM    H2G13892   4.641   3.997   7.065 -0.9402 -0.7067 -0.1885
  129OSM    C3F13893   4.781   3.885   7.206  0.2064 -0.5533 -1.2505
  129OSM    H3F13894   4.830   3.786   7.220 -2.1780 -2.0475 -2.8305
  129OSM    H3G13895   4.701   3.897   7.282  3.6102 -0.4029  2.6500
  129OSM    C4F13896   4.888   3.988   7.230  0.1057  0.1214 -0.0045
  129OSM    H4F13897   4.847   4.090   7.215  1.8918  0.7585 -0.8188
  129OSM    H4G13898   4.967   3.974   7.153  0.6512  1.3594  0.3171
  129OSM    C5F13899   4.949   3.967   7.376  0.2178  0.3886  1.0802
  129OSM    H5F13900   5.025   4.047   7.381 -0.7710  1.5404 -1.0776
  129OSM    H5G13901   4.998   3.867   7.381 -0.0713  0.2935  2.6764
  129OSM    C6F13902   4.837   3.968   7.491 -0.6323 -0.0234 -0.0597
  129OSM    H6F13903   4.887   3.923   7.580 -0.5942 -1.9849 -1.0389
  129OSM    H6G13904   4.765   3.889   7.462 -0.9714 -0.0808  0.9013
  129OSM    C7F13905   4.768   4.097   7.517  0.3713 -0.0127  1.5781
  129OSM    H7F13906   4.670   4.089   7.466  0.7851  1.2282  0.5500
  129OSM    H7G13907   4.815   4.176   7.456 -1.9793 -0.3848 -0.9013
  129OSM    C8F13908   4.740   4.148   7.663 -0.1842  0.1248  0.0038
  129OSM    H8F13909   4.679   4.240   7.656 -1.5538 -0.6591  1.1017
  129OSM    H8G13910   4.838   4.171   7.710 -0.8249  0.3745  1.2575
  129OSM    C9F13911   4.673   4.049   7.758 -0.2856 -1.3408 -0.4355
  129OSM    H9F13912   4.692   3.946   7.724 -2.6168 -1.4274 -1.6496
  129OSM   C10F13913   4.596   4.064   7.864  1.1805  0.0758  0.1064
  129OSM   H10F13914   4.562   3.973   7.914  1.0503  0.3601  0.5459
  129OSM   C11F13915   4.544   4.193   7.927 -0.4807 -0.3628  0.4458
  129OSM   H11F13916   4.440   4.212   7.893  0.5602  3.8053 -0.9721
  129OSM   H11G13917   4.590   4.276   7.868 -0.0599  0.2635  1.6375
  129OSM   C12F13918   4.558   4.211   8.079  0.6124  0.1858 -0.2951
  129OSM   H12F13919   4.484   4.289   8.109 -2.5082 -2.0226 -1.7413
  129OSM   H12G13920   4.661   4.250   8.094  0.5644  0.3749 -0.4416
  129OSM   C13F13921   4.520   4.091   8.168 -0.0027  0.5128  0.2254
  129OSM   H13F13922   4.583   4.002   8.146 -0.8721  0.0751 -0.5891
  129OSM   H13G13923   4.417   4.067   8.134 -0.0120  0.8860 -0.0116
  129OSM   C14F13924   4.534   4.120   8.311  0.3545 -0.5406 -0.9737
  129OSM   H14F13925   4.528   4.027   8.370  0.3301 -0.5349 -0.9671
  129OSM   H14G13926   4.451   4.189   8.338  0.0883 -0.8524 -0.9947
  129OSM   C15F13927   4.675   4.171   8.352 -0.7184 -0.4464 -0.6620
  129OSM   H15F13928   4.691   4.276   8.319 -0.8069  0.0170  0.7191
  129OSM   H15G13929   4.738   4.094   8.304 -0.8461 -1.6892  1.0625
  129OSM   C16F13930   4.687   4.167   8.509  1.2541 -0.2096 -0.0140
  129OSM   H16F13931   4.681   4.061   8.540 -1.6834  0.2085  1.1281
  129OSM   H16G13932   4.593   4.217   8.540  1.4179 -1.0505  1.9887
  129OSM   C17F13933   4.813   4.225   8.555  0.7387  0.0278  0.1637
  129OSM   H17F13934   4.823   4.331   8.522  0.3623 -0.2870 -0.9977
  129OSM   H17G13935   4.898   4.171   8.509 -1.1613 -1.9731 -1.1562
  129OSM   C18F13936   4.824   4.219   8.708  0.1461 -0.5525 -0.6657
  129OSM   H18F13937   4.929   4.227   8.742 -0.0007  0.3066 -0.3898
  129OSM   H18G13938   4.790   4.119   8.742  1.2710 -0.0825  2.0823
  129OSM   H18H13939   4.759   4.293   8.761  1.2816 -0.9939  1.4364
  130OSM      N13940   1.106   5.532   6.447 -0.4293 -0.5059  0.3421
  130OSM    C1513941   1.016   5.497   6.561  0.5464 -0.0470 -0.3933
  130OSM   H15A13942   1.017   5.580   6.630 -1.4637  0.8967 -1.3819
  130OSM   H15B13943   1.046   5.403   6.605 -1.3415 -0.8746 -0.7681
  130OSM   H15C13944   0.922   5.485   6.508  0.9382  2.5093 -1.8670
  130OSM    C1413945   1.108   5.410   6.360  0.0541  0.3027  0.8597
  130OSM   H14A13946   1.008   5.368   6.358 -0.0406  0.5678 -0.6627
  130OSM   H14B13947   1.176   5.338   6.404  0.0066  0.3851  1.0701
  130OSM   H14C13948   1.145   5.433   6.261  2.1382  1.9806  1.9474
  130OSM    C1313949   1.057   5.657   6.373  0.1233  0.1851 -0.6883
  130OSM   H13A13950   1.065   5.743   6.438 -1.5972 -0.6499  0.7137
  130OSM   H13B13951   0.959   5.644   6.330  0.1209 -0.4161 -0.5139
  130OSM   H13C13952   1.126   5.673   6.292 -0.8150 -0.3301 -1.6121
  130OSM    C1213953   1.246   5.568   6.506 -0.2300 -0.5012  0.5801
  130OSM   H12A13954   1.275   5.493   6.577  1.4721  1.3785  2.0180
  130OSM   H12B13955   1.254   5.662   6.560 -0.5596 -0.1363  0.0025
  130OSM    C1113956   1.372   5.566   6.418  0.5154 -0.2247  0.1179
  130OSM   H11A13957   1.374   5.468   6.366  2.9592 -0.8625  1.2935
  130OSM   H11B13958   1.458   5.569   6.488 -0.0065 -2.1527  0.9315
  130OSM      P13959   1.488   5.750   6.268 -0.1327 -0.4167  0.0360
  130OSM    O1313960   1.603   5.665   6.214  0.9516 -0.9023 -0.0984
  130OSM    O1413961   1.444   5.863   6.188  0.2039 -0.0492  0.1330
  130OSM    O1113962   1.530   5.809   6.410  0.3329 -0.1478 -0.0129
  130OSM    O1213963   1.365   5.666   6.321 -1.1015  0.1567 -0.2207
  130OSM    C1S13964   1.446   5.920   6.444 -0.2190 -0.0567  0.4668
  130OSM    H1S13965   1.341   5.919   6.406  0.2564 -0.7454 -0.8728
  130OSM    H1T13966   1.489   6.015   6.407  0.3999  0.4511  2.3704
  130OSM     NF13967   1.342   6.048   6.626  0.5735 -0.2765 -0.2381
  130OSM    HNF13968   1.367   6.145   6.623 -1.2213  0.3363  1.9299
  130OSM    C2S13969   1.446   5.959   6.596 -0.3719  0.3367 -0.1771
  130OSM    H2S13970   1.430   5.866   6.655  1.6189  0.0448 -0.0265
  130OSM    C3S13971   1.591   6.001   6.625 -0.0953 -0.3473 -0.1567
  130OSM    H3S13972   1.629   6.073   6.550 -2.0358 -0.3235 -1.1707
  130OSM     O313973   1.685   5.893   6.621  0.0909  0.0767 -0.0117
  130OSM    HO313974   1.636   5.821   6.582  1.6683 -0.4586 -1.1202
  130OSM    C4S13975   1.606   6.066   6.763  0.8000  0.0460  0.7411
  130OSM    H4S13976   1.628   6.174   6.761  0.8515  0.0690 -2.3511
  130OSM    C5S13977   1.576   6.004   6.880  0.0481  0.1920 -0.0804
  130OSM    H5S13978   1.559   5.896   6.874  2.0715 -0.1663  0.0184
  130OSM    C6S13979   1.574   6.066   7.020  0.0380 -0.1359  0.0238
  130OSM    H6S13980   1.642   6.154   7.027 -1.8959  1.3656  0.9720
  130OSM    H6T13981   1.603   5.986   7.091 -0.1994  0.4129  0.7522
  130OSM    C7S13982   1.426   6.114   7.051  0.1497  0.3830 -0.0033
  130OSM    H7S13983   1.357   6.038   7.009  0.5074  0.8245 -1.4664
  130OSM    H7T13984   1.393   6.205   6.997  1.6027  0.7929 -0.2501
  130OSM    C8S13985   1.413   6.123   7.206  0.8986 -0.7345  0.4302
  130OSM    H8S13986   1.446   6.028   7.252 -2.3517 -2.7515 -0.9888
  130OSM    H8T13987   1.303   6.123   7.222  1.0361 -0.4271  1.4381
  130OSM    C9S13988   1.481   6.247   7.275 -0.0490  0.2144 -0.3543
  130OSM    H9S13989   1.417   6.336   7.259 -0.7033 -0.1704  0.0668
  130OSM    H9T13990   1.575   6.267   7.219  0.0320 -0.0892 -0.3276
  130OSM   C10S13991   1.503   6.211   7.423 -0.7631  0.0007  0.5088
  130OSM   H10S13992   1.585   6.281   7.450  0.5784 -1.0463 -0.6676
  130OSM   H10T13993   1.545   6.109   7.438  0.1473  0.4848  1.3485
  130OSM   C11S13994   1.388   6.224   7.523  0.3768 -0.3026 -0.1392
  130OSM   H11S13995   1.302   6.162   7.488 -0.5874  2.3073 -2.7381
  130OSM   H11T13996   1.353   6.329   7.528  1.5599  0.0814  0.6535
  130OSM   C12S13997   1.432   6.187   7.668  0.0697 -0.2838  0.4475
  130OSM   H12S13998   1.502   6.102   7.677 -0.7515 -0.9356  0.7947
  130OSM   H12T13999   1.336   6.151   7.711  0.5594 -0.6375  1.2644
  130OSM   C13S14000   1.505   6.298   7.747  0.0290  0.6375 -0.0938
  130OSM   H13S14001   1.444   6.390   7.741 -0.3625  0.4330  0.5813
  130OSM   H13T14002   1.599   6.326   7.695  1.7384 -2.6229  0.9397
  130OSM   C14S14003   1.539   6.262   7.892  0.0163  0.3473  0.2761
  130OSM   H14S14004   1.611   6.177   7.893  0.8663  0.9612 -2.2817
  130OSM   H14T14005   1.452   6.222   7.950 -1.2414  4.3524  1.4383
  130OSM   C15S14006   1.595   6.366   7.977 -0.0724 -0.3973 -0.3048
  130OSM   H15S14007   1.677   6.417   7.923  0.0667  1.7234  1.7803
  130OSM   H15T14008   1.632   6.318   8.070 -0.5531 -2.0742 -0.9306
  130OSM   C16S14009   1.494   6.470   8.027  0.4611 -0.0248  0.4343
  130OSM   H16S14010   1.423   6.401   8.077 -0.1597  0.1699 -0.1792
  130OSM   H16T14011   1.446   6.513   7.937  3.4377 -0.8127 -1.6978
  130OSM   C17S14012   1.545   6.573   8.132  0.0659  0.3702 -0.5407
  130OSM   H17S14013   1.610   6.657   8.100  1.5646  0.2851  1.9597
  130OSM   H17T14014   1.601   6.514   8.208  2.4517  0.4310 -2.1550
  130OSM   C18S14015   1.433   6.630   8.218 -0.3525 -0.0125 -0.0683
  130OSM   H18S14016   1.382   6.537   8.252  0.6518 -0.1256  1.1853
  130OSM   H18T14017   1.364   6.696   8.161  0.1103  0.8637  0.3749
  130OSM   H18U14018   1.480   6.680   8.305  1.7175 -1.3869 -0.3254
  130OSM    C1F14019   1.217   6.007   6.627  0.2449  0.6364  0.1160
  130OSM     OF14020   1.200   5.884   6.623  0.0165 -0.6535 -0.0537
  130OSM    C2F14021   1.099   6.106   6.633  0.0267 -0.1813  0.0258
  130OSM    H2F14022   0.997   6.071   6.661  0.3199 -2.3716 -1.3819
  130OSM    H2G14023   1.089   6.138   6.527  0.1073 -0.8759 -0.1962
  130OSM    C3F14024   1.128   6.237   6.702  0.6639 -0.7152 -0.4101
  130OSM    H3F14025   1.221   6.278   6.656  0.1707  0.9273  0.0052
  130OSM    H3G14026   1.148   6.216   6.809 -0.0589  0.7007  0.0158
  130OSM    C4F14027   1.005   6.335   6.713  0.0410 -0.2764  0.7172
  130OSM    H4F14028   0.911   6.277   6.721  0.3786 -0.7836  1.0264
  130OSM    H4G14029   0.987   6.393   6.620  0.7364 -3.6227 -1.6713
  130OSM    C5F14030   1.006   6.433   6.834 -0.6335  0.0434 -0.5965
  130OSM    H5F14031   0.904   6.476   6.841 -0.7543 -0.0319 -1.7850
  130OSM    H5G14032   1.063   6.525   6.809 -1.0469  0.8522  1.2443
  130OSM    C6F14033   1.061   6.368   6.970  1.5312  0.5916 -0.5965
  130OSM    H6F14034   1.168   6.338   6.969  1.6673  1.0747 -0.7701
  130OSM    H6G14035   0.990   6.288   7.001  2.6997 -0.1908  0.1391
  130OSM    C7F14036   1.047   6.461   7.092  0.7640  0.0880 -0.1828
  130OSM    H7F14037   0.945   6.501   7.108  0.0913 -0.8103 -2.0196
  130OSM    H7G14038   1.098   6.552   7.054  0.1741  0.2965 -0.4822
  130OSM    C8F14039   1.118   6.414   7.223 -0.3804  0.1501  0.5883
  130OSM    H8F14040   1.163   6.503   7.273 -0.7830 -0.0714  1.3459
  130OSM    H8G14041   1.204   6.350   7.192 -1.5409 -1.3182  0.3258
  130OSM    C9F14042   1.035   6.328   7.301  0.1928 -0.4547 -0.1873
  130OSM    H9F14043   0.989   6.248   7.242  1.4754 -0.9940 -0.4758
  130OSM   C10F14044   0.993   6.338   7.426 -0.7506  0.4795 -0.2120
  130OSM   H10F14045   0.942   6.254   7.476  0.3116 -1.3538 -2.0672
  130OSM   C11F14046   1.033   6.454   7.513 -0.5542 -0.2851 -0.4160
  130OSM   H11F14047   0.957   6.534   7.505 -0.8707 -0.5517 -0.1122
  130OSM   H11G14048   1.125   6.500   7.471 -0.4819  0.8172  0.8768
  130OSM   C12F14049   1.063   6.412   7.660 -0.5880 -0.4383 -0.0459
  130OSM   H12F14050   1.148   6.340   7.661  1.4925  1.8838  2.2373
  130OSM   H12G14051   0.977   6.364   7.713  0.3181 -0.7741  1.1610
  130OSM   C13F14052   1.099   6.540   7.745 -0.2501 -0.3829 -0.0196
  130OSM   H13F14053   1.017   6.612   7.727  0.4110  0.6148  0.8311
  130OSM   H13G14054   1.188   6.587   7.698  0.3261 -1.1467  0.2766
  130OSM   C14F14055   1.123   6.520   7.894 -0.5048 -0.4342 -0.1077
  130OSM   H14F14056   1.183   6.598   7.945  0.0719 -0.7083 -0.3678
  130OSM   H14G14057   1.198   6.439   7.904 -1.1676 -1.3128 -1.8195
  130OSM   C15F14058   0.997   6.473   7.977  0.9798 -0.2492  0.4557
  130OSM   H15F14059   0.958   6.376   7.939  0.2874 -0.1850  0.9824
  130OSM   H15G14060   0.920   6.548   7.949  3.3834  1.6787 -1.3285
  130OSM   C16F14061   1.035   6.451   8.128  0.3802 -0.1696  0.7582
  130OSM   H16F14062   1.038   6.552   8.174 -1.0373  0.0863  0.3600
  130OSM   H16G14063   1.136   6.406   8.138  0.9119  0.7521 -0.2086
  130OSM   C17F14064   0.928   6.370   8.198  0.0121  0.5629  0.8472
  130OSM   H17F14065   0.956   6.345   8.303  0.2975  0.9635  0.8647
  130OSM   H17G14066   0.915   6.279   8.135 -0.3259  2.4684 -2.0296
  130OSM   C18F14067   0.801   6.443   8.194  0.5224  0.1074  0.0680
  130OSM   H18F14068   0.813   6.533   8.258 -2.1129 -0.9463  2.2487
  130OSM   H18G14069   0.717   6.382   8.233  1.5095 -0.7353  0.9276
  130OSM   H18H14070   0.793   6.491   8.094 -1.8039  0.1794  0.2343
  131OSM      N14071   0.845   2.890   6.041 -0.4724 -0.5501  0.0912
  131OSM    C1514072   0.743   2.919   5.937 -0.3333  0.0205  0.2659
  131OSM   H15A14073   0.778   2.985   5.859 -1.4534  0.6160  0.2478
  131OSM   H15B14074   0.666   2.981   5.980  0.9943  3.1034 -1.4606
  131OSM   H15C14075   0.696   2.835   5.888  0.4180 -0.9548  1.1659
  131OSM    C1414076   0.968   2.847   5.966  0.2175 -0.4455  0.3551
  131OSM   H14A14077   0.996   2.909   5.882 -2.5267 -0.1024 -0.3837
  131OSM   H14B14078   0.957   2.741   5.945 -1.1192  0.1541 -2.3961
  131OSM   H14C14079   1.047   2.868   6.037  0.1549 -0.4659  0.4315
  131OSM    C1314080   0.875   3.019   6.105 -0.2997  0.1049  0.5295
  131OSM   H13A14081   0.967   3.011   6.160 -0.8044 -0.5591  1.3023
  131OSM   H13B14082   0.811   3.051   6.186  0.8884  0.5995  1.3062
  131OSM   H13C14083   0.889   3.095   6.029  3.2908  0.1200  1.0230
  131OSM    C1214084   0.797   2.778   6.137 -0.9080  0.1009 -0.4612
  131OSM   H12A14085   0.803   2.685   6.082  1.9298 -0.6312  0.9335
  131OSM   H12B14086   0.693   2.802   6.153 -0.8628  0.4614 -0.6896
  131OSM    C1114087   0.877   2.754   6.277  0.0971  0.0950  0.2199
  131OSM   H11A14088   0.810   2.705   6.351  0.9098  1.6582  2.1004
  131OSM   H11B14089   0.899   2.853   6.322  2.8728 -0.6949  0.8281
  131OSM      P14090   1.141   2.752   6.305 -0.1868 -0.2662  0.2550
  131OSM    O1314091   1.254   2.656   6.305  0.2457  0.0432  1.1363
  131OSM    O1414092   1.164   2.871   6.223  0.0462 -0.0014  0.3787
  131OSM    O1114093   1.112   2.797   6.458 -0.3400 -0.1579  0.1577
  131OSM    O1214094   1.002   2.686   6.258 -0.5604  1.3039 -0.1909
  131OSM    C1S14095   1.067   2.703   6.555  0.1497 -0.0003 -0.0290
  131OSM    H1S14096   1.134   2.615   6.556  1.6595  1.0997  0.2056
  131OSM    H1T14097   0.961   2.678   6.535  0.4048 -1.0063 -0.1421
  131OSM     NF14098   1.096   2.667   6.807 -0.8147 -0.0778 -0.3295
  131OSM    HNF14099   1.009   2.631   6.840 -0.7087 -3.3918 -3.0431
  131OSM    C2S14100   1.077   2.769   6.701 -0.7359 -0.1654  0.5478
  131OSM    H2S14101   1.165   2.836   6.705  0.5008 -1.4323 -2.4228
  131OSM    C3S14102   0.949   2.862   6.712 -0.3827  0.3917 -0.2846
  131OSM    H3S14103   0.858   2.802   6.693 -1.7461  2.3053 -0.0862
  131OSM     O314104   0.951   2.971   6.629  0.2509 -0.8651  0.1145
  131OSM    HO314105   1.007   2.951   6.554  0.9863  1.7425 -0.1500
  131OSM    C4S14106   0.932   2.920   6.856 -1.1097  0.1972  0.0585
  131OSM    H4S14107   1.031   2.952   6.892 -0.7385  1.3902 -1.8961
  131OSM    C5S14108   0.837   2.907   6.950 -0.6909 -0.3660 -0.4305
  131OSM    H5S14109   0.744   2.851   6.933 -0.7707 -0.0039 -1.2157
  131OSM    C6S14110   0.858   2.945   7.097  0.4982  0.0555 -0.3304
  131OSM    H6S14111   0.806   3.038   7.129 -2.9451 -1.8804  0.1986
  131OSM    H6T14112   0.965   2.960   7.123  0.4311  0.3087 -0.1919
  131OSM    C7S14113   0.806   2.833   7.190 -0.9409  0.2130  0.1148
  131OSM    H7S14114   0.853   2.736   7.162  0.5982  0.2526  2.2534
  131OSM    H7T14115   0.697   2.821   7.174 -0.8674 -0.0761 -0.1795
  131OSM    C8S14116   0.839   2.853   7.339 -0.0008 -0.1735  0.4453
  131OSM    H8S14117   0.809   2.956   7.367 -1.9181 -0.8887  1.1870
  131OSM    H8T14118   0.948   2.836   7.354  0.3712  0.3128 -1.4275
  131OSM    C9S14119   0.764   2.754   7.428 -0.3243  0.4735  0.1343
  131OSM    H9S14120   0.777   2.646   7.403 -4.2134 -0.1136 -0.0947
  131OSM    H9T14121   0.658   2.773   7.401  0.2351  2.2385 -0.9701
  131OSM   C10S14122   0.776   2.764   7.582  0.3028 -0.7795  0.1124
  131OSM   H10S14123   0.882   2.749   7.611  0.2429 -1.3698  0.0482
  131OSM   H10T14124   0.711   2.691   7.634  0.6651  0.1696  1.9690
  131OSM   C11S14125   0.724   2.898   7.648 -0.1550 -0.0806 -0.1357
  131OSM   H11S14126   0.628   2.923   7.597 -1.4670 -3.7941  0.2422
  131OSM   H11T14127   0.800   2.977   7.626 -0.9434  0.9196  0.6076
  131OSM   C12S14128   0.700   2.884   7.795 -0.2668 -0.4857 -0.1180
  131OSM   H12S14129   0.648   2.788   7.818 -0.9604 -0.1925 -0.4455
  131OSM   H12T14130   0.633   2.968   7.823  1.1635  0.0466  1.9111
  131OSM   C13S14131   0.820   2.912   7.872 -0.0611 -0.0724  0.1663
  131OSM   H13S14132   0.866   3.013   7.863  4.7759 -2.2018 -3.5192
  131OSM   H13T14133   0.899   2.845   7.833  0.1148 -0.0609  0.4976
  131OSM   C14S14134   0.798   2.875   8.020 -0.2667 -0.3130  0.3511
  131OSM   H14S14135   0.769   2.768   8.026 -2.8667  0.1701 -1.8788
  131OSM   H14T14136   0.723   2.945   8.063 -0.7510  0.2756 -1.3812
  131OSM   C15S14137   0.928   2.889   8.097  0.3559  0.1542 -0.2868
  131OSM   H15S14138   0.963   2.994   8.080 -1.1506  0.6066 -0.7877
  131OSM   H15T14139   1.012   2.826   8.062 -0.1404 -0.6859  0.0047
  131OSM   C16S14140   0.908   2.872   8.251  0.4450 -0.1257  0.1534
  131OSM   H16S14141   0.900   2.767   8.287  0.0217 -0.7826 -1.7310
  131OSM   H16T14142   0.832   2.939   8.296  1.8464 -0.3169  3.0468
  131OSM   C17S14143   1.038   2.915   8.317 -0.4344  0.2354  0.0740
  131OSM   H17S14144   1.124   2.866   8.267 -0.5954 -0.2673  0.2865
  131OSM   H17T14145   1.028   2.878   8.422 -0.4025 -0.1860 -0.0713
  131OSM   C18S14146   1.077   3.066   8.310 -0.1162  0.2352 -0.2332
  131OSM   H18S14147   0.990   3.135   8.304 -0.1511  0.3467  1.2210
  131OSM   H18T14148   1.134   3.075   8.215  0.5324 -0.4287  0.0820
  131OSM   H18U14149   1.149   3.101   8.387 -0.3385  1.6746 -0.6564
  131OSM    C1F14150   1.218   2.610   6.819 -0.0624  0.0755  0.1149
  131OSM     OF14151   1.319   2.658   6.761 -0.0895  0.4374  0.2008
  131OSM    C2F14152   1.221   2.484   6.906  1.0216 -0.4085 -0.1993
  131OSM    H2F14153   1.194   2.397   6.843 -1.6145 -0.2028  0.4982
  131OSM    H2G14154   1.139   2.504   6.979  1.0421 -3.2636  0.7219
  131OSM    C3F14155   1.348   2.461   6.982  0.0403  0.9803  0.5710
  131OSM    H3F14156   1.425   2.454   6.902  0.6536 -0.8893  1.2640
  131OSM    H3G14157   1.352   2.359   7.027 -0.3253  0.1187 -1.2619
  131OSM    C4F14158   1.382   2.570   7.083 -0.0470 -0.4772  0.0511
  131OSM    H4F14159   1.381   2.671   7.039 -0.9720 -0.1945  0.6827
  131OSM    H4G14160   1.484   2.547   7.122 -0.7668 -0.0038  2.3948
  131OSM    C5F14161   1.283   2.572   7.202 -0.0285 -0.2517 -0.2096
  131OSM    H5F14162   1.328   2.563   7.303 -1.1374  0.6317  0.3836
  131OSM    H5G14163   1.223   2.479   7.193  1.5674 -1.3902  0.3007
  131OSM    C6F14164   1.181   2.692   7.201  0.4492 -0.4669 -0.3613
  131OSM    H6F14165   1.097   2.675   7.272  0.5303  0.5073 -0.0211
  131OSM    H6G14166   1.137   2.687   7.099  0.9137 -0.2351 -0.5750
  131OSM    C7F14167   1.245   2.829   7.230 -0.2257  0.1223  0.0364
  131OSM    H7F14168   1.176   2.914   7.215 -0.4900  0.0289  0.6760
  131OSM    H7G14169   1.328   2.844   7.158 -1.0287 -0.9238 -1.1374
  131OSM    C8F14170   1.312   2.841   7.368 -0.0312 -0.3279  0.0543
  131OSM    H8F14171   1.380   2.755   7.389 -0.2042 -0.3068  0.7320
  131OSM    H8G14172   1.233   2.843   7.446  0.3488 -1.1860  0.4812
  131OSM    C9F14173   1.390   2.966   7.367 -0.6903 -0.2993 -0.2774
  131OSM    H9F14174   1.427   2.994   7.268  1.1145  1.0594  0.7131
  131OSM   C10F14175   1.401   3.053   7.469  0.2626 -0.6100 -0.7663
  131OSM   H10F14176   1.452   3.149   7.451  1.7312 -1.3329 -0.6346
  131OSM   C11F14177   1.346   3.059   7.610 -0.1870  0.9248  0.3106
  131OSM   H11F14178   1.345   2.953   7.643  0.6182  1.3492  1.8000
  131OSM   H11G14179   1.241   3.097   7.615 -1.6751 -2.0890 -3.4951
  131OSM   C12F14180   1.447   3.126   7.700  0.2911  0.1558 -0.5188
  131OSM   H12F14181   1.458   3.231   7.667  1.3878  1.2537  2.8907
  131OSM   H12G14182   1.542   3.068   7.703  0.2865  0.1307 -0.8969
  131OSM   C13F14183   1.401   3.135   7.842  0.4730 -0.2077 -0.0980
  131OSM   H13F14184   1.423   3.036   7.887 -0.0247 -0.2974 -0.0529
  131OSM   H13G14185   1.292   3.154   7.850  0.0094 -3.0426  1.7237
  131OSM   C14F14186   1.467   3.248   7.928 -0.4542  0.4264 -0.3087
  131OSM   H14F14187   1.427   3.343   7.887 -0.9426 -0.4781 -2.0209
  131OSM   H14G14188   1.572   3.247   7.893 -0.5567  2.7746 -0.8304
  131OSM   C15F14189   1.450   3.234   8.082  0.1999 -0.0740 -0.0495
  131OSM   H15F14190   1.466   3.135   8.128 -0.9641 -0.2424  0.0046
  131OSM   H15G14191   1.343   3.258   8.096  0.4457 -0.3476  2.7697
  131OSM   C16F14192   1.532   3.343   8.158 -1.0205  0.1901  1.2812
  131OSM   H16F14193   1.489   3.441   8.127 -2.1135 -0.6051  0.2082
  131OSM   H16G14194   1.642   3.344   8.140 -1.1439 -1.3263  0.2114
  131OSM   C17F14195   1.514   3.337   8.308 -0.2948 -0.5877  0.0980
  131OSM   H17F14196   1.406   3.352   8.327 -0.1939  2.2044 -1.0461
  131OSM   H17G14197   1.555   3.428   8.356 -0.5622 -0.7387  0.6119
  131OSM   C18F14198   1.579   3.219   8.379  0.3496  0.3044  0.4017
  131OSM   H18F14199   1.686   3.229   8.352  0.8218 -2.3229  1.0099
  131OSM   H18G14200   1.556   3.126   8.323  0.4633  0.7109 -0.3317
  131OSM   H18H14201   1.557   3.220   8.488  2.6819 -1.9917  0.9969
  132OSM      N14202   2.548   2.180   6.052  1.0129  0.1774  0.1756
  132OSM    C1514203   2.676   2.231   6.121  0.9175 -0.0138  0.8473
  132OSM   H15A14204   2.662   2.285   6.213  1.3053  0.5400  0.5868
  132OSM   H15B14205   2.721   2.298   6.049 -0.3657  0.9749  0.9329
  132OSM   H15C14206   2.744   2.148   6.136  0.3110 -0.5683  0.5601
  132OSM    C1414207   2.469   2.293   5.994  0.4952 -0.0743  0.0724
  132OSM   H14A14208   2.428   2.352   6.075  2.2391  0.2324  0.7924
  132OSM   H14B14209   2.389   2.254   5.933 -0.2871  1.7676 -0.1322
  132OSM   H14C14210   2.526   2.368   5.942 -1.5381  3.4255  2.4967
  132OSM    C1314211   2.598   2.093   5.931  0.5760 -0.0265  0.1676
  132OSM   H13A14212   2.531   2.017   5.894  1.1852 -1.0874  1.2027
  132OSM   H13B14213   2.691   2.043   5.955 -0.5194 -2.8977 -1.1574
  132OSM   H13C14214   2.624   2.152   5.844  1.3030 -2.2985 -1.2306
  132OSM    C1214215   2.467   2.093   6.144 -0.2375  0.2408 -0.7434
  132OSM   H12A14216   2.523   2.004   6.168  1.3560  1.5150  0.4122
  132OSM   H12B14217   2.388   2.051   6.084  0.0003  2.1489 -2.5246
  132OSM    C1114218   2.414   2.156   6.264  0.2266  0.6422  0.2601
  132OSM   H11A14219   2.500   2.200   6.319  0.1537  2.0310 -0.6947
  132OSM   H11B14220   2.379   2.070   6.324 -0.0932 -1.1100 -2.3049
  132OSM      P14221   2.157   2.210   6.237  0.5108  0.2134  0.4003
  132OSM    O1314222   2.058   2.320   6.240 -0.8281  0.2024 -0.1634
  132OSM    O1414223   2.133   2.107   6.132  0.8600 -0.0241 -0.2770
  132OSM    O1114224   2.147   2.129   6.369  0.3355  0.7374 -0.8886
  132OSM    O1214225   2.307   2.253   6.233  0.0971 -0.3927  0.0438
  132OSM    C1S14226   2.170   2.190   6.496 -0.2349 -0.7486 -0.2317
  132OSM    H1S14227   2.116   2.286   6.505  2.1648  0.7754 -1.1107
  132OSM    H1T14228   2.279   2.208   6.511  0.1834 -0.4670 -3.0411
  132OSM     NF14229   2.107   2.167   6.733 -0.1886  0.5395  0.1409
  132OSM    HNF14230   2.178   2.145   6.800 -0.8177  1.3418  1.0941
  132OSM    C2S14231   2.113   2.099   6.603 -0.0225  0.5279 -0.3597
  132OSM    H2S14232   2.008   2.081   6.573  0.2161 -0.9316 -0.3897
  132OSM    C3S14233   2.190   1.965   6.609 -0.1334  0.5890  0.0570
  132OSM    H3S14234   2.296   2.001   6.610 -0.8522  2.9777 -1.0977
  132OSM     O314235   2.187   1.894   6.486  0.2047 -0.6753  0.1567
  132OSM    HO314236   2.166   1.957   6.417 -0.5761 -0.9851  0.1002
  132OSM    C4S14237   2.158   1.871   6.727 -0.1711  0.0484  0.0334
  132OSM    H4S14238   2.199   1.904   6.823  0.9780  0.0543 -0.4381
  132OSM    C5S14239   2.077   1.766   6.728 -0.8578 -0.6990  0.3489
  132OSM    H5S14240   2.033   1.734   6.632  2.1902  1.8008 -2.1070
  132OSM    C6S14241   2.054   1.678   6.852  0.5825 -0.0972  0.6335
  132OSM    H6S14242   2.102   1.580   6.832  1.6236  0.2501  1.3651
  132OSM    H6T14243   1.946   1.668   6.875  0.4728  0.5216  0.4162
  132OSM    C7S14244   2.110   1.728   6.989  0.0162 -0.3970 -0.1061
  132OSM    H7S14245   2.074   1.831   7.011 -2.5269 -0.8685 -1.6453
  132OSM    H7T14246   2.220   1.744   6.990 -0.1561  0.8797  0.6791
  132OSM    C8S14247   2.076   1.634   7.098 -0.4920 -0.2300 -0.6704
  132OSM    H8S14248   2.101   1.526   7.088 -0.2810 -0.1489 -1.0376
  132OSM    H8T14249   1.966   1.625   7.110 -0.5041 -0.7704 -1.1566
  132OSM    C9S14250   2.121   1.688   7.236 -0.2264  0.3924 -0.4252
  132OSM    H9S14251   2.088   1.794   7.246  3.4377  1.5212  1.9075
  132OSM    H9T14252   2.232   1.685   7.244 -0.1670  2.1369 -0.2713
  132OSM   C10S14253   2.064   1.620   7.361 -0.3787  0.5017  0.2364
  132OSM   H10S14254   2.077   1.509   7.360 -0.4618  0.4943 -0.4743
  132OSM   H10T14255   1.954   1.632   7.354 -0.2831  1.1490 -0.1940
  132OSM   C11S14256   2.101   1.684   7.494  0.5064 -0.3129  0.9260
  132OSM   H11S14257   2.066   1.790   7.499 -2.5060 -1.1435 -0.4765
  132OSM   H11T14258   2.211   1.695   7.499  0.4779 -0.3174  1.6833
  132OSM   C12S14259   2.048   1.604   7.614 -0.1460  0.0399  0.1833
  132OSM   H12S14260   2.078   1.498   7.600  0.3460  0.2187 -0.1691
  132OSM   H12T14261   1.937   1.608   7.608 -0.0665  1.6468 -1.0617
  132OSM   C13S14262   2.115   1.654   7.743  0.1761 -0.1256 -0.0355
  132OSM   H13S14263   2.108   1.764   7.733 -2.0660 -0.3467 -1.5337
  132OSM   H13T14264   2.221   1.621   7.739  0.3116  0.3459 -3.1903
  132OSM   C14S14265   2.040   1.622   7.872  0.2652  0.4910  0.3800
  132OSM   H14S14266   2.012   1.515   7.870 -0.3602  0.6146  1.7539
  132OSM   H14T14267   1.945   1.678   7.870  0.5888  1.0447  0.3011
  132OSM   C15S14268   2.107   1.649   8.010 -0.5443 -0.1971 -0.0986
  132OSM   H15S14269   2.212   1.683   8.003 -0.1917 -1.0937  0.5843
  132OSM   H15T14270   2.118   1.553   8.066 -0.4081 -0.5035 -0.6418
  132OSM   C16S14271   2.017   1.734   8.103 -0.4785 -0.6293 -0.6768
  132OSM   H16S14272   1.980   1.818   8.042 -2.0143 -0.8181 -0.0591
  132OSM   H16T14273   2.073   1.782   8.186 -0.4558 -2.0673  0.1813
  132OSM   C17S14274   1.893   1.672   8.166  0.6615  0.2463 -0.1901
  132OSM   H17S14275   1.917   1.573   8.210  2.9832  0.9912  0.3746
  132OSM   H17T14276   1.808   1.660   8.096  1.1681  0.0153 -0.7724
  132OSM   C18S14277   1.842   1.753   8.291 -0.0164  0.1370  0.0727
  132OSM   H18S14278   1.920   1.788   8.362 -1.1701  0.0398  1.4371
  132OSM   H18T14279   1.756   1.698   8.334  0.8015 -0.0436  1.5369
  132OSM   H18U14280   1.795   1.848   8.258  0.9417  1.0572  1.2795
  132OSM    C1F14281   2.023   2.261   6.768  0.3475 -0.5520  0.2923
  132OSM     OF14282   1.933   2.303   6.692  0.0017 -0.5867  0.2669
  132OSM    C2F14283   2.059   2.331   6.892  0.0121 -0.1310 -0.5073
  132OSM    H2F14284   2.115   2.423   6.866 -0.2463 -0.0827 -0.9224
  132OSM    H2G14285   2.132   2.273   6.952  1.0665 -0.1141 -1.7243
  132OSM    C3F14286   1.925   2.359   6.961  0.5913  0.0280  0.1287
  132OSM    H3F14287   1.847   2.282   6.942 -0.4024  1.0147  0.0505
  132OSM    H3G14288   1.882   2.448   6.910  0.5286 -0.5889 -0.9361
  132OSM    C4F14289   1.931   2.386   7.109 -0.0265  0.6713  0.1371
  132OSM    H4F14290   2.004   2.467   7.126 -0.5627  1.0327  0.7720
  132OSM    H4G14291   1.982   2.307   7.168  0.5827 -1.5763 -3.1150
  132OSM    C5F14292   1.797   2.425   7.170 -0.2708 -0.4490 -1.0758
  132OSM    H5F14293   1.736   2.336   7.146  0.2192 -0.9419 -0.5276
  132OSM    H5G14294   1.735   2.508   7.129 -1.3862 -0.5327  0.3328
  132OSM    C6F14295   1.809   2.452   7.318 -0.3416  0.1542  0.0323
  132OSM    H6F14296   1.873   2.541   7.332 -1.7891  1.1948  0.2680
  132OSM    H6G14297   1.868   2.369   7.363  1.9560  1.9278  0.4897
  132OSM    C7F14298   1.669   2.465   7.386 -0.2237 -1.2647  0.4052
  132OSM    H7F14299   1.614   2.369   7.396 -0.8009 -1.0285 -0.3423
  132OSM    H7G14300   1.611   2.540   7.327  2.1557 -0.5358 -1.1736
  132OSM    C8F14301   1.679   2.519   7.527 -0.3053  0.3289  0.8847
  132OSM    H8F14302   1.729   2.618   7.521 -0.7249  0.4387 -2.8165
  132OSM    H8G14303   1.750   2.457   7.586 -1.4730  0.8465  2.9312
  132OSM    C9F14304   1.546   2.537   7.599 -0.5588  0.0083  1.2502
  132OSM    H9F14305   1.458   2.530   7.534 -2.5235 -0.9764  3.8431
  132OSM   C10F14306   1.537   2.556   7.733  0.4252 -0.1749 -0.2621
  132OSM   H10F14307   1.438   2.562   7.780  1.2716 -0.9741  1.7112
  132OSM   C11F14308   1.644   2.561   7.832 -0.1106  0.2433  0.9771
  132OSM   H11F14309   1.637   2.640   7.911  3.1023 -1.4228  3.1710
  132OSM   H11G14310   1.738   2.586   7.779 -0.4604 -0.6126 -0.0631
  132OSM   C12F14311   1.648   2.430   7.915  0.6100 -0.1102 -0.1186
  132OSM   H12F14312   1.669   2.350   7.841  0.1650  1.2682 -1.7971
  132OSM   H12G14313   1.549   2.406   7.961 -0.4463 -1.8305 -3.0518
  132OSM   C13F14314   1.734   2.449   8.040 -0.3926 -0.1996 -0.1737
  132OSM   H13F14315   1.724   2.545   8.096 -1.0232  0.1249 -0.8161
  132OSM   H13G14316   1.833   2.451   7.991 -0.9303  0.7431 -1.2769
  132OSM   C14F14317   1.720   2.326   8.138 -0.2980  0.2034  0.1531
  132OSM   H14F14318   1.811   2.315   8.202 -1.3436 -0.4731  1.5786
  132OSM   H14G14319   1.718   2.233   8.077  0.1572  0.0322  0.3907
  132OSM   C15F14320   1.594   2.344   8.226 -0.7418  0.7212 -0.3091
  132OSM   H15F14321   1.510   2.389   8.170 -2.2655 -2.2962 -0.6710
  132OSM   H15G14322   1.614   2.420   8.304  1.7321  0.9551 -1.0893
  132OSM   C16F14323   1.551   2.210   8.290 -0.5667 -0.5963 -0.1264
  132OSM   H16F14324   1.540   2.133   8.210 -4.4840  0.9188 -1.2876
  132OSM   H16G14325   1.446   2.213   8.327 -0.2722  0.0830  0.6724
  132OSM   C17F14326   1.653   2.175   8.400  0.6136  0.2963 -0.2218
  132OSM   H17F14327   1.674   2.251   8.478 -0.8395 -0.4737  0.9776
  132OSM   H17G14328   1.753   2.176   8.352 -0.5696  0.1707 -2.9066
  132OSM   C18F14329   1.650   2.040   8.467  0.1582 -0.1117 -0.0898
  132OSM   H18F14330   1.665   1.952   8.401 -1.7392 -0.9879  0.5610
  132OSM   H18G14331   1.546   2.026   8.504 -0.0105  0.9674 -0.1232
  132OSM   H18H14332   1.715   2.022   8.554  0.6627 -2.9220 -0.9542
  133OSM      N14333   1.029   1.626   5.818 -0.1095  0.9867  0.2398
  133OSM    C1514334   1.082   1.738   5.732 -0.3837  0.4618  0.5098
  133OSM   H15A14335   1.015   1.823   5.730 -0.7203  0.1815 -1.4279
  133OSM   H15B14336   1.088   1.704   5.630  1.2997  2.1730 -0.0203
  133OSM   H15C14337   1.185   1.758   5.758  0.6627 -3.3236 -0.0724
  133OSM    C1414338   0.930   1.550   5.729  0.9736 -0.1788  0.8594
  133OSM   H14A14339   0.969   1.508   5.637 -0.8705  0.0799 -0.0871
  133OSM   H14B14340   0.853   1.612   5.686 -0.1536 -2.8563 -1.2475
  133OSM   H14C14341   0.889   1.472   5.791 -0.0655  0.2517  0.7222
  133OSM    C1314342   1.143   1.534   5.859 -0.5409 -0.0130 -0.2767
  133OSM   H13A14343   1.212   1.521   5.777  0.4662 -1.0126  0.6939
  133OSM   H13B14344   1.122   1.431   5.882 -0.2884  0.0627  0.2984
  133OSM   H13C14345   1.195   1.589   5.936 -1.2347 -0.9437  0.8811
  133OSM    C1214346   0.956   1.676   5.942 -0.1603 -0.3835  0.2258
  133OSM   H12A14347   0.878   1.749   5.924  0.3312 -0.1701 -1.1884
  133OSM   H12B14348   1.028   1.721   6.008 -0.8858 -0.4254  1.0587
  133OSM    C1114349   0.885   1.561   6.022 -0.5064  0.6498  0.7146
  133OSM   H11A14350   0.880   1.599   6.126  0.7776 -0.7511  1.3129
  133OSM   H11B14351   0.951   1.472   6.019 -1.4230 -0.1161 -3.2865
  133OSM      P14352   0.641   1.590   5.972  0.2346  0.0625 -0.4706
  133OSM    O1314353   0.666   1.709   5.891  0.0431 -0.3612 -0.3886
  133OSM    O1414354   0.519   1.521   5.937 -0.2499 -0.4022  0.3186
  133OSM    O1114355   0.641   1.637   6.121  0.3891 -0.4177 -0.1021
  133OSM    O1214356   0.767   1.508   5.964  0.2480 -0.4872 -0.0429
  133OSM    C1S14357   0.589   1.548   6.225  0.0701  0.4990  0.5410
  133OSM    H1S14358   0.614   1.446   6.188  4.1321  1.0383  1.3093
  133OSM    H1T14359   0.480   1.554   6.242 -0.1166  2.2480 -0.9775
  133OSM     NF14360   0.606   1.448   6.446 -0.2440  0.2051  0.0185
  133OSM    HNF14361   0.529   1.479   6.501 -0.6291  1.4441 -1.1407
  133OSM    C2S14362   0.661   1.550   6.361 -0.1336 -0.4063 -1.0071
  133OSM    H2S14363   0.768   1.528   6.340  0.0445 -1.0360  0.4072
  133OSM    C3S14364   0.659   1.691   6.428  0.6396  0.1834  0.7003
  133OSM    H3S14365   0.555   1.730   6.427  1.5696  2.8975  0.2968
  133OSM     O314366   0.727   1.786   6.346  0.1492 -0.6247  0.8613
  133OSM    HO314367   0.745   1.740   6.263 -0.6324  1.4510 -0.5479
  133OSM    C4S14368   0.732   1.687   6.557  0.1806  0.1552 -1.0911
  133OSM    H4S14369   0.839   1.663   6.553  0.0936 -0.3363 -0.4613
  133OSM    C5S14370   0.665   1.729   6.667  0.3981  0.6761 -0.2228
  133OSM    H5S14371   0.567   1.774   6.645  0.9506  1.0773 -2.0803
  133OSM    C6S14372   0.699   1.740   6.813 -0.0083 -1.0181 -0.2548
  133OSM    H6S14373   0.610   1.717   6.875 -1.0897 -0.4464 -1.5383
  133OSM    H6T14374   0.734   1.843   6.835 -1.6125 -0.6049  0.5568
  133OSM    C7S14375   0.804   1.636   6.863  0.2098  0.7219  0.1204
  133OSM    H7S14376   0.900   1.638   6.806  0.5605 -0.1653  0.6527
  133OSM    H7T14377   0.758   1.537   6.842  0.5290  0.5752  0.1093
  133OSM    C8S14378   0.834   1.642   7.012 -0.5985  0.6410 -0.0955
  133OSM    H8S14379   0.901   1.561   7.048  0.0508  1.6241  1.0069
  133OSM    H8T14380   0.736   1.640   7.064 -1.9911  1.1672 -2.5735
  133OSM    C9S14381   0.878   1.777   7.065 -0.1254 -0.8032 -0.2501
  133OSM    H9S14382   0.788   1.843   7.073  0.1646 -0.4931  0.5984
  133OSM    H9T14383   0.959   1.811   6.997 -0.0845 -3.5833 -1.7179
  133OSM   C10S14384   0.940   1.785   7.201  1.1366 -0.2126 -0.1646
  133OSM   H10S14385   1.000   1.878   7.197 -1.1225  1.4662  2.3197
  133OSM   H10T14386   1.008   1.697   7.203  0.7731 -0.4936  0.0751
  133OSM   C11S14387   0.843   1.780   7.311 -0.4804  0.0867 -0.0090
  133OSM   H11S14388   0.788   1.683   7.311 -2.6011  1.2229 -0.5106
  133OSM   H11T14389   0.775   1.867   7.295  1.0383  1.1073 -1.1044
  133OSM   C12S14390   0.909   1.807   7.447 -0.8938 -0.2899  0.5086
  133OSM   H12S14391   0.975   1.897   7.445 -1.1610 -0.0398  2.1177
  133OSM   H12T14392   0.974   1.718   7.462 -0.1222 -0.0333 -1.0357
  133OSM   C13S14393   0.810   1.818   7.556 -0.4957  0.2157  0.4914
  133OSM   H13S14394   0.724   1.752   7.535  0.3039 -1.0158  0.9960
  133OSM   H13T14395   0.765   1.919   7.542 -0.7429  0.3781  2.2412
  133OSM   C14S14396   0.869   1.809   7.693  0.2720 -0.3659  0.0436
  133OSM   H14S14397   0.933   1.899   7.700 -0.9593  0.6310 -1.0318
  133OSM   H14T14398   0.908   1.705   7.707 -0.9797 -0.9911 -0.8840
  133OSM   C15S14399   0.755   1.819   7.800 -0.1429 -0.7166  0.3456
  133OSM   H15S14400   0.681   1.742   7.770  0.3915  0.1251 -3.6972
  133OSM   H15T14401   0.701   1.913   7.777  1.1567 -0.5812 -2.5171
  133OSM   C16S14402   0.809   1.831   7.943 -0.1638  0.2437  0.4307
  133OSM   H16S14403   0.872   1.742   7.960  1.8965  1.1842 -1.6804
  133OSM   H16T14404   0.728   1.825   8.018  1.7801  1.5187  2.7830
  133OSM   C17S14405   0.907   1.946   7.963 -0.7045 -0.0284 -0.2724
  133OSM   H17S14406   1.000   1.918   7.911 -1.3405 -2.4567 -0.2035
  133OSM   H17T14407   0.928   1.947   8.072  0.1332  2.4198 -0.3962
  133OSM   C18S14408   0.854   2.076   7.915  0.1003 -0.0522 -0.0290
  133OSM   H18S14409   0.837   2.073   7.806 -0.5397 -2.7062  0.0692
  133OSM   H18T14410   0.927   2.156   7.935  1.5347 -1.6616  1.5012
  133OSM   H18U14411   0.762   2.105   7.972 -0.0656  1.0413 -0.8409
  133OSM    C1F14412   0.630   1.314   6.434 -0.2753 -0.4378 -0.2906
  133OSM     OF14413   0.697   1.272   6.344  0.2283 -0.1844 -0.0250
  133OSM    C2F14414   0.567   1.227   6.531  0.1854  0.1901 -0.6864
  133OSM    H2F14415   0.574   1.118   6.512  0.4425  0.1956 -0.6355
  133OSM    H2G14416   0.460   1.252   6.540 -0.2233 -2.0478  1.9833
  133OSM    C3F14417   0.627   1.255   6.677  0.0823  0.5573 -0.0655
  133OSM    H3F14418   0.600   1.358   6.708 -2.4306  0.7144 -2.3296
  133OSM    H3G14419   0.735   1.229   6.682  0.1300  0.8450  0.4167
  133OSM    C4F14420   0.548   1.183   6.788  0.4304 -0.1116  0.1808
  133OSM    H4F14421   0.507   1.084   6.756  2.7654 -1.5035  1.2043
  133OSM    H4G14422   0.452   1.237   6.801 -0.4496 -1.7588  0.8260
  133OSM    C5F14423   0.620   1.164   6.924 -0.6906 -0.3829 -0.3642
  133OSM    H5F14424   0.672   1.259   6.946  0.9643 -1.3356  0.0485
  133OSM    H5G14425   0.702   1.090   6.913  1.5967  2.2390 -2.2028
  133OSM    C6F14426   0.528   1.128   7.039 -0.0166 -0.0144  0.3513
  133OSM    H6F14427   0.484   1.030   7.009  1.9529 -0.8586  0.0556
  133OSM    H6G14428   0.446   1.201   7.055 -2.8999 -2.8572 -0.2896
  133OSM    C7F14429   0.609   1.112   7.170 -0.3037  0.8704  0.1018
  133OSM    H7F14430   0.714   1.083   7.151 -0.3579 -0.0717  1.1740
  133OSM    H7G14431   0.570   1.024   7.225  0.8879  1.4500  1.9459
  133OSM    C8F14432   0.602   1.233   7.261 -0.0060  0.2730  0.3410
  133OSM    H8F14433   0.645   1.324   7.214  0.1413  0.6847  1.2584
  133OSM    H8G14434   0.661   1.208   7.351 -1.0720  1.8784  1.5446
  133OSM    C9F14435   0.459   1.262   7.306 -0.3410 -0.9304  0.0733
  133OSM    H9F14436   0.412   1.329   7.233 -1.2498 -1.4681  0.1482
  133OSM   C10F14437   0.384   1.215   7.411  0.4631 -0.3834 -0.1801
  133OSM   H10F14438   0.283   1.259   7.419  1.1207  1.8174 -2.6505
  133OSM   C11F14439   0.428   1.113   7.512  0.2248 -0.1144  0.8926
  133OSM   H11F14440   0.536   1.122   7.535  0.4350 -0.8433  0.2105
  133OSM   H11G14441   0.408   1.015   7.463  0.4606  1.8610 -3.6326
  133OSM   C12F14442   0.363   1.115   7.652  0.4766 -0.5550 -0.5359
  133OSM   H12F14443   0.404   1.208   7.699  0.6227 -0.4585 -0.8514
  133OSM   H12G14444   0.408   1.043   7.723  2.0313 -0.1116 -1.0267
  133OSM   C13F14445   0.211   1.118   7.667 -0.0329 -0.4615  0.0263
  133OSM   H13F14446   0.174   1.026   7.617  2.7531 -0.3234 -2.6151
  133OSM   H13G14447   0.182   1.202   7.601  1.3590  0.0007 -0.0316
  133OSM   C14F14448   0.155   1.140   7.807 -0.7102 -0.1954  0.2049
  133OSM   H14F14449   0.201   1.241   7.813 -2.2697  0.5179  0.7216
  133OSM   H14G14450   0.211   1.071   7.874  0.5799  0.2726 -0.3670
  133OSM   C15F14451   0.004   1.127   7.834 -0.4703 -0.1235  0.8793
  133OSM   H15F14452  -0.039   1.027   7.815 -0.4812 -0.3923  2.1922
  133OSM   H15G14453  -0.046   1.193   7.760 -3.0464 -0.5918  2.0705
  133OSM   C16F14454  -0.038   1.177   7.967 -0.1149  0.1517  0.4959
  133OSM   H16F14455  -0.149   1.176   7.969 -0.1120  0.8084  1.2948
  133OSM   H16G14456   0.002   1.281   7.971  0.8845 -0.0904 -1.5821
  133OSM   C17F14457   0.016   1.104   8.086  0.4681 -0.2721  0.3954
  133OSM   H17F14458  -0.011   1.157   8.179 -2.4048 -0.1073 -0.4336
  133OSM   H17G14459   0.127   1.100   8.079  0.4084 -0.8449 -0.3415
  133OSM   C18F14460  -0.041   0.963   8.093 -0.2817  0.3544 -0.0307
  133OSM   H18F14461  -0.142   0.965   8.138 -0.5507  1.0074 -0.6475
  133OSM   H18G14462   0.022   0.904   8.163 -1.6737 -1.3969 -0.1954
  133OSM   H18H14463  -0.046   0.903   7.999  2.3579 -1.7316  1.0043
  134OSM      N14464   1.940   5.960   6.214  0.0024  0.1866  0.0438
  134OSM    C1514465   2.021   6.063   6.141 -0.4248  0.3841 -0.4785
  134OSM   H15A14466   1.963   6.151   6.119  1.3261  1.5382 -0.7296
  134OSM   H15B14467   2.069   6.026   6.052  1.5318  1.5603  0.0060
  134OSM   H15C14468   2.097   6.103   6.208  0.0300 -1.4577  0.1532
  134OSM    C1414469   1.834   5.918   6.126 -0.2735 -0.0336  0.6815
  134OSM   H14A14470   1.752   5.864   6.172  0.0005 -1.2323 -0.1923
  134OSM   H14B14471   1.866   5.868   6.035  2.4436  0.7731  1.1062
  134OSM   H14C14472   1.779   6.003   6.090  1.4399  0.5474 -0.7193
  134OSM    C1314473   2.026   5.833   6.238 -0.3512 -0.1087 -0.4483
  134OSM   H13A14474   2.074   5.817   6.142 -0.1264 -0.6101 -0.2523
  134OSM   H13B14475   1.964   5.747   6.254  0.3040 -0.6995 -1.0075
  134OSM   H13C14476   2.102   5.846   6.313  1.4580 -1.5266 -1.9339
  134OSM    C1214477   1.877   6.018   6.341 -0.1350 -0.1353 -0.3594
  134OSM   H12A14478   1.832   5.936   6.395 -0.5813  0.0026 -0.5170
  134OSM   H12B14479   1.796   6.086   6.320  1.1030  1.3431 -0.5339
  134OSM    C1114480   1.962   6.088   6.447 -0.0867  0.8842  0.6933
  134OSM   H11A14481   2.048   6.034   6.492  1.3261  1.6322 -0.9818
  134OSM   H11B14482   1.893   6.095   6.534 -0.6202 -0.7352  0.4329
  134OSM      P14483   1.930   6.346   6.415  0.3327  0.1725  0.0417
  134OSM    O1314484   2.022   6.456   6.436  0.1645 -0.6154  0.8031
  134OSM    O1414485   1.826   6.361   6.307  0.0360  0.3668 -0.1267
  134OSM    O1114486   1.853   6.327   6.554 -0.2121 -0.2249  0.1157
  134OSM    O1214487   2.010   6.211   6.399 -0.6098 -0.4495  0.0249
  134OSM    C1S14488   1.770   6.429   6.618 -0.1580 -0.2996  0.5158
  134OSM    H1S14489   1.665   6.416   6.582 -0.6287  1.4822  1.1221
  134OSM    H1T14490   1.799   6.531   6.584  1.7317 -0.8028  0.5018
  134OSM     NF14491   1.704   6.547   6.829 -0.3864 -0.6655  0.8002
  134OSM    HNF14492   1.754   6.622   6.871 -0.3402  0.1413 -0.6229
  134OSM    C2S14493   1.774   6.432   6.769 -0.2721  0.5962  1.0291
  134OSM    H2S14494   1.725   6.336   6.797 -0.3317  0.0865 -0.6800
  134OSM    C3S14495   1.922   6.414   6.825  0.1824 -0.7141 -0.1667
  134OSM    H3S14496   1.970   6.512   6.806 -0.8520 -0.6790 -2.9668
  134OSM     O314497   1.992   6.301   6.768 -0.3847  0.1659 -0.6219
  134OSM    HO314498   1.957   6.299   6.678 -1.6700 -1.9703 -0.1438
  134OSM    C4S14499   1.918   6.387   6.970  0.4048 -0.2965  0.1688
  134OSM    H4S14500   1.846   6.307   6.994  0.0477  0.4900  1.8783
  134OSM    C5S14501   1.969   6.475   7.061  0.7755  1.3028  0.0266
  134OSM    H5S14502   2.025   6.562   7.023  1.0948  1.0066 -0.1894
  134OSM    C6S14503   1.969   6.468   7.209  0.0691 -0.3567 -0.2591
  134OSM    H6S14504   1.912   6.552   7.253  0.4365 -1.1503  1.8610
  134OSM    H6T14505   2.068   6.485   7.256  0.9626  0.9703 -2.4473
  134OSM    C7S14506   1.912   6.341   7.279  0.4527 -0.2977  0.1983
  134OSM    H7S14507   1.985   6.258   7.273 -0.9965 -1.6174  0.0666
  134OSM    H7T14508   1.825   6.305   7.220  0.0857 -3.2906  2.3436
  134OSM    C8S14509   1.861   6.365   7.428 -0.0104  0.2306  0.0174
  134OSM    H8S14510   1.808   6.273   7.459  0.5601  0.0884  0.6035
  134OSM    H8T14511   1.787   6.447   7.427 -1.6373 -1.1755 -0.8598
  134OSM    C9S14512   1.965   6.402   7.529 -0.1157 -0.4445 -0.4228
  134OSM    H9S14513   1.990   6.510   7.520 -1.8802 -0.0778 -1.3188
  134OSM    H9T14514   2.051   6.339   7.499 -1.5591 -2.1543 -1.0920
  134OSM   C10S14515   1.941   6.360   7.674 -0.1975 -0.0832 -0.2991
  134OSM   H10S14516   1.953   6.250   7.682  0.4763 -0.0418 -0.7085
  134OSM   H10T14517   1.834   6.380   7.698  0.0110  3.0498 -1.5816
  134OSM   C11S14518   2.032   6.431   7.773  0.4381  0.4226 -0.0141
  134OSM   H11S14519   2.002   6.536   7.793  1.1669  0.2466  2.4274
  134OSM   H11T14520   2.131   6.432   7.724 -0.4170  0.4025 -1.8238
  134OSM   C12S14521   2.029   6.357   7.907 -0.0554  0.3165  0.2612
  134OSM   H12S14522   2.066   6.256   7.878 -0.5154 -0.0668  0.9739
  134OSM   H12T14523   1.922   6.338   7.930  0.7790 -1.4812  3.1265
  134OSM   C13S14524   2.113   6.412   8.023 -0.3843  0.7768 -0.4794
  134OSM   H13S14525   2.083   6.515   8.054  0.0675  0.8651 -0.3300
  134OSM   H13T14526   2.223   6.418   8.012 -0.1456 -0.5796  0.8593
  134OSM   C14S14527   2.095   6.325   8.152 -0.2305  0.5544  0.1543
  134OSM   H14S14528   2.123   6.219   8.133 -0.2257  0.5042  0.4344
  134OSM   H14T14529   1.990   6.319   8.189  0.0527 -3.7387  0.7552
  134OSM   C15S14530   2.186   6.383   8.263  0.4772  0.1159 -0.0773
  134OSM   H15S14531   2.150   6.485   8.291 -0.7404 -0.4515  0.5265
  134OSM   H15T14532   2.288   6.394   8.221 -0.0455 -1.0705 -1.7559
  134OSM   C16S14533   2.203   6.305   8.392  0.1783 -0.2166  1.1224
  134OSM   H16S14534   2.259   6.211   8.371 -0.7386 -0.5826  0.2820
  134OSM   H16T14535   2.105   6.279   8.438  0.3980 -0.0212  1.7202
  134OSM   C17S14536   2.274   6.378   8.509 -0.3043  0.3269  0.1440
  134OSM   H17S14537   2.357   6.438   8.467  1.1033 -0.2796  1.9435
  134OSM   H17T14538   2.315   6.307   8.585 -2.1059 -0.6494  0.2676
  134OSM   C18S14539   2.168   6.460   8.591  0.6866 -0.1071 -0.6135
  134OSM   H18S14540   2.080   6.405   8.630  2.6641 -1.4268  2.4689
  134OSM   H18T14541   2.127   6.547   8.536  1.1799 -0.4588 -1.5554
  134OSM   H18U14542   2.219   6.493   8.685  0.3957 -0.3865 -0.3546
  134OSM    C1F14543   1.575   6.575   6.820 -0.2917  0.1589 -0.4895
  134OSM     OF14544   1.501   6.497   6.763  0.2143  0.2198  0.0511
  134OSM    C2F14545   1.525   6.707   6.868  0.5873 -0.6710  0.2883
  134OSM    H2F14546   1.442   6.740   6.802 -0.7563 -2.4063  1.0339
  134OSM    H2G14547   1.602   6.784   6.845 -1.0375  0.8361 -0.3053
  134OSM    C3F14548   1.476   6.708   7.012  0.5088  0.9614 -0.1778
  134OSM    H3F14549   1.386   6.643   7.014  1.0983  0.0445 -1.4996
  134OSM    H3G14550   1.450   6.812   7.041  1.2601  1.6079 -1.7005
  134OSM    C4F14551   1.576   6.650   7.107  0.1510 -0.0699 -0.6861
  134OSM    H4F14552   1.679   6.681   7.077  0.1818 -0.0389 -0.5474
  134OSM    H4G14553   1.567   6.540   7.100  2.2600 -0.5167  2.1083
  134OSM    C5F14554   1.557   6.680   7.258  0.2213  0.0020  0.0556
  134OSM    H5F14555   1.605   6.779   7.275 -3.0500  1.9554 -1.2504
  134OSM    H5G14556   1.613   6.601   7.314 -0.6255 -0.0303  0.8809
  134OSM    C6F14557   1.411   6.683   7.302  0.3963  0.6899  0.2199
  134OSM    H6F14558   1.376   6.581   7.274  3.2416 -1.0240  2.3002
  134OSM    H6G14559   1.360   6.764   7.247  1.8882  0.0900 -2.2307
  134OSM    C7F14560   1.389   6.691   7.451 -0.0536 -0.0915 -0.3130
  134OSM    H7F14561   1.428   6.599   7.499 -0.5430  0.1685  0.6037
  134OSM    H7G14562   1.282   6.688   7.481  0.2815 -1.3397  0.8502
  134OSM    C8F14563   1.461   6.799   7.527  0.0885  0.5889 -0.8230
  134OSM    H8F14564   1.436   6.899   7.485 -1.2810  1.5299  1.9754
  134OSM    H8G14565   1.571   6.790   7.516  0.2745  2.3335 -0.6334
  134OSM    C9F14566   1.423   6.793   7.676 -0.7462 -0.1790  0.3316
  134OSM    H9F14567   1.320   6.826   7.694 -1.4867 -3.0397  1.9055
  134OSM   C10F14568   1.509   6.755   7.770  0.6084 -0.2077  0.0570
  134OSM   H10F14569   1.479   6.763   7.876 -0.3195  0.5941 -0.2512
  134OSM   C11F14570   1.657   6.710   7.750  0.4397  0.1093  0.2914
  134OSM   H11F14571   1.691   6.715   7.644  0.2727 -0.3358  0.2134
  134OSM   H11G14572   1.665   6.604   7.782  2.5925  0.5171  1.2513
  134OSM   C12F14573   1.764   6.774   7.830 -0.2431 -0.5392 -0.1840
  134OSM   H12F14574   1.856   6.717   7.854  0.8926  1.2745 -0.0687
  134OSM   H12G14575   1.714   6.793   7.928  1.3446  1.6806  0.2652
  134OSM   C13F14576   1.797   6.921   7.778 -0.0174 -0.1311  0.8206
  134OSM   H13F14577   1.822   6.987   7.864  0.9947 -0.2230  0.6037
  134OSM   H13G14578   1.698   6.961   7.748 -0.0240 -1.0438 -0.4778
  134OSM   C14F14579   1.900   6.922   7.662 -0.5610  0.4729 -0.5822
  134OSM   H14F14580   1.872   7.013   7.605 -0.3696  2.3020  2.0753
  134OSM   H14G14581   1.876   6.836   7.596  0.3177 -1.7433  1.8376
  134OSM   C15F14582   2.056   6.930   7.703  0.5239  0.4571 -0.0103
  134OSM   H15F14583   2.056   7.026   7.760 -1.1792  2.7255 -3.5071
  134OSM   H15G14584   2.108   6.953   7.608  1.0419  2.1097  0.6409
  134OSM   C16F14585   2.105   6.803   7.781  0.2167 -0.3216  0.1350
  134OSM   H16F14586   2.085   6.705   7.733 -1.4295 -0.8680  1.8210
  134OSM   H16G14587   2.060   6.808   7.882 -1.5509  0.2164 -0.6424
  134OSM   C17F14588   2.262   6.814   7.804  0.1934 -0.1730  0.1690
  134OSM   H17F14589   2.304   6.908   7.845 -4.3566  2.0182  0.3805
  134OSM   H17G14590   2.306   6.807   7.702 -0.8270 -0.1967 -0.2816
  134OSM   C18F14591   2.310   6.703   7.903  0.2781 -0.5782 -0.1553
  134OSM   H18F14592   2.420   6.716   7.914  0.2579 -0.9930  0.6066
  134OSM   H18G14593   2.275   6.607   7.861  1.4063 -0.8573 -0.4964
  134OSM   H18H14594   2.280   6.727   8.007  3.8466  1.6226  0.5625
  135OSM      N14595   1.977   0.931   6.312 -0.1121  0.0824  0.7511
  135OSM    C1514596   2.114   0.964   6.256  0.3667  0.4358  0.0467
  135OSM   H15A14597   2.162   0.871   6.229 -0.7298  0.4336 -2.0835
  135OSM   H15B14598   2.176   1.008   6.333  2.2038 -0.3477 -0.9140
  135OSM   H15C14599   2.106   1.029   6.170 -0.6659  1.3537  0.8103
  135OSM    C1414600   1.893   1.053   6.314 -0.4711 -0.4042  0.6238
  135OSM   H14A14601   1.922   1.116   6.396 -0.8950 -0.7475  1.0380
  135OSM   H14B14602   1.789   1.027   6.330  0.0940 -1.9603  1.9395
  135OSM   H14C14603   1.910   1.112   6.224  0.8668 -0.9350  0.5067
  135OSM    C1314604   1.929   0.821   6.224  0.6732  0.3922  0.0949
  135OSM   H13A14605   1.943   0.832   6.117  0.7870  3.3096  0.3387
  135OSM   H13B14606   1.825   0.804   6.245  0.1788 -1.5462 -3.1641
  135OSM   H13C14607   1.992   0.736   6.248  0.4404  0.7688  2.1721
  135OSM    C1214608   1.991   0.868   6.453  0.0993 -0.4484  0.3222
  135OSM   H12A14609   2.011   0.948   6.523 -2.2627 -0.9302  1.6225
  135OSM   H12B14610   2.077   0.803   6.451  1.6787  1.5339  0.0633
  135OSM    C1114611   1.869   0.793   6.510 -0.1950  0.3320  0.1230
  135OSM   H11A14612   1.877   0.733   6.603 -0.8513 -0.2349 -0.1757
  135OSM   H11B14613   1.826   0.719   6.439  1.7261 -0.0596 -0.6763
  135OSM      P14614   1.759   0.991   6.661  0.6005 -0.1203  0.0699
  135OSM    O1314615   1.896   1.037   6.689  0.0901 -0.6605  0.3741
  135OSM    O1414616   1.668   1.093   6.610 -0.4348 -0.1296 -0.1938
  135OSM    O1114617   1.692   0.913   6.789  0.1965  0.6642 -0.1253
  135OSM    O1214618   1.765   0.883   6.541 -0.1931  0.2292  0.2592
  135OSM    C1S14619   1.619   0.792   6.774  0.0391  0.1610  0.4118
  135OSM    H1S14620   1.681   0.700   6.776 -0.7659 -0.5109 -1.9362
  135OSM    H1T14621   1.563   0.789   6.678 -1.0025  0.0137  1.0129
  135OSM     NF14622   1.438   0.658   6.889  0.2703  0.4269 -0.0724
  135OSM    HNF14623   1.363   0.648   6.824  0.1892  1.3413 -0.1367
  135OSM    C2S14624   1.517   0.789   6.885  0.4849 -0.0760 -0.1387
  135OSM    H2S14625   1.573   0.798   6.981 -1.0867 -0.1810  0.8332
  135OSM    C3S14626   1.421   0.913   6.876  0.1392  0.3962  0.6012
  135OSM    H3S14627   1.387   0.913   6.770  3.1330 -2.6655 -0.5390
  135OSM     O314628   1.485   1.032   6.899 -0.1364 -0.4686  0.0654
  135OSM    HO314629   1.577   1.013   6.881  0.3115  1.7830 -0.3055
  135OSM    C4S14630   1.303   0.888   6.970 -0.0765 -0.0449 -0.5442
  135OSM    H4S14631   1.316   0.917   7.075 -1.0650  0.1082 -0.4536
  135OSM    C5S14632   1.182   0.851   6.930 -0.7623 -0.2300  0.2166
  135OSM    H5S14633   1.173   0.831   6.822  1.4098 -0.7682  0.0872
  135OSM    C6S14634   1.066   0.837   7.019 -0.8814 -0.1619  0.1697
  135OSM    H6S14635   1.019   0.737   7.006 -0.5682 -0.2672 -0.1679
  135OSM    H6T14636   0.991   0.912   6.989  1.5115  1.8266 -1.1628
  135OSM    C7S14637   1.093   0.873   7.164 -0.5433 -0.9197 -0.1499
  135OSM    H7S14638   1.129   0.978   7.170  1.9099 -1.6551 -1.1043
  135OSM    H7T14639   1.179   0.810   7.195 -0.2356  0.1600  1.3008
  135OSM    C8S14640   0.971   0.852   7.254  0.9060 -0.0314  0.2276
  135OSM    H8S14641   0.923   0.756   7.224 -1.1057  2.0097 -3.9982
  135OSM    H8T14642   0.893   0.925   7.224  0.6035 -1.1316 -1.8284
  135OSM    C9S14643   0.988   0.861   7.414  0.2601 -0.0682  0.7025
  135OSM    H9S14644   1.063   0.940   7.440  2.4219 -1.0510 -2.0139
  135OSM    H9T14645   1.034   0.765   7.445  2.1742  1.4937  3.1893
  135OSM   C10S14646   0.852   0.880   7.485 -0.2721  0.8299 -0.8623
  135OSM   H10S14647   0.787   0.789   7.483  0.6497  0.1672 -1.0430
  135OSM   H10T14648   0.778   0.957   7.452 -2.0304 -0.4564 -0.1310
  135OSM   C11S14649   0.880   0.908   7.629 -1.1642  0.0022  0.0873
  135OSM   H11S14650   0.934   1.006   7.631  0.8893 -1.0481 -0.6022
  135OSM   H11T14651   0.948   0.830   7.668  0.5103  0.7961 -1.1129
  135OSM   C12S14652   0.758   0.919   7.715  0.3303 -0.0497  0.3815
  135OSM   H12S14653   0.686   0.841   7.681  0.8320 -0.5012  0.3321
  135OSM   H12T14654   0.696   1.010   7.707 -0.7577 -0.7668  0.3589
  135OSM   C13S14655   0.778   0.884   7.864  0.2305 -0.3568 -0.0034
  135OSM   H13S14656   0.864   0.814   7.878  1.4656  1.0912 -0.0273
  135OSM   H13T14657   0.685   0.847   7.912 -1.1708  1.4914 -1.1722
  135OSM   C14S14658   0.799   1.008   7.946  0.2588  0.3861 -0.8631
  135OSM   H14S14659   0.702   1.060   7.962 -0.9553 -0.8387 -3.7052
  135OSM   H14T14660   0.866   1.072   7.885  0.6186 -0.3811 -1.2786
  135OSM   C15S14661   0.855   0.985   8.087  0.0963  0.3938 -0.0323
  135OSM   H15S14662   0.964   0.965   8.089  0.5153  2.3745 -0.3158
  135OSM   H15T14663   0.796   0.912   8.146 -1.0337  2.5318  1.6447
  135OSM   C16S14664   0.842   1.112   8.172 -0.0169  0.5236  0.3482
  135OSM   H16S14665   0.742   1.112   8.219 -0.0317  2.5351  0.3938
  135OSM   H16T14666   0.865   1.197   8.104  1.6204  0.5742  0.9160
  135OSM   C17S14667   0.943   1.115   8.292 -0.1907  0.0741 -0.2054
  135OSM   H17S14668   0.939   1.209   8.351  2.0860  0.3508 -0.3999
  135OSM   H17T14669   1.045   1.109   8.248 -0.6817 -0.2692 -1.3535
  135OSM   C18S14670   0.934   0.994   8.391  0.1681  0.3262  0.0582
  135OSM   H18S14671   1.028   0.995   8.451  0.3834  0.2628 -0.2694
  135OSM   H18T14672   0.935   0.897   8.337 -4.6330 -1.1616  2.1498
  135OSM   H18U14673   0.842   1.008   8.451  0.8353  0.3062  1.1050
  135OSM    C1F14674   1.481   0.549   6.949  0.9979 -0.7311  0.0472
  135OSM     OF14675   1.593   0.536   6.985  0.2145 -0.4169  0.5632
  135OSM    C2F14676   1.394   0.425   6.954  0.8678 -0.6828 -0.3971
  135OSM    H2F14677   1.426   0.347   6.881 -0.8932 -2.3240  0.5003
  135OSM    H2G14678   1.292   0.456   6.925 -1.1631 -3.9772  2.4379
  135OSM    C3F14679   1.386   0.364   7.094  0.0065 -0.4272  0.7108
  135OSM    H3F14680   1.478   0.307   7.118  0.0928 -0.9068 -0.6664
  135OSM    H3G14681   1.306   0.287   7.087 -0.7095  0.4415 -1.4319
  135OSM    C4F14682   1.350   0.459   7.206  0.2262  0.1403 -0.4611
  135OSM    H4F14683   1.253   0.510   7.192 -0.2978 -0.4822  0.7483
  135OSM    H4G14684   1.434   0.532   7.212  1.6179 -1.5175  2.2588
  135OSM    C5F14685   1.338   0.380   7.335  0.1853 -0.1489 -0.2801
  135OSM    H5F14686   1.417   0.302   7.339  0.1543 -0.6218 -4.4396
  135OSM    H5G14687   1.241   0.324   7.330  0.1116  0.0048 -0.6164
  135OSM    C6F14688   1.353   0.463   7.465  0.6368 -0.1207 -1.0431
  135OSM    H6F14689   1.263   0.529   7.473  0.9013  0.1596 -0.3385
  135OSM    H6G14690   1.445   0.524   7.471  0.5510 -0.0941  0.1511
  135OSM    C7F14691   1.351   0.366   7.587  0.3544  0.7494 -0.4587
  135OSM    H7F14692   1.439   0.298   7.575  1.0987  1.6998 -0.5636
  135OSM    H7G14693   1.261   0.303   7.574 -0.0528  1.4386 -1.0692
  135OSM    C8F14694   1.363   0.437   7.716  0.3209  0.7024 -0.3912
  135OSM    H8F14695   1.301   0.530   7.720 -2.7903 -1.2065 -0.4953
  135OSM    H8G14696   1.468   0.474   7.719  0.9956 -1.1981  0.6401
  135OSM    C9F14697   1.338   0.339   7.828 -0.3076  0.1594  0.6396
  135OSM    H9F14698   1.287   0.249   7.792  1.0333 -0.3388 -0.0947
  135OSM   C10F14699   1.382   0.334   7.955 -0.2940  0.2856 -0.0670
  135OSM   H10F14700   1.348   0.251   8.018 -0.2136 -1.4547 -2.1880
  135OSM   C11F14701   1.470   0.440   8.016  0.1595  0.3183 -0.2765
  135OSM   H11F14702   1.429   0.485   8.109 -0.4553  3.6282 -1.9825
  135OSM   H11G14703   1.486   0.530   7.953 -1.5321 -1.1146 -2.9463
  135OSM   C12F14704   1.606   0.381   8.048 -0.9533  0.4301 -0.0842
  135OSM   H12F14705   1.676   0.468   8.047 -1.9232  1.2471 -2.1108
  135OSM   H12G14706   1.635   0.315   7.963  1.0373  1.4943 -0.2953
  135OSM   C13F14707   1.621   0.310   8.177 -0.5282 -0.1026  0.9486
  135OSM   H13F14708   1.543   0.232   8.191 -0.4589  0.0597  2.3755
  135OSM   H13G14709   1.612   0.391   8.253 -0.0126  0.2279  0.6616
  135OSM   C14F14710   1.761   0.253   8.192 -0.2444  0.2396 -0.0769
  135OSM   H14F14711   1.831   0.337   8.209  1.7276 -0.9909 -1.6600
  135OSM   H14G14712   1.794   0.215   8.093 -0.6077  2.0690 -0.9431
  135OSM   C15F14713   1.774   0.149   8.300 -0.2004 -0.8783 -0.6876
  135OSM   H15F14714   1.874   0.102   8.304  0.3675  0.3259  0.0296
  135OSM   H15G14715   1.717   0.059   8.270 -0.5714 -0.6002 -0.8298
  135OSM   C16F14716   1.744   0.208   8.437  0.4187 -0.2527  0.8602
  135OSM   H16F14717   1.637   0.234   8.449  0.7815  1.7041  0.3566
  135OSM   H16G14718   1.800   0.304   8.438  1.0899 -0.6256  0.3410
  135OSM   C17F14719   1.808   0.137   8.551  0.3337 -0.1931  0.6856
  135OSM   H17F14720   1.796   0.211   8.634  1.8400  0.9362 -0.0474
  135OSM   H17G14721   1.919   0.133   8.544  0.3594  1.8013 -1.0095
  135OSM   C18F14722   1.744   0.002   8.580 -0.1559  0.6524  0.2257
  135OSM   H18F14723   1.776  -0.067   8.498 -3.5676  1.6689 -2.2070
  135OSM   H18G14724   1.633   0.003   8.568 -0.5211 -0.3853  2.8443
  135OSM   H18H14725   1.776  -0.024   8.683  1.5879  2.0654  0.0783
  136OSM      N14726   5.456   0.893   5.947 -0.3825 -0.0012 -0.8029
  136OSM    C1514727   5.333   0.973   5.897  0.2966 -0.0306 -0.6639
  136OSM   H15A14728   5.292   1.038   5.973 -0.2588 -2.3586  1.1521
  136OSM   H15B14729   5.255   0.904   5.869  1.0819 -1.3986  0.4158
  136OSM   H15C14730   5.359   1.039   5.816  1.6980  1.0933  0.6427
  136OSM    C1414731   5.519   0.831   5.836 -0.5689 -0.0534  0.1017
  136OSM   H14A14732   5.521   0.911   5.764 -0.9288 -0.1519 -0.0198
  136OSM   H14B14733   5.453   0.755   5.797 -1.4039 -0.3386  1.9684
  136OSM   H14C14734   5.615   0.785   5.855  0.0157  0.7730 -0.7515
  136OSM    C1314735   5.555   0.995   6.001 -0.0719 -0.0964 -0.4777
  136OSM   H13A14736   5.589   1.073   5.935  1.5267 -0.2467  0.1218
  136OSM   H13B14737   5.645   0.942   6.031 -0.7015 -0.4292  0.9076
  136OSM   H13C14738   5.516   1.037   6.092 -0.2626 -1.6342  0.1931
  136OSM    C1214739   5.396   0.798   6.050 -0.1343 -0.0002 -0.0830
  136OSM   H12A14740   5.322   0.734   6.003  0.4944 -0.4973 -0.4158
  136OSM   H12B14741   5.347   0.857   6.126 -2.4066  0.6582 -1.9527
  136OSM    C1114742   5.494   0.705   6.122  0.0842  0.2070 -0.1963
  136OSM   H11A14743   5.448   0.684   6.221  3.0781 -1.3173  1.0149
  136OSM   H11B14744   5.589   0.761   6.132  0.5048 -0.5067 -0.0646
  136OSM      P14745   5.436   0.459   6.081  0.0073  0.1371  0.3371
  136OSM    O1314746   5.288   0.489   6.075  0.2053  0.3382  0.3998
  136OSM    O1414747   5.479   0.343   6.004  0.7662 -0.2862  0.3777
  136OSM    O1114748   5.477   0.439   6.231 -0.0385  0.3523  0.4752
  136OSM    O1214749   5.523   0.589   6.049  0.6294  0.4653  0.3628
  136OSM    C1S14750   5.622   0.445   6.258  0.2814 -0.2886 -0.2373
  136OSM    H1S14751   5.667   0.546   6.242 -2.0437  0.6082 -1.6954
  136OSM    H1T14752   5.679   0.373   6.195  0.6813  0.7017 -1.0394
  136OSM     NF14753   5.800   0.435   6.436  0.3530  0.3235 -0.2298
  136OSM    HNF14754   5.845   0.353   6.470 -0.4149 -0.4580 -1.0351
  136OSM    C2S14755   5.652   0.429   6.413  0.4816  0.9200 -0.3996
  136OSM    H2S14756   5.603   0.504   6.479 -1.0720 -0.0216 -0.4282
  136OSM    C3S14757   5.597   0.286   6.461  0.1913 -0.4449  0.0513
  136OSM    H3S14758   5.649   0.210   6.399  1.2318  0.3772 -0.1071
  136OSM     O314759   5.463   0.253   6.438  0.4535 -0.1756  0.1348
  136OSM    HO314760   5.425   0.320   6.380 -2.8790 -0.3006  1.9012
  136OSM    C4S14761   5.636   0.266   6.607 -0.0548 -0.2109 -0.1298
  136OSM    H4S14762   5.735   0.219   6.618  0.6309  1.3748  0.8469
  136OSM    C5S14763   5.558   0.296   6.716  0.7117  0.0034  0.5378
  136OSM    H5S14764   5.454   0.323   6.694  1.0151  0.2679 -0.7002
  136OSM    C6S14765   5.585   0.269   6.859  0.0290 -0.0355  0.1444
  136OSM    H6S14766   5.511   0.202   6.907  0.8585 -3.0668 -2.4504
  136OSM    H6T14767   5.573   0.365   6.914  0.1066 -0.1896  0.4330
  136OSM    C7S14768   5.731   0.211   6.878  0.5080  0.8443 -0.0889
  136OSM    H7S14769   5.804   0.288   6.844  1.8100 -0.2160  0.2175
  136OSM    H7T14770   5.760   0.125   6.814  1.1131 -0.4264  1.8046
  136OSM    C8S14771   5.760   0.163   7.018  0.3822  0.0187 -0.2304
  136OSM    H8S14772   5.862   0.124   7.037  0.2082 -0.0116  0.7035
  136OSM    H8T14773   5.690   0.077   7.029  1.8700 -1.3545 -1.0868
  136OSM    C9S14774   5.734   0.272   7.125 -0.1152  0.2239  0.8601
  136OSM    H9S14775   5.629   0.306   7.113  0.6646  2.1361 -1.4360
  136OSM    H9T14776   5.779   0.371   7.102 -3.3875  2.3802  2.8308
  136OSM   C10S14777   5.776   0.238   7.269  0.1802 -0.2886 -0.1809
  136OSM   H10S14778   5.740   0.320   7.335  0.2955 -0.7301  0.4359
  136OSM   H10T14779   5.885   0.224   7.285  0.1985 -3.4258 -2.1435
  136OSM   C11S14780   5.720   0.104   7.305  0.7371  0.1998  0.1659
  136OSM   H11S14781   5.755   0.015   7.249  0.4603 -0.1242  0.5015
  136OSM   H11T14782   5.610   0.102   7.286  1.0237 -1.6164 -1.6026
  136OSM   C12S14783   5.742   0.073   7.451  1.2895  0.3013  0.0667
  136OSM   H12S14784   5.843   0.110   7.477  0.1148  4.3365 -0.4228
  136OSM   H12T14785   5.745  -0.037   7.467 -3.8599  0.0917  1.4656
  136OSM   C13S14786   5.636   0.137   7.541 -0.3745 -0.3080 -0.4430
  136OSM   H13S14787   5.536   0.091   7.527 -0.4604 -0.5292  0.8577
  136OSM   H13T14788   5.619   0.241   7.505  0.5388 -0.0997 -0.3008
  136OSM   C14S14789   5.677   0.147   7.693 -0.8102  0.4929  0.4978
  136OSM   H14S14790   5.775   0.198   7.695 -0.1809 -0.6742  0.0452
  136OSM   H14T14791   5.701   0.043   7.722  1.8627  0.3077 -1.9472
  136OSM   C15S14792   5.586   0.203   7.809  0.7594  0.1588 -0.4765
  136OSM   H15S14793   5.634   0.198   7.909  1.5510  0.2655 -0.8422
  136OSM   H15T14794   5.493   0.143   7.804  0.4842  0.6675 -1.9526
  136OSM   C16S14795   5.564   0.352   7.793  0.2679  0.5343 -0.5780
  136OSM   H16S14796   5.526   0.378   7.692 -0.2819  1.7551 -0.0828
  136OSM   H16T14797   5.669   0.389   7.795  1.2517 -2.0122  1.6958
  136OSM   C17S14798   5.476   0.426   7.905  0.4982  0.4145 -0.1268
  136OSM   H17S14799   5.377   0.377   7.897  1.5859 -2.3654  1.8811
  136OSM   H17T14800   5.468   0.535   7.882 -0.5852  0.7115  1.4553
  136OSM   C18S14801   5.530   0.405   8.048 -0.2009 -0.7251  0.1773
  136OSM   H18S14802   5.628   0.456   8.045  0.9671 -2.8577  0.1728
  136OSM   H18T14803   5.548   0.299   8.073  1.2937 -1.0911 -2.1936
  136OSM   H18U14804   5.457   0.452   8.118  1.1664 -1.4611  2.1855
  136OSM    C1F14805   5.861   0.553   6.443  0.0244 -0.5295  0.3305
  136OSM     OF14806   5.806   0.658   6.418 -0.7966  0.0511  0.0828
  136OSM    C2F14807   6.006   0.541   6.481 -0.3366  0.1822  0.7097
  136OSM    H2F14808   6.060   0.597   6.402 -1.9014  1.2971  0.3898
  136OSM    H2G14809   6.040   0.436   6.470  0.4460  0.3242  1.5975
  136OSM    C3F14810   6.055   0.613   6.615  0.3655  0.0767  0.1230
  136OSM    H3F14811   6.007   0.712   6.630  0.3556  0.2222 -0.7608
  136OSM    H3G14812   6.163   0.640   6.608  0.6724 -0.9633  0.7197
  136OSM    C4F14813   6.033   0.520   6.737  0.3428  0.9485 -0.2775
  136OSM    H4F14814   6.075   0.417   6.733  0.6058  1.0136  0.5834
  136OSM    H4G14815   5.923   0.502   6.740  0.6346 -1.3791 -1.4607
  136OSM    C5F14816   6.081   0.582   6.873  0.3115 -0.1012  0.3553
  136OSM    H5F14817   6.023   0.676   6.883  1.0997  0.4582 -0.2156
  136OSM    H5G14818   6.188   0.607   6.860 -0.1789  1.3457 -1.3562
  136OSM    C6F14819   6.041   0.480   6.976  0.3725 -0.1333  0.4824
  136OSM    H6F14820   6.083   0.379   6.957  2.1123  0.2480  1.9991
  136OSM    H6G14821   5.935   0.462   6.947  0.4733 -0.1273  0.1019
  136OSM    C7F14822   6.046   0.540   7.118 -0.1628  0.2465  0.1834
  136OSM    H7F14823   5.964   0.494   7.177 -0.7329  0.4770 -0.4051
  136OSM    H7G14824   6.017   0.648   7.110  0.7633  0.3721 -3.3597
  136OSM    C8F14825   6.183   0.529   7.176 -0.7113  0.3914  0.5398
  136OSM    H8F14826   6.251   0.570   7.098 -2.2807  0.1124 -1.0559
  136OSM    H8G14827   6.215   0.423   7.188  0.5299  0.6364 -0.4053
  136OSM    C9F14828   6.189   0.609   7.302 -0.7023  0.7144 -0.7094
  136OSM    H9F14829   6.223   0.713   7.293 -0.2705  0.8830  1.9253
  136OSM   C10F14830   6.167   0.561   7.426  0.1842  0.1894  0.6316
  136OSM   H10F14831   6.169   0.621   7.518  0.9643  0.8113  0.2288
  136OSM   C11F14832   6.116   0.422   7.444 -0.3575 -0.5340 -0.5377
  136OSM   H11F14833   6.179   0.385   7.528 -0.9789  0.6411  0.4914
  136OSM   H11G14834   6.134   0.348   7.363  1.6403 -0.9712  0.2459
  136OSM   C12F14835   5.972   0.399   7.501  0.5980 -0.0330 -0.2846
  136OSM   H12F14836   5.944   0.292   7.492 -0.3169  0.2784 -1.2545
  136OSM   H12G14837   5.915   0.460   7.428 -1.3646 -0.4479  0.8430
  136OSM   C13F14838   5.956   0.453   7.642 -0.5633  0.5882 -0.4778
  136OSM   H13F14839   5.846   0.455   7.656 -0.6840 -0.0417 -1.2389
  136OSM   H13G14840   6.003   0.553   7.643  1.1438 -0.1913  0.0915
  136OSM   C14F14841   6.023   0.370   7.751 -0.5496  0.5112 -0.7211
  136OSM   H14F14842   6.131   0.396   7.759 -0.0817 -1.6707  1.1514
  136OSM   H14G14843   6.018   0.264   7.720  2.1566  0.1230 -0.0984
  136OSM   C15F14844   5.963   0.373   7.901  0.2169 -0.0815  0.7150
  136OSM   H15F14845   5.862   0.327   7.905 -0.1616  0.3516 -2.1260
  136OSM   H15G14846   5.951   0.478   7.936 -0.9566  0.5297 -1.3618
  136OSM   C16F14847   6.047   0.309   8.010  0.4148 -0.4697  0.4639
  136OSM   H16F14848   6.141   0.368   8.013 -0.5951  1.4139 -1.5026
  136OSM   H16G14849   6.072   0.203   7.985 -0.3427  0.1527 -3.8619
  136OSM   C17F14850   5.972   0.315   8.146 -1.0022  0.5260  1.0537
  136OSM   H17F14851   5.877   0.259   8.133  0.9656 -2.8382 -0.0435
  136OSM   H17G14852   5.955   0.421   8.177 -1.4957  0.4748  0.9630
  136OSM   C18F14853   6.058   0.259   8.255 -0.3950  0.2064 -0.6775
  136OSM   H18F14854   6.012   0.260   8.356 -0.9434 -2.7778 -0.8109
  136OSM   H18G14855   6.156   0.311   8.262 -0.4037  0.2050 -0.5523
  136OSM   H18H14856   6.087   0.155   8.229 -1.6109 -0.0378 -1.1210
  137OSM      N14857   4.120   0.023   6.307 -0.5130  0.3151  0.4749
  137OSM    C1514858   4.198  -0.060   6.205 -0.2155 -0.3338 -0.1428
  137OSM   H15A14859   4.232   0.003   6.124 -1.5983 -1.6045 -1.7889
  137OSM   H15B14860   4.123  -0.129   6.169 -0.3484 -1.0635  1.4415
  137OSM   H15C14861   4.288  -0.110   6.240 -0.1341  1.0277  1.7983
  137OSM    C1414862   3.999   0.076   6.250 -0.1948  0.1825 -0.1866
  137OSM   H14A14863   3.940  -0.005   6.210  1.5895 -1.1863 -0.1607
  137OSM   H14B14864   4.030   0.149   6.177  0.9860 -0.3714 -0.2664
  137OSM   H14C14865   3.943   0.143   6.313  0.9790  1.2187 -0.1894
  137OSM    C1314866   4.081  -0.062   6.428 -0.4337  0.3284  0.3580
  137OSM   H13A14867   4.162  -0.105   6.484 -0.6076  0.3145  0.5992
  137OSM   H13B14868   4.032  -0.149   6.387  3.4577 -1.4373 -1.0053
  137OSM   H13C14869   4.013  -0.009   6.492  0.7162 -0.1497  2.0273
  137OSM    C1214870   4.207   0.139   6.352 -0.2550 -0.0199 -0.1309
  137OSM   H12A14871   4.217   0.201   6.265  1.3420  0.8624  0.6374
  137OSM   H12B14872   4.302   0.103   6.387 -0.5375 -0.1930  0.4750
  137OSM    C1114873   4.149   0.232   6.457 -0.5344 -0.1473 -0.9797
  137OSM   H11A14874   4.133   0.183   6.556 -1.3202  0.1881 -0.9345
  137OSM   H11B14875   4.048   0.270   6.431 -1.1922 -0.3292  1.1450
  137OSM      P14876   4.214   0.485   6.428 -0.0964  0.0665  0.5424
  137OSM    O1314877   4.320   0.577   6.478 -0.1115  0.4390  0.2103
  137OSM    O1414878   4.185   0.473   6.283  0.2013 -0.3497  0.2620
  137OSM    O1114879   4.084   0.519   6.503 -0.2014 -0.4754  0.3656
  137OSM    O1214880   4.237   0.340   6.488 -0.6071 -0.3005  0.0419
  137OSM    C1S14881   4.075   0.516   6.647 -0.3334 -0.2290 -0.0625
  137OSM    H1S14882   4.170   0.549   6.694  1.0928 -1.6209 -1.8497
  137OSM    H1T14883   4.065   0.411   6.682 -1.0711 -0.0930  0.1616
  137OSM     NF14884   3.978   0.654   6.821  0.0830 -0.0962  0.1003
  137OSM    HNF14885   3.928   0.613   6.897 -0.5398 -2.2219 -1.3523
  137OSM    C2S14886   3.950   0.594   6.694  0.7943 -0.5322  0.6171
  137OSM    H2S14887   3.961   0.676   6.620  3.2823 -0.5427  0.8934
  137OSM    C3S14888   3.821   0.509   6.678 -0.5044 -0.2962  0.1121
  137OSM    H3S14889   3.828   0.418   6.742  2.4231 -0.5361 -0.4073
  137OSM     O314890   3.810   0.463   6.546  0.1622  0.0770 -0.6608
  137OSM    HO314891   3.893   0.478   6.500 -0.0320 -0.8673 -1.3469
  137OSM    C4S14892   3.704   0.589   6.727  0.2070  0.3370 -0.4018
  137OSM    H4S14893   3.672   0.674   6.665 -1.5940 -0.4147 -0.5610
  137OSM    C5S14894   3.625   0.556   6.830  0.3469  0.1604 -0.8895
  137OSM    H5S14895   3.630   0.458   6.878 -1.6468 -0.1948 -1.3210
  137OSM    C6S14896   3.504   0.640   6.867 -0.2874 -0.2132 -0.1489
  137OSM    H6S14897   3.413   0.577   6.865  0.1304 -0.8230 -2.0826
  137OSM    H6T14898   3.487   0.731   6.806  0.3818  0.9195  1.2865
  137OSM    C7S14899   3.541   0.707   7.002  0.4331  0.4287  0.4491
  137OSM    H7S14900   3.638   0.757   6.985 -0.4668  1.5233 -1.8956
  137OSM    H7T14901   3.548   0.622   7.073  0.4246  1.4234  1.6801
  137OSM    C8S14902   3.432   0.802   7.049 -0.1878  0.2339  0.3504
  137OSM    H8S14903   3.332   0.758   7.028 -0.5097  1.1181 -0.0647
  137OSM    H8T14904   3.440   0.898   6.992 -0.2571  1.1991  1.9208
  137OSM    C9S14905   3.430   0.837   7.207  0.4356  0.0731  0.6753
  137OSM    H9S14906   3.382   0.938   7.211 -1.8568 -0.9574  1.1208
  137OSM    H9T14907   3.529   0.852   7.254  0.8465 -2.5181  0.7483
  137OSM   C10S14908   3.353   0.728   7.288  0.2146 -0.6013 -0.4070
  137OSM   H10S14909   3.416   0.636   7.279 -0.4729 -1.2669  1.2643
  137OSM   H10T14910   3.258   0.705   7.234 -0.2248  1.9092 -0.7950
  137OSM   C11S14911   3.340   0.754   7.441  0.7205  0.3817 -0.3111
  137OSM   H11S14912   3.439   0.760   7.490  0.9136 -1.8561 -0.3450
  137OSM   H11T14913   3.299   0.662   7.487  1.0400  1.8346  3.1662
  137OSM   C12S14914   3.247   0.866   7.481  0.4550 -0.1482  0.2649
  137OSM   H12S14915   3.155   0.864   7.420 -0.9426 -0.4388  2.2781
  137OSM   H12T14916   3.292   0.967   7.470 -1.8037  1.1922  2.2020
  137OSM   C13S14917   3.205   0.846   7.623  0.3881  0.0515 -0.2311
  137OSM   H13S14918   3.209   0.737   7.646  1.0147 -0.0088 -0.6142
  137OSM   H13T14919   3.098   0.872   7.638  0.9120  1.7507  0.9250
  137OSM   C14S14920   3.287   0.919   7.717 -0.5039 -0.1538 -0.6428
  137OSM   H14S14921   3.236   1.016   7.735  0.5649  0.5203 -1.1642
  137OSM   H14T14922   3.387   0.927   7.669  0.2664 -2.1211  0.5023
  137OSM   C15S14923   3.318   0.845   7.849  0.3788  0.1997  0.2403
  137OSM   H15S14924   3.396   0.768   7.833 -0.4115 -1.1926  2.6547
  137OSM   H15T14925   3.231   0.787   7.887  2.0688 -1.6924  1.3903
  137OSM   C16S14926   3.364   0.939   7.962  0.4031 -0.3078  0.3238
  137OSM   H16S14927   3.280   1.005   7.989 -0.1028  0.2551 -2.3420
  137OSM   H16T14928   3.441   0.999   7.909 -0.2015 -0.2046 -0.4608
  137OSM   C17S14929   3.409   0.869   8.091 -0.4227  0.3885  0.1365
  137OSM   H17S14930   3.464   0.945   8.149  0.6728 -1.3218  1.4380
  137OSM   H17T14931   3.473   0.788   8.050 -0.5063  0.7598 -0.7374
  137OSM   C18S14932   3.291   0.804   8.168  0.0248 -0.2075 -0.2115
  137OSM   H18S14933   3.235   0.890   8.209  0.1267 -0.3793  0.2977
  137OSM   H18T14934   3.332   0.742   8.250  0.6738  1.8441  1.0815
  137OSM   H18U14935   3.235   0.748   8.090 -0.3899  1.3594 -1.0744
  137OSM    C1F14936   4.075   0.746   6.855  0.4773  0.3698 -0.2024
  137OSM     OF14937   4.126   0.805   6.768 -0.0014 -0.3747 -0.0715
  137OSM    C2F14938   4.116   0.762   6.995 -0.2835 -0.4283  0.2990
  137OSM    H2F14939   4.183   0.675   7.009  0.4872  0.0577 -0.2702
  137OSM    H2G14940   4.025   0.766   7.059 -1.8309 -0.4990 -1.7925
  137OSM    C3F14941   4.212   0.883   7.013 -0.1781  0.4407 -0.0707
  137OSM    H3F14942   4.157   0.969   6.969  0.1542 -0.1550 -1.7051
  137OSM    H3G14943   4.309   0.860   6.965 -1.6618 -1.8435 -2.2172
  137OSM    C4F14944   4.235   0.915   7.161  0.0540 -0.3408  0.5222
  137OSM    H4F14945   4.233   0.815   7.208 -3.3742 -0.3258  0.6981
  137OSM    H4G14946   4.143   0.966   7.198 -1.3451 -3.0844  1.0834
  137OSM    C5F14947   4.352   0.998   7.175  0.0716 -0.2431  0.0992
  137OSM    H5F14948   4.344   1.082   7.103 -1.4929  0.1385  0.6847
  137OSM    H5G14949   4.433   0.925   7.151 -0.7234 -0.7734 -1.0740
  137OSM    C6F14950   4.358   1.058   7.314 -0.5825 -0.1445 -0.6073
  137OSM    H6F14951   4.259   1.102   7.341 -1.1834 -0.8854 -1.5171
  137OSM    H6G14952   4.427   1.145   7.310 -0.9671  0.1296 -3.1491
  137OSM    C7F14953   4.399   0.954   7.420  0.0216 -0.1215 -0.4719
  137OSM    H7F14954   4.499   0.925   7.381 -0.1487  0.0648 -1.0622
  137OSM    H7G14955   4.338   0.862   7.407 -1.7719  1.0198 -0.4518
  137OSM    C8F14956   4.418   1.011   7.561 -0.7205 -0.5412  0.0205
  137OSM    H8F14957   4.450   1.118   7.556 -2.6804  0.0353 -1.2126
  137OSM    H8G14958   4.507   0.962   7.606 -1.0309  0.0812  1.3581
  137OSM    C9F14959   4.296   1.013   7.655  0.1607  0.8957 -0.6930
  137OSM    H9F14960   4.207   1.032   7.593  1.3374 -0.9960 -3.1582
  137OSM   C10F14961   4.285   0.970   7.781  0.3277  0.0722 -0.1181
  137OSM   H10F14962   4.198   1.001   7.840  0.5543 -1.9297  1.3825
  137OSM   C11F14963   4.397   0.920   7.867  0.0915 -0.0406 -0.1982
  137OSM   H11F14964   4.496   0.914   7.817  0.1832  0.0517 -0.0310
  137OSM   H11G14965   4.362   0.817   7.889 -2.6994  1.0243  0.7297
  137OSM   C12F14966   4.419   0.986   8.003  0.7993  0.0865 -0.6794
  137OSM   H12F14967   4.428   1.093   7.978  1.2331  0.0728 -0.5871
  137OSM   H12G14968   4.514   0.949   8.047 -0.2519 -2.2719 -0.2339
  137OSM   C13F14969   4.311   0.968   8.106  0.2047  0.0076 -0.7801
  137OSM   H13F14970   4.324   0.869   8.153 -1.4170  0.0173 -0.2570
  137OSM   H13G14971   4.213   0.957   8.055 -0.0878 -0.1016 -0.2046
  137OSM   C14F14972   4.303   1.081   8.213  0.6788 -0.0796  0.1938
  137OSM   H14F14973   4.230   1.050   8.290  0.3306 -0.1264 -0.1552
  137OSM   H14G14974   4.272   1.176   8.165 -0.3003 -0.7927 -0.6135
  137OSM   C15F14975   4.436   1.091   8.272 -0.0833 -0.0417  0.4652
  137OSM   H15F14976   4.510   1.138   8.205  1.4131 -0.9261  1.4338
  137OSM   H15G14977   4.476   0.989   8.291  0.0480 -0.0524  0.1293
  137OSM   C16F14978   4.428   1.158   8.414 -0.4854  0.0422 -0.2427
  137OSM   H16F14979   4.526   1.143   8.464 -0.6389  0.5326  0.2223
  137OSM   H16G14980   4.357   1.088   8.462 -2.7888  1.4462 -1.3893
  137OSM   C17F14981   4.385   1.303   8.418 -0.0894  0.1199  0.3504
  137OSM   H17F14982   4.287   1.301   8.366  0.9449  1.9423 -1.8072
  137OSM   H17G14983   4.462   1.370   8.375  1.0571 -0.4406  1.4553
  137OSM   C18F14984   4.378   1.339   8.563  0.6087  0.4928 -1.1815
  137OSM   H18F14985   4.350   1.444   8.585  2.6965  0.7853  0.4846
  137OSM   H18G14986   4.477   1.327   8.614  0.4634 -3.3025 -1.4671
  137OSM   H18H14987   4.318   1.265   8.621  1.9792  0.0734 -0.2210
  138OSM      N14988   4.603   2.486   6.219 -0.2634  0.4370 -0.3875
  138OSM    C1514989   4.498   2.549   6.316  0.2607  0.2573  1.0335
  138OSM   H15A14990   4.497   2.656   6.323  1.5746  0.3095  0.7553
  138OSM   H15B14991   4.500   2.501   6.413  0.9257 -0.6539  0.5877
  138OSM   H15C14992   4.407   2.527   6.262  1.4648 -1.3795 -0.4568
  138OSM    C1414993   4.574   2.340   6.221  0.5839 -0.4337  0.6699
  138OSM   H14A14994   4.648   2.281   6.168 -0.5593 -1.2377 -0.0761
  138OSM   H14B14995   4.473   2.313   6.193  0.8784 -0.0496 -0.8531
  138OSM   H14C14996   4.579   2.311   6.325 -0.7841 -0.8781  0.6271
  138OSM    C1314997   4.583   2.544   6.086  0.1129 -0.0834  1.1474
  138OSM   H13A14998   4.480   2.553   6.054  0.3213 -1.1676  0.1106
  138OSM   H13B14999   4.641   2.491   6.012 -0.2628  0.7166  0.2614
  138OSM   H13C15000   4.630   2.641   6.097 -0.6562  0.4484 -0.0760
  138OSM    C1215001   4.743   2.500   6.274 -0.2757  0.3024 -0.8897
  138OSM   H12A15002   4.811   2.458   6.202  0.1433 -2.8319  1.1357
  138OSM   H12B15003   4.756   2.441   6.363  1.8788  0.9566 -0.7085
  138OSM    C1115004   4.787   2.646   6.300  0.5826  0.5533 -0.6606
  138OSM   H11A15005   4.884   2.650   6.354 -0.4636 -0.7939  1.4580
  138OSM   H11B15006   4.724   2.697   6.376 -1.3105 -1.4251 -0.7968
  138OSM      P15007   4.830   2.874   6.172 -0.4684 -0.1235  0.1252
  138OSM    O1315008   4.938   2.902   6.063  0.2929  0.1273 -0.0166
  138OSM    O1415009   4.690   2.922   6.156 -0.3651 -0.6531  0.2693
  138OSM    O1115010   4.887   2.926   6.308 -0.5652  0.0251  0.2152
  138OSM    O1215011   4.806   2.714   6.175 -0.2829  0.1613  0.7902
  138OSM    C1S15012   4.807   2.980   6.413 -0.4381 -0.0776  0.0122
  138OSM    H1S15013   4.744   2.902   6.459  0.9221 -1.0157  0.3450
  138OSM    H1T15014   4.761   3.074   6.377 -0.9857 -0.6442 -0.8016
  138OSM     NF15015   4.820   3.048   6.658  0.5683 -0.2118  0.1596
  138OSM    HNF15016   4.816   3.143   6.687 -2.1516 -0.2557  0.1097
  138OSM    C2S15017   4.903   3.006   6.541  0.3926 -0.1985 -0.0121
  138OSM    H2S15018   4.954   2.908   6.551 -0.5855 -0.7213  0.0524
  138OSM    C3S15019   5.004   3.118   6.519 -0.0696  0.1051 -0.6155
  138OSM    H3S15020   4.960   3.218   6.498  1.8945  0.9387 -0.9885
  138OSM     O315021   5.081   3.100   6.401 -0.1066 -0.1471 -0.3734
  138OSM    HO315022   5.036   3.030   6.354  1.7506 -1.1246 -0.7979
  138OSM    C4S15023   5.093   3.138   6.643  0.7206  0.4635  1.1307
  138OSM    H4S15024   5.030   3.198   6.711 -1.1650  2.3417 -1.9934
  138OSM    C5S15025   5.216   3.092   6.678 -0.5932 -0.6768  0.4933
  138OSM    H5S15026   5.280   3.039   6.606 -0.3021 -0.2203  0.4170
  138OSM    C6S15027   5.281   3.107   6.807 -1.1079 -0.2742  0.4087
  138OSM    H6S15028   5.373   3.167   6.787 -0.6221 -1.5222 -1.2797
  138OSM    H6T15029   5.320   3.007   6.836  3.1317  0.7850 -0.8594
  138OSM    C7S15030   5.202   3.163   6.930 -0.2772  0.2166  0.3422
  138OSM    H7S15031   5.105   3.112   6.943 -0.2371 -0.3825 -1.4904
  138OSM    H7T15032   5.189   3.274   6.930  1.6294  0.4801  0.2116
  138OSM    C8S15033   5.293   3.132   7.048 -0.0915  0.3311  0.6955
  138OSM    H8S15034   5.377   3.205   7.051 -1.9242  2.5891  0.2059
  138OSM    H8T15035   5.326   3.027   7.040 -1.9127 -0.4152  2.1572
  138OSM    C9S15036   5.223   3.137   7.180  0.1058 -1.0592 -0.4766
  138OSM    H9S15037   5.168   3.041   7.185  1.6290 -1.9470  0.3175
  138OSM    H9T15038   5.156   3.225   7.179  1.5380  0.1429  1.1093
  138OSM   C10S15039   5.308   3.140   7.309 -0.3674  0.0016 -0.0878
  138OSM   H10S15040   5.352   3.241   7.313 -1.4199  0.5657 -1.8471
  138OSM   H10T15041   5.393   3.069   7.303  1.2743  1.6533  2.1316
  138OSM   C11S15042   5.218   3.112   7.430  0.7052 -0.3886  0.4204
  138OSM   H11S15043   5.164   3.015   7.422 -2.5946  1.2632  1.2074
  138OSM   H11T15044   5.133   3.183   7.431 -1.1706 -2.4913  0.2649
  138OSM   C12S15045   5.299   3.117   7.555  0.2213 -0.0205 -0.1747
  138OSM   H12S15046   5.380   3.042   7.546  0.9238  0.7593 -0.5087
  138OSM   H12T15047   5.233   3.096   7.642 -0.3404 -1.0496 -0.8236
  138OSM   C13S15048   5.361   3.253   7.592  0.0415 -0.3862  0.9068
  138OSM   H13S15049   5.292   3.334   7.558  1.1366  0.0695 -0.3411
  138OSM   H13T15050   5.456   3.278   7.540 -1.1804  3.4967  0.2082
  138OSM   C14S15051   5.387   3.276   7.740  0.2579  0.9013  0.0426
  138OSM   H14S15052   5.283   3.274   7.781  0.0177  0.6046 -0.5717
  138OSM   H14T15053   5.426   3.378   7.761 -0.9049  1.1284  1.2906
  138OSM   C15S15054   5.480   3.163   7.793  0.8713 -0.7377 -0.3706
  138OSM   H15S15055   5.580   3.179   7.746  1.2842 -0.1007  0.6740
  138OSM   H15T15056   5.438   3.064   7.768 -0.1906 -0.6253  0.8819
  138OSM   C16S15057   5.507   3.162   7.948  0.4374 -0.5075 -0.0841
  138OSM   H16S15058   5.466   3.071   7.996 -0.4609 -1.0770 -1.8813
  138OSM   H16T15059   5.450   3.243   7.999 -1.3698 -1.3101 -0.7654
  138OSM   C17S15060   5.656   3.174   7.974  0.3128 -0.2999  0.5208
  138OSM   H17S15061   5.681   3.273   7.929  0.1303 -1.1173 -1.4677
  138OSM   H17T15062   5.705   3.092   7.918 -1.6650 -0.6612 -0.7584
  138OSM   C18S15063   5.691   3.186   8.119  0.6884 -0.1012  0.6606
  138OSM   H18S15064   5.627   3.265   8.162 -2.4325 -2.5577  0.8653
  138OSM   H18T15065   5.797   3.217   8.133  1.0384 -1.1885  0.5505
  138OSM   H18U15066   5.662   3.087   8.161  0.2376  0.0186  0.6265
  138OSM    C1F15067   4.752   2.951   6.721 -0.6258 -0.0094 -0.1401
  138OSM     OF15068   4.759   2.837   6.676 -0.1192 -0.1544 -0.5393
  138OSM    C2F15069   4.689   2.977   6.848 -1.2033 -0.2341  0.8655
  138OSM    H2F15070   4.695   3.086   6.870  2.1039 -0.1896  0.3178
  138OSM    H2G15071   4.744   2.924   6.929 -1.2991 -1.8853 -0.0947
  138OSM    C3F15072   4.544   2.931   6.840  0.3510 -0.2388 -0.6963
  138OSM    H3F15073   4.542   2.823   6.816  0.9998  0.1738 -2.8740
  138OSM    H3G15074   4.493   2.996   6.765  0.5299  1.9477  0.9843
  138OSM    C4F15075   4.464   2.968   6.973 -0.0215 -0.1831 -0.5392
  138OSM    H4F15076   4.355   2.949   6.965 -0.1403  0.8071 -1.6845
  138OSM    H4G15077   4.470   3.079   6.963 -0.1965 -0.3966 -4.4094
  138OSM    C5F15078   4.527   2.927   7.107 -0.0848  0.4556  0.6172
  138OSM    H5F15079   4.470   2.980   7.187 -1.5966  2.5302 -1.6997
  138OSM    H5G15080   4.632   2.960   7.124  0.6799 -0.9333 -1.1019
  138OSM    C6F15081   4.523   2.774   7.138 -0.3153  0.4277  0.2596
  138OSM    H6F15082   4.511   2.727   7.038  0.8477 -1.2003  0.8373
  138OSM    H6G15083   4.428   2.738   7.183 -0.9291 -0.9944 -2.0180
  138OSM    C7F15084   4.652   2.724   7.214 -0.4957  0.6582  0.0041
  138OSM    H7F15085   4.743   2.766   7.165  0.5434  1.7929  2.7515
  138OSM    H7G15086   4.663   2.614   7.207 -0.3030  0.6237  0.7838
  138OSM    C8F15087   4.654   2.787   7.355 -0.7399  0.2426  0.3372
  138OSM    H8F15088   4.640   2.896   7.364  3.3454  0.8818  0.9961
  138OSM    H8G15089   4.760   2.773   7.386 -0.7230  0.8426  0.5492
  138OSM    C9F15090   4.561   2.729   7.456  0.4915  0.3303 -0.5458
  138OSM    H9F15091   4.568   2.621   7.477 -1.7809  0.0694 -0.7783
  138OSM   C10F15092   4.457   2.793   7.516  0.2428 -0.2198 -0.1357
  138OSM   H10F15093   4.402   2.730   7.588  0.9960 -0.8513 -0.1114
  138OSM   C11F15094   4.410   2.930   7.493  0.7333  0.8046  0.1542
  138OSM   H11F15095   4.300   2.921   7.474  0.7574 -0.6177  0.6107
  138OSM   H11G15096   4.451   2.977   7.401  0.6232  0.3896 -0.1071
  138OSM   C12F15097   4.428   3.023   7.612  0.1947  0.4436 -0.4598
  138OSM   H12F15098   4.362   3.112   7.605 -0.6989 -0.0143  1.3926
  138OSM   H12G15099   4.532   3.064   7.605  0.2267  0.3601 -0.4747
  138OSM   C13F15100   4.401   2.962   7.754  0.2922  0.9456 -0.4201
  138OSM   H13F15101   4.475   2.886   7.786 -0.6628 -0.8660 -2.2745
  138OSM   H13G15102   4.300   2.916   7.748 -0.1492  1.6752  1.0768
  138OSM   C14F15103   4.386   3.074   7.855 -0.1756 -0.2773  0.1266
  138OSM   H14F15104   4.304   3.143   7.828 -1.8065 -2.9904 -2.3863
  138OSM   H14G15105   4.474   3.142   7.855 -0.9181  0.6921 -0.2826
  138OSM   C15F15106   4.364   3.017   7.999 -0.5090 -0.2706  0.2103
  138OSM   H15F15107   4.440   2.937   8.011 -0.9527 -1.4251 -3.3352
  138OSM   H15G15108   4.271   2.955   7.996 -2.7447  2.7888  1.0338
  138OSM   C16F15109   4.341   3.113   8.108 -0.5131 -0.4809 -0.7489
  138OSM   H16F15110   4.263   3.184   8.074 -0.6831  1.3160  2.9127
  138OSM   H16G15111   4.433   3.171   8.128 -0.1046 -0.8102 -1.6352
  138OSM   C17F15112   4.283   3.052   8.235 -0.2046  0.2470 -0.5261
  138OSM   H17F15113   4.229   2.959   8.206 -1.2465  0.3755  0.9053
  138OSM   H17G15114   4.207   3.114   8.287  1.0309 -0.0051  1.6578
  138OSM   C18F15115   4.396   3.004   8.331 -0.1203  0.3271  1.4235
  138OSM   H18F15116   4.361   2.932   8.408 -0.0725  0.8292  1.9191
  138OSM   H18G15117   4.439   3.093   8.382 -0.5595  0.6024  1.3181
  138OSM   H18H15118   4.467   2.942   8.272 -1.5875  1.0695 -1.3078
  139OSM      N15119   3.798   2.703   6.179 -0.1236  0.2546  0.6319
  139OSM    C1515120   3.808   2.647   6.035  0.2206 -0.7279 -0.1822
  139OSM   H15A15121   3.816   2.725   5.960  1.6527 -0.6891 -0.0203
  139OSM   H15B15122   3.721   2.587   6.011  1.0272 -0.9298 -3.0456
  139OSM   H15C15123   3.888   2.575   6.028  1.2993  0.0614  2.7563
  139OSM    C1415124   3.694   2.806   6.175 -0.1705 -0.1455  0.1340
  139OSM   H14A15125   3.601   2.785   6.125  0.1478  0.3030 -0.6692
  139OSM   H14B15126   3.721   2.891   6.114 -3.3767  2.4263  1.9538
  139OSM   H14C15127   3.686   2.846   6.275 -1.8759 -1.4909  0.5937
  139OSM    C1315128   3.759   2.598   6.275  0.2076 -0.1116 -0.1968
  139OSM   H13A15129   3.658   2.569   6.250  0.0314  1.6449 -1.7329
  139OSM   H13B15130   3.754   2.633   6.377 -0.6014 -0.7079 -0.0187
  139OSM   H13C15131   3.824   2.512   6.282  0.1415 -0.1451  0.0076
  139OSM    C1215132   3.929   2.759   6.227  0.1207  0.4869 -0.0536
  139OSM   H12A15133   3.991   2.673   6.244 -2.7847 -1.4858  1.4868
  139OSM   H12B15134   3.917   2.795   6.328 -1.1782 -0.9157  0.3356
  139OSM    C1115135   3.992   2.873   6.148 -0.2775 -0.8834  0.0293
  139OSM   H11A15136   3.919   2.957   6.142 -0.7633 -1.1703  1.6085
  139OSM   H11B15137   4.008   2.835   6.045  0.0626 -0.5340 -0.0512
  139OSM      P15138   4.124   3.024   6.320  0.0393 -0.3195 -0.2985
  139OSM    O1315139   4.220   2.984   6.425  0.4818  0.6030 -0.2952
  139OSM    O1415140   4.147   3.155   6.249  0.0443 -0.3451 -0.0006
  139OSM    O1115141   3.980   3.024   6.378  0.3235 -0.7950 -0.0250
  139OSM    O1215142   4.111   2.905   6.215 -0.1368 -0.4859  0.1180
  139OSM    C1S15143   3.962   2.966   6.513 -0.1030 -0.3877 -0.0268
  139OSM    H1S15144   4.048   2.970   6.583 -1.4463 -0.5718  1.7037
  139OSM    H1T15145   3.939   2.857   6.504  1.9701 -0.8109 -0.6771
  139OSM     NF15146   3.850   2.982   6.733 -0.2571  0.7382  0.8934
  139OSM    HNF15147   3.779   2.921   6.768 -1.2258  0.6969 -1.0380
  139OSM    C2S15148   3.840   3.027   6.591  0.0138  1.2524 -0.6810
  139OSM    H2S15149   3.871   3.134   6.594  3.2232  0.4318 -0.0845
  139OSM    C3S15150   3.705   3.000   6.530 -0.0554  1.3010  0.5550
  139OSM    H3S15151   3.692   2.892   6.505  0.3083  1.0953  1.2100
  139OSM     O315152   3.708   3.058   6.399 -0.5840  0.0392 -0.4181
  139OSM    HO315153   3.800   3.073   6.378 -0.9189  0.8666 -1.3858
  139OSM    C4S15154   3.592   3.053   6.615 -1.0957  0.4484  0.4242
  139OSM    H4S15155   3.563   3.158   6.601 -2.2891  0.0850  0.0464
  139OSM    C5S15156   3.516   2.976   6.697 -0.0552 -0.2108 -0.6972
  139OSM    H5S15157   3.534   2.868   6.704  1.3485  0.0893  0.8595
  139OSM    C6S15158   3.399   3.035   6.770 -0.3405  0.1801  0.4900
  139OSM    H6S15159   3.310   2.968   6.772 -0.3021  0.1273  0.4296
  139OSM    H6T15160   3.376   3.123   6.705  0.7792  1.2236  1.4640
  139OSM    C7S15161   3.429   3.100   6.912 -0.9717  0.5541  0.2984
  139OSM    H7S15162   3.353   3.177   6.937 -0.8356  1.1312 -0.9956
  139OSM    H7T15163   3.528   3.147   6.898  0.2348 -1.7241  0.7450
  139OSM    C8S15164   3.431   2.997   7.025  0.2437  0.4822 -0.0810
  139OSM    H8S15165   3.501   2.914   7.000 -0.1701 -0.4754  1.8413
  139OSM    H8T15166   3.329   2.958   7.045  0.7267 -1.4496 -1.1260
  139OSM    C9S15167   3.503   3.041   7.153 -0.4395  0.4879 -0.2069
  139OSM    H9S15168   3.435   3.112   7.205 -1.1046 -0.5001  0.3095
  139OSM    H9T15169   3.592   3.101   7.125 -0.4441 -0.6609 -2.9112
  139OSM   C10S15170   3.551   2.923   7.241 -0.3838 -0.6297  0.2436
  139OSM   H10S15171   3.631   2.864   7.191 -0.0716 -2.1848  2.4238
  139OSM   H10T15172   3.464   2.855   7.254 -1.2659  0.9943  4.0543
  139OSM   C11S15173   3.592   2.967   7.382 -0.4035  0.4769  0.4316
  139OSM   H11S15174   3.661   3.055   7.385  0.0439  0.1267  0.5218
  139OSM   H11T15175   3.654   2.894   7.438  0.4240  1.2139  0.5095
  139OSM   C12S15176   3.475   2.997   7.474  0.3830  0.4494  0.2914
  139OSM   H12S15177   3.407   2.910   7.490  0.0694  0.4215 -1.0543
  139OSM   H12T15178   3.405   3.071   7.429 -0.1595  1.5530  2.7987
  139OSM   C13S15179   3.530   3.046   7.603 -0.7362  0.3340  0.2480
  139OSM   H13S15180   3.576   3.146   7.585  2.4551 -0.5087  2.8096
  139OSM   H13T15181   3.612   2.988   7.649  0.6161  1.5528 -0.5619
  139OSM   C14S15182   3.417   3.062   7.710 -0.4961  0.3923 -0.1574
  139OSM   H14S15183   3.365   2.969   7.741 -0.0165 -0.7394 -2.5303
  139OSM   H14T15184   3.342   3.132   7.667  0.6030  1.0196 -1.1126
  139OSM   C15S15185   3.465   3.120   7.838  0.6262 -0.1273 -0.1232
  139OSM   H15S15186   3.508   3.222   7.823  1.2581 -0.1664  1.2664
  139OSM   H15T15187   3.551   3.063   7.880  2.1385  2.7869  0.9987
  139OSM   C16S15188   3.356   3.136   7.943 -0.5183  0.0296  0.0607
  139OSM   H16S15189   3.317   3.034   7.964 -2.7394  0.6983 -0.5699
  139OSM   H16T15190   3.266   3.194   7.911 -1.2267 -0.4308  1.1691
  139OSM   C17S15191   3.418   3.196   8.073 -0.9161 -0.2626 -0.1335
  139OSM   H17S15192   3.332   3.236   8.132  0.3137  2.0980  0.2052
  139OSM   H17T15193   3.470   3.291   8.046  1.1943 -1.1831  0.5478
  139OSM   C18S15194   3.503   3.092   8.151 -0.0271  0.3894  0.9146
  139OSM   H18S15195   3.546   3.127   8.248  1.4844  1.0581  0.0427
  139OSM   H18T15196   3.590   3.067   8.087 -0.3484 -0.7783  0.9056
  139OSM   H18U15197   3.453   2.993   8.157  0.3756  0.0612 -0.7713
  139OSM    C1F15198   3.950   3.006   6.821 -0.8878  0.0849  0.4080
  139OSM     OF15199   4.057   3.060   6.791  0.0209 -0.0210  0.6460
  139OSM    C2F15200   3.921   2.959   6.966 -0.2580  0.3754  0.3022
  139OSM    H2F15201   3.915   2.848   6.963 -0.8425  0.3939  0.5975
  139OSM    H2G15202   3.825   2.995   7.010 -1.2523 -0.0379 -1.4356
  139OSM    C3F15203   4.035   3.006   7.057 -0.4245  0.3440 -0.4253
  139OSM    H3F15204   4.009   3.110   7.084  3.2395  0.5454  3.4257
  139OSM    H3G15205   4.134   2.997   7.007  0.6420 -2.0629  1.8765
  139OSM    C4F15206   4.048   2.926   7.188  0.7162  0.2304 -0.4777
  139OSM    H4F15207   4.130   2.962   7.255  1.9029 -1.4587 -0.9796
  139OSM    H4G15208   4.073   2.823   7.157  0.9340  0.1621 -0.0934
  139OSM    C5F15209   3.922   2.920   7.272 -0.7435  0.2719 -0.4087
  139OSM    H5F15210   3.842   2.874   7.211 -1.2579  1.7118 -0.8531
  139OSM    H5G15211   3.890   3.025   7.288 -0.0017  0.4293  0.1304
  139OSM    C6F15212   3.926   2.838   7.393  0.5033 -0.0187 -0.5443
  139OSM    H6F15213   3.997   2.753   7.383 -0.8329 -1.2943  0.3006
  139OSM    H6G15214   3.830   2.790   7.423 -0.1759  1.4896 -0.2049
  139OSM    C7F15215   3.988   2.923   7.511 -0.0199 -0.5854  0.0516
  139OSM    H7F15216   3.915   3.007   7.519  1.6854  1.1262 -1.2078
  139OSM    H7G15217   4.080   2.978   7.480 -0.0750 -1.2442 -1.3938
  139OSM    C8F15218   4.024   2.854   7.645 -0.6843 -0.2768  0.0736
  139OSM    H8F15219   4.076   2.915   7.721 -1.6359 -0.7335  1.1332
  139OSM    H8G15220   4.101   2.781   7.612 -2.3888 -1.9831 -0.3239
  139OSM    C9F15221   3.910   2.769   7.689  0.5670  0.8299 -0.4397
  139OSM    H9F15222   3.873   2.692   7.620 -1.1560 -0.6208  1.9251
  139OSM   C10F15223   3.843   2.777   7.804 -0.6112 -0.1960 -0.0970
  139OSM   H10F15224   3.759   2.713   7.831 -2.0028  1.2815 -0.7416
  139OSM   C11F15225   3.880   2.878   7.911 -0.5737 -0.7197 -0.2553
  139OSM   H11F15226   3.828   2.974   7.894 -2.3277 -1.5240  0.3373
  139OSM   H11G15227   3.985   2.907   7.890 -0.8012 -1.0213 -1.9591
  139OSM   C12F15228   3.865   2.825   8.056 -0.0659 -0.6645  1.3411
  139OSM   H12F15229   3.949   2.759   8.087 -0.3393 -1.4930  0.3413
  139OSM   H12G15230   3.770   2.768   8.057 -0.7487  0.1887 -2.1050
  139OSM   C13F15231   3.860   2.942   8.153  0.5671 -0.3754 -0.5342
  139OSM   H13F15232   3.814   3.035   8.113  1.5164  1.4346  2.2919
  139OSM   H13G15233   3.959   2.958   8.199 -0.1075 -0.5463  1.0145
  139OSM   C14F15234   3.781   2.908   8.280  0.8276  0.0299  0.1248
  139OSM   H14F15235   3.825   2.813   8.319 -0.8610 -0.9945 -0.3760
  139OSM   H14G15236   3.676   2.886   8.253  0.1766  2.4816  0.4269
  139OSM   C15F15237   3.790   3.020   8.387 -0.5580 -0.3442  0.9425
  139OSM   H15F15238   3.764   3.115   8.337 -0.7528  0.3940  2.3966
  139OSM   H15G15239   3.897   3.035   8.415 -0.1753 -0.8538 -0.1763
  139OSM   C16F15240   3.707   2.986   8.502  0.3304 -0.1834  0.0467
  139OSM   H16F15241   3.599   3.006   8.485 -0.3520 -1.8114  2.0649
  139OSM   H16G15242   3.738   3.042   8.592 -0.6614 -0.3311  0.5031
  139OSM   C17F15243   3.711   2.840   8.552  0.9832  0.5163  0.9066
  139OSM   H17F15244   3.815   2.802   8.560  1.2727  0.2667 -2.5257
  139OSM   H17G15245   3.653   2.788   8.474 -2.4917  0.7536  3.1154
  139OSM   C18F15246   3.628   2.828   8.677  0.5433 -0.0219  0.1077
  139OSM   H18F15247   3.523   2.847   8.650  0.1825 -1.2175  0.6010
  139OSM   H18G15248   3.669   2.903   8.749 -0.2828 -0.6342  1.2511
  139OSM   H18H15249   3.621   2.729   8.726  1.0312 -1.1126 -1.9281
  140OSM      N15250   4.039   5.176   6.041 -0.0040  0.0604 -0.0685
  140OSM    C1515251   4.048   5.322   6.017 -0.0091  0.1741 -0.1949
  140OSM   H15A15252   3.960   5.360   5.966 -0.6467  0.1151  0.8386
  140OSM   H15B15253   4.133   5.343   5.954 -1.0389 -1.1535 -2.1860
  140OSM   H15C15254   4.063   5.376   6.109 -1.8981  0.6490 -0.1076
  140OSM    C1415255   3.909   5.135   6.097  0.0336  0.0484  0.2926
  140OSM   H14A15256   3.819   5.164   6.046  1.0162  0.4684 -1.2552
  140OSM   H14B15257   3.887   5.174   6.195  0.8123 -1.0387  0.9293
  140OSM   H14C15258   3.905   5.028   6.109  1.4868 -0.2543 -1.4967
  140OSM    C1315259   4.051   5.106   5.907  0.0897  0.8648 -0.0307
  140OSM   H13A15260   3.970   5.143   5.845 -1.2130  2.0092  2.2123
  140OSM   H13B15261   4.040   4.998   5.912  0.7327  0.7864 -0.2626
  140OSM   H13C15262   4.144   5.132   5.859  0.2634  0.8758  0.3102
  140OSM    C1215263   4.155   5.134   6.133 -0.3048  0.1338 -0.8098
  140OSM   H12A15264   4.244   5.163   6.078 -2.0591  1.7663 -3.0024
  140OSM   H12B15265   4.164   5.027   6.129 -2.3796 -0.0835 -0.5182
  140OSM    C1115266   4.155   5.195   6.278 -0.1771  0.3595 -0.1600
  140OSM   H11A15267   4.115   5.119   6.349  0.9119  0.8612  1.0193
  140OSM   H11B15268   4.084   5.281   6.286  0.5613  0.8338  1.8447
  140OSM      P15269   4.340   5.369   6.325 -0.0891 -0.3310  0.0475
  140OSM    O1315270   4.461   5.366   6.403 -0.2309  0.0175  0.2582
  140OSM    O1415271   4.343   5.432   6.191 -0.2570  0.1289  0.1468
  140OSM    O1115272   4.230   5.446   6.413 -0.1843  0.1799  0.4519
  140OSM    O1215273   4.289   5.223   6.324 -0.1012 -0.3216  0.2728
  140OSM    C1S15274   4.166   5.373   6.522 -0.1691  0.1357  0.4958
  140OSM    H1S15275   4.229   5.298   6.574 -0.6811  0.9838  2.4587
  140OSM    H1T15276   4.068   5.332   6.489 -0.1395  0.8831 -0.5663
  140OSM     NF15277   4.077   5.395   6.760 -0.5353  1.2299 -0.4671
  140OSM    HNF15278   3.979   5.405   6.774 -0.7830  0.2334 -1.3927
  140OSM    C2S15279   4.125   5.469   6.642  0.4979 -0.2840  0.1286
  140OSM    H2S15280   4.220   5.517   6.675  0.9114 -0.5356 -0.6637
  140OSM    C3S15281   4.019   5.575   6.584  0.0309  0.2418 -0.4000
  140OSM    H3S15282   3.927   5.520   6.556  0.0642 -0.2110  0.3364
  140OSM     O315283   4.068   5.635   6.462  0.0821 -0.0855  0.4555
  140OSM    HO315284   4.153   5.591   6.456 -0.3801 -0.9473 -0.0019
  140OSM    C4S15285   3.998   5.669   6.694 -0.4211 -0.0107 -0.5233
  140OSM    H4S15286   3.923   5.642   6.770 -0.0542 -1.0223 -0.5118
  140OSM    C5S15287   4.064   5.786   6.710 -0.4929  0.6799  0.5292
  140OSM    H5S15288   4.139   5.807   6.633 -0.5191 -1.9614 -0.2838
  140OSM    C6S15289   4.051   5.884   6.825  0.8139 -0.2719 -0.7196
  140OSM    H6S15290   3.975   5.962   6.800  1.1213 -0.0883 -1.0862
  140OSM    H6T15291   4.150   5.930   6.842  1.2687 -1.4703 -0.0399
  140OSM    C7S15292   4.005   5.818   6.958  0.4627  0.8974 -0.5055
  140OSM    H7S15293   4.057   5.721   6.977  1.3978  1.6134  0.7613
  140OSM    H7T15294   3.896   5.814   6.942  0.4235 -1.2772 -0.0837
  140OSM    C8S15295   4.035   5.907   7.076  0.4064 -0.1899  0.1327
  140OSM    H8S15296   4.143   5.921   7.097  0.2265  2.8896 -0.4138
  140OSM    H8T15297   3.976   5.863   7.159  1.1555 -0.9727  0.2661
  140OSM    C9S15298   3.987   6.051   7.067 -0.3024 -0.4383 -0.4237
  140OSM    H9S15299   3.876   6.042   7.063 -0.5191  1.9818 -2.9062
  140OSM    H9T15300   4.017   6.114   6.980 -0.7442  3.4240  1.9387
  140OSM   C10S15301   4.034   6.133   7.194  0.1980 -0.2333  0.2569
  140OSM   H10S15302   3.999   6.236   7.176 -1.1572 -0.4835  1.3159
  140OSM   H10T15303   4.144   6.131   7.208  0.2984 -1.1165 -0.5273
  140OSM   C11S15304   3.975   6.084   7.329 -0.1359 -0.1595 -0.7462
  140OSM   H11S15305   4.009   5.983   7.358 -0.4395 -0.7184 -2.2286
  140OSM   H11T15306   3.866   6.073   7.312 -0.0656  1.3994 -2.5899
  140OSM   C12S15307   4.004   6.178   7.451 -0.2242  0.1927 -0.2528
  140OSM   H12S15308   3.958   6.276   7.426  0.3205 -0.1027 -2.7141
  140OSM   H12T15309   4.112   6.182   7.474 -0.7417  2.2026  2.3696
  140OSM   C13S15310   3.940   6.124   7.578  0.2714 -0.6067  0.6881
  140OSM   H13S15311   3.996   6.037   7.621  2.1969 -0.1533 -0.7366
  140OSM   H13T15312   3.837   6.090   7.556  0.4333 -1.3616  1.0488
  140OSM   C14S15313   3.932   6.218   7.701 -0.1505  0.3940  0.0263
  140OSM   H14S15314   3.925   6.321   7.660  2.4020  0.2544 -0.9267
  140OSM   H14T15315   4.029   6.209   7.754  0.4987 -1.8039 -1.3762
  140OSM   C15S15316   3.822   6.169   7.795  0.4393  0.1410 -0.5447
  140OSM   H15S15317   3.837   6.062   7.822 -0.1410 -0.4349 -2.3494
  140OSM   H15T15318   3.723   6.165   7.744 -0.9778 -0.5332  2.0921
  140OSM   C16S15319   3.800   6.256   7.922 -0.0561 -0.4805 -0.3186
  140OSM   H16S15320   3.698   6.232   7.959 -0.5430  1.6316 -0.1527
  140OSM   H16T15321   3.799   6.365   7.904 -0.4498 -0.1901  1.3312
  140OSM   C17S15322   3.909   6.228   8.024  0.0800  0.6266 -0.3090
  140OSM   H17S15323   3.948   6.124   8.029 -1.6502 -0.0126  0.7759
  140OSM   H17T15324   3.860   6.244   8.122  1.1537 -0.0418  0.3651
  140OSM   C18S15325   4.024   6.329   8.016 -0.4755 -0.3320  0.9742
  140OSM   H18S15326   4.101   6.304   8.092 -1.8823  0.7775  2.8401
  140OSM   H18T15327   3.982   6.426   8.049 -2.2245 -1.2505  1.5486
  140OSM   H18U15328   4.070   6.332   7.915 -0.1417 -1.9918  1.0371
  140OSM    C1F15329   4.153   5.307   6.826 -0.2254 -0.1905  0.1465
  140OSM     OF15330   4.277   5.296   6.813 -0.6189  0.0285 -0.0564
  140OSM    C2F15331   4.077   5.224   6.928 -0.3126 -0.5966  0.7556
  140OSM    H2F15332   3.982   5.196   6.879  0.2349  2.0101 -2.1617
  140OSM    H2G15333   4.058   5.283   7.021 -0.7216  3.4426 -1.6458
  140OSM    C3F15334   4.163   5.100   6.958  0.5776  0.0396  0.3124
  140OSM    H3F15335   4.262   5.133   6.996  0.1164  0.8003  0.8772
  140OSM    H3G15336   4.170   5.046   6.861 -2.1461  0.0247  0.0391
  140OSM    C4F15337   4.100   5.004   7.056 -0.1541 -0.1758  0.2262
  140OSM    H4F15338   4.162   4.911   7.062  0.2168 -0.1649 -2.3367
  140OSM    H4G15339   4.011   4.957   7.010 -0.5680 -1.2399  2.0062
  140OSM    C5F15340   4.055   5.056   7.196  0.1449  0.4174  0.7351
  140OSM    H5F15341   3.990   4.979   7.241 -1.5214  0.7249 -1.0123
  140OSM    H5G15342   3.986   5.143   7.201  0.4149  0.7039 -0.2313
  140OSM    C6F15343   4.167   5.080   7.289  0.2523  0.2113  0.6251
  140OSM    H6F15344   4.240   5.141   7.232 -1.4883  1.2673 -0.5731
  140OSM    H6G15345   4.221   4.985   7.311 -0.1959 -0.0510  0.6012
  140OSM    C7F15346   4.130   5.154   7.415  0.5783 -0.0789  0.4614
  140OSM    H7F15347   4.057   5.089   7.467 -0.2621  1.5628  1.4446
  140OSM    H7G15348   4.069   5.244   7.391  0.3504 -1.0526 -3.0828
  140OSM    C8F15349   4.242   5.184   7.514 -0.0767 -0.0973  0.1712
  140OSM    H8F15350   4.331   5.220   7.457  0.9572 -0.4646  1.5163
  140OSM    H8G15351   4.283   5.089   7.555 -0.7368 -0.7359 -0.6066
  140OSM    C9F15352   4.207   5.297   7.615 -0.0050 -0.7635 -1.2534
  140OSM    H9F15353   4.188   5.397   7.573  2.1903  0.6283  0.8213
  140OSM   C10F15354   4.207   5.291   7.751 -0.1421 -0.3481 -0.5534
  140OSM   H10F15355   4.180   5.381   7.809  0.2835  0.5832 -1.7391
  140OSM   C11F15356   4.267   5.169   7.819 -0.2894 -0.4623 -0.2532
  140OSM   H11F15357   4.335   5.109   7.754  0.9222 -0.5658  1.0650
  140OSM   H11G15358   4.187   5.094   7.838 -0.8779 -0.5352 -2.6656
  140OSM   C12F15359   4.334   5.219   7.943 -1.1090  0.4628  0.2336
  140OSM   H12F15360   4.404   5.301   7.918 -0.7190  0.4564  1.2518
  140OSM   H12G15361   4.392   5.133   7.984 -1.9219 -0.3081 -0.2021
  140OSM   C13F15362   4.230   5.278   8.041 -0.1142 -0.2728 -0.3499
  140OSM   H13F15363   4.136   5.219   8.044 -0.4165  0.2471  2.1742
  140OSM   H13G15364   4.198   5.376   8.000 -0.6489 -0.1814  0.2686
  140OSM   C14F15365   4.275   5.296   8.185 -0.4729  0.3957  0.3238
  140OSM   H14F15366   4.318   5.199   8.215  1.1826  0.4023 -1.7974
  140OSM   H14G15367   4.182   5.301   8.246 -0.6421  1.5667  0.0093
  140OSM   C15F15368   4.387   5.401   8.204  0.2078  0.1908  0.2498
  140OSM   H15F15369   4.350   5.497   8.162  0.0811  1.0475  2.2105
  140OSM   H15G15370   4.479   5.385   8.145 -1.3893 -1.0261 -2.0602
  140OSM   C16F15371   4.430   5.417   8.350 -0.4262 -0.1809  0.0786
  140OSM   H16F15372   4.498   5.334   8.379  0.0907  0.6773  1.4340
  140OSM   H16G15373   4.341   5.405   8.416 -0.3764  1.3613  0.4719
  140OSM   C17F15374   4.490   5.560   8.383  0.3936  0.2289 -0.4943
  140OSM   H17F15375   4.425   5.647   8.361 -1.1726 -0.4810  1.1326
  140OSM   H17G15376   4.584   5.580   8.327  1.5215  0.6296  1.4419
  140OSM   C18F15377   4.539   5.566   8.528  0.0404 -0.5945 -0.0755
  140OSM   H18F15378   4.578   5.665   8.560 -0.3361 -0.5183  0.1500
  140OSM   H18G15379   4.629   5.501   8.526  1.7785  1.6780  0.3957
  140OSM   H18H15380   4.472   5.533   8.609  2.5087  1.6672  3.1335
  141OSM      N15381   1.508   0.116   6.269 -0.2183  0.0490 -0.3143
  141OSM    C1515382   1.395   0.105   6.363  0.8523 -0.1928 -0.5067
  141OSM   H15A15383   1.319   0.170   6.324 -0.2726 -0.4173  1.2138
  141OSM   H15B15384   1.414   0.155   6.456 -2.3997  1.6242 -0.6775
  141OSM   H15C15385   1.352   0.005   6.365  1.3286 -0.3815  0.6727
  141OSM    C1415386   1.454   0.096   6.129 -0.7106  0.8435  0.1566
  141OSM   H14A15387   1.536   0.072   6.063 -0.3275 -2.0921  1.5478
  141OSM   H14B15388   1.397   0.179   6.088 -2.0404 -0.4908 -0.7947
  141OSM   H14C15389   1.389   0.013   6.107  0.1766  0.3312 -0.6255
  141OSM    C1315390   1.561   0.260   6.274 -0.5154 -0.1019 -0.1059
  141OSM   H13A15391   1.487   0.335   6.252 -1.2947 -1.3268 -1.8856
  141OSM   H13B15392   1.642   0.271   6.203  1.1942 -0.3302  1.7173
  141OSM   H13C15393   1.606   0.280   6.370 -2.8506 -0.5935  1.1599
  141OSM    C1215394   1.612   0.015   6.309 -0.3946  0.1781 -0.2935
  141OSM   H12A15395   1.692   0.030   6.237 -2.0838 -0.5184 -2.4226
  141OSM   H12B15396   1.571  -0.082   6.286 -0.2930  0.3577 -1.2850
  141OSM    C1115397   1.676   0.021   6.447 -0.4039 -0.1250  0.2461
  141OSM   H11A15398   1.754  -0.058   6.450  0.0645  0.2924 -0.5900
  141OSM   H11B15399   1.598  -0.011   6.520  0.1900  0.9019  1.3725
  141OSM      P15400   1.880   0.173   6.412  0.5559 -0.4377 -0.0428
  141OSM    O1315401   1.892   0.093   6.288  0.2186  0.7184 -0.7317
  141OSM    O1415402   1.898   0.318   6.392 -0.1844 -0.5703 -0.1655
  141OSM    O1115403   1.990   0.116   6.517 -0.4101 -0.2093 -0.5429
  141OSM    O1215404   1.735   0.147   6.474 -0.0664  0.2353  0.7793
  141OSM    C1S15405   1.983   0.165   6.653 -0.2122  0.0290  0.2452
  141OSM    H1S15406   1.876   0.183   6.679  0.1743  1.0661  1.2009
  141OSM    H1T15407   2.031   0.265   6.665 -2.0865  1.0196 -0.0817
  141OSM     NF15408   2.011   0.126   6.889  0.2500  0.5093  0.6265
  141OSM    HNF15409   2.068   0.207   6.906  2.7353 -1.0819  0.3650
  141OSM    C2S15410   2.044   0.070   6.760 -0.6505  0.0553 -0.1690
  141OSM    H2S15411   1.995  -0.028   6.742  1.0224 -0.9085  0.3634
  141OSM    C3S15412   2.195   0.048   6.728 -0.3133  0.6268 -0.4757
  141OSM    H3S15413   2.247   0.143   6.752 -0.1406  0.7914 -1.4549
  141OSM     O315414   2.221   0.020   6.595  0.3554  0.2698 -0.1277
  141OSM    HO315415   2.139   0.042   6.551 -0.2651  2.5744  1.9679
  141OSM    C4S15416   2.250  -0.057   6.827 -0.0416 -0.7770  0.5712
  141OSM    H4S15417   2.276  -0.009   6.922  1.5261  3.0203 -1.5285
  141OSM    C5S15418   2.251  -0.193   6.803 -0.0083 -0.4368 -0.3458
  141OSM    H5S15419   2.222  -0.227   6.703 -1.0967  1.5159 -0.7415
  141OSM    C6S15420   2.295  -0.304   6.905  0.0501  0.8886  0.5266
  141OSM    H6S15421   2.370  -0.371   6.859  0.0807  1.6790 -0.6200
  141OSM    H6T15422   2.211  -0.373   6.924 -0.7776  1.8337  0.4102
  141OSM    C7S15423   2.344  -0.267   7.049  0.1454 -0.1255 -0.5525
  141OSM    H7S15424   2.268  -0.199   7.092  0.5320  0.3356 -0.5946
  141OSM    H7T15425   2.445  -0.223   7.038  1.1902 -2.4558 -0.9194
  141OSM    C8S15426   2.364  -0.389   7.144  1.3915 -0.1506 -0.3617
  141OSM    H8S15427   2.464  -0.424   7.112  2.3456  1.3311  0.8435
  141OSM    H8T15428   2.284  -0.464   7.126 -0.6877  2.2719 -1.9056
  141OSM    C9S15429   2.367  -0.367   7.300 -0.1104 -0.4567 -0.1412
  141OSM    H9S15430   2.262  -0.352   7.335 -1.0942  0.8943 -3.3357
  141OSM    H9T15431   2.423  -0.275   7.325 -1.5265  0.5984 -0.7284
  141OSM   C10S15432   2.429  -0.480   7.381  0.2956  0.0404 -0.3424
  141OSM   H10S15433   2.540  -0.472   7.374  0.4014  2.3354  2.2956
  141OSM   H10T15434   2.409  -0.582   7.340  1.2874 -0.3530  0.1242
  141OSM   C11S15435   2.398  -0.474   7.532 -0.4574 -0.4978  0.1203
  141OSM   H11S15436   2.289  -0.484   7.551 -0.5867  0.6265  0.0188
  141OSM   H11T15437   2.429  -0.373   7.566  1.0801 -0.5161 -1.1222
  141OSM   C12S15438   2.492  -0.571   7.602  0.4540 -0.0378 -0.2948
  141OSM   H12S15439   2.600  -0.543   7.609  0.1440  0.7830  2.2043
  141OSM   H12T15440   2.479  -0.664   7.542  2.1561  0.3437 -1.3368
  141OSM   C13S15441   2.461  -0.591   7.754  0.8464 -0.5905 -0.5538
  141OSM   H13S15442   2.516  -0.679   7.793  3.2783  0.7920 -0.6671
  141OSM   H13T15443   2.352  -0.609   7.759  0.6625  0.4538 -0.5591
  141OSM   C14S15444   2.497  -0.476   7.843  0.1482 -0.2431  0.5113
  141OSM   H14S15445   2.435  -0.385   7.826  1.1618  0.8225  2.1545
  141OSM   H14T15446   2.605  -0.453   7.835  0.3479 -0.8533  1.3473
  141OSM   C15S15447   2.465  -0.502   7.995  0.7387 -0.2927 -0.0703
  141OSM   H15S15448   2.370  -0.559   7.993  0.6977 -0.2046 -1.1474
  141OSM   H15T15449   2.457  -0.397   8.029  1.1792 -0.5481  0.8571
  141OSM   C16S15450   2.561  -0.593   8.065  0.5027  0.6289  0.2078
  141OSM   H16S15451   2.664  -0.550   8.066  0.1195  1.5701  0.4254
  141OSM   H16T15452   2.572  -0.684   8.002  0.6886  0.0959  0.9923
  141OSM   C17S15453   2.519  -0.624   8.215  0.5795 -0.2601  0.6375
  141OSM   H17S15454   2.408  -0.627   8.219  0.5446  0.8609  0.8598
  141OSM   H17T15455   2.548  -0.532   8.271 -2.0818  1.5057 -0.6944
  141OSM   C18S15456   2.566  -0.747   8.289  0.0893  0.3575 -0.1634
  141OSM   H18S15457   2.539  -0.742   8.397 -0.0920  0.8832 -0.2281
  141OSM   H18T15458   2.675  -0.755   8.270 -0.1859 -0.8375 -1.4099
  141OSM   H18U15459   2.519  -0.835   8.242 -0.4768  0.9995 -0.8207
  141OSM    C1F15460   1.910   0.087   6.968 -0.0815  0.3805 -0.3014
  141OSM     OF15461   1.835  -0.005   6.937 -0.2310  0.0215  0.0995
  141OSM    C2F15462   1.879   0.170   7.096 -0.8923 -0.6751  0.1283
  141OSM    H2F15463   1.768   0.180   7.094 -0.7397  2.0334  1.0272
  141OSM    H2G15464   1.928   0.269   7.090  3.4443 -2.5413  1.2603
  141OSM    C3F15465   1.906   0.102   7.225 -0.5162 -0.2256 -0.2719
  141OSM    H3F15466   1.863   0.000   7.219 -0.1836 -0.5021  1.4855
  141OSM    H3G15467   1.852   0.155   7.306 -0.8135  0.2638 -0.7823
  141OSM    C4F15468   2.059   0.069   7.241 -0.3195  0.6000 -0.2845
  141OSM    H4F15469   2.105   0.058   7.140 -0.6626 -0.8788 -0.2986
  141OSM    H4G15470   2.053  -0.030   7.290 -2.1507  0.7779 -0.0524
  141OSM    C5F15471   2.138   0.165   7.328  0.3254  0.6999  0.3468
  141OSM    H5F15472   2.235   0.118   7.355 -0.2871 -0.9721 -0.2499
  141OSM    H5G15473   2.078   0.188   7.419  0.2187  2.0604 -0.0437
  141OSM    C6F15474   2.174   0.296   7.258  0.5850 -0.4158 -0.2257
  141OSM    H6F15475   2.075   0.344   7.239  0.0513 -1.0214  0.9264
  141OSM    H6G15476   2.206   0.282   7.153 -0.5110  0.6221 -0.7251
  141OSM    C7F15477   2.285   0.367   7.334 -0.1171  0.2981 -0.5257
  141OSM    H7F15478   2.332   0.445   7.271 -0.7831  0.4400 -0.8576
  141OSM    H7G15479   2.367   0.304   7.374  0.3235  0.7926 -0.6484
  141OSM    C8F15480   2.215   0.445   7.448  0.3550 -0.0306 -0.0101
  141OSM    H8F15481   2.141   0.392   7.511  0.1451  0.6296  0.3066
  141OSM    H8G15482   2.150   0.520   7.398  1.3383  1.6325  1.1034
  141OSM    C9F15483   2.303   0.531   7.535 -0.5686  0.1168  0.4516
  141OSM    H9F15484   2.321   0.629   7.487  0.7273 -0.4764 -0.3336
  141OSM   C10F15485   2.355   0.504   7.655 -0.5404 -0.1628 -0.0693
  141OSM   H10F15486   2.418   0.581   7.702 -1.3704  0.4800  0.0241
  141OSM   C11F15487   2.347   0.384   7.740  0.1892 -0.0460  0.2027
  141OSM   H11F15488   2.318   0.296   7.679  0.5393 -0.1717  0.2145
  141OSM   H11G15489   2.271   0.406   7.818 -1.3215 -3.5002 -0.1057
  141OSM   C12F15490   2.472   0.354   7.822 -0.4039  0.4468 -0.2953
  141OSM   H12F15491   2.561   0.338   7.757 -0.5744 -1.8271 -0.0239
  141OSM   H12G15492   2.447   0.257   7.868 -2.2505  1.0169 -0.0307
  141OSM   C13F15493   2.506   0.460   7.931  0.2877 -0.0499 -0.3565
  141OSM   H13F15494   2.419   0.463   8.000  1.1044 -0.3657  0.7126
  141OSM   H13G15495   2.526   0.556   7.878  0.4230 -0.1295 -0.4480
  141OSM   C14F15496   2.633   0.423   8.007 -0.0814  0.3624  0.2458
  141OSM   H14F15497   2.640   0.315   8.029  2.6527  0.7876  1.9624
  141OSM   H14G15498   2.625   0.470   8.107 -1.4074 -2.6373  1.6710
  141OSM   C15F15499   2.766   0.447   7.934 -0.6184  0.2662  1.2109
  141OSM   H15F15500   2.747   0.540   7.877  1.2214  1.6119  2.6704
  141OSM   H15G15501   2.794   0.363   7.868  1.4914  1.9432 -0.1452
  141OSM   C16F15502   2.882   0.477   8.030  0.1069 -0.0183  0.1546
  141OSM   H16F15503   2.844   0.557   8.096  0.4641 -1.5597  2.3316
  141OSM   H16G15504   2.966   0.518   7.970 -1.1719 -0.8828 -2.3662
  141OSM   C17F15505   2.918   0.364   8.131  0.5387  0.1452  0.5577
  141OSM   H17F15506   2.952   0.287   8.059  2.5643  2.2342 -0.8577
  141OSM   H17G15507   2.829   0.328   8.187 -0.8338  0.3029 -1.4398
  141OSM   C18F15508   3.041   0.400   8.214  0.1232 -0.3814  0.0134
  141OSM   H18F15509   3.035   0.351   8.313 -1.0808  2.1720  1.2851
  141OSM   H18G15510   3.052   0.507   8.243 -3.4143 -0.7734  3.6956
  141OSM   H18H15511   3.137   0.375   8.163  1.2731  1.0892  1.3535
  142OSM      N15512   4.522   2.157   5.792  0.1582  0.1704  0.2587
  142OSM    C1515513   4.624   2.239   5.859  1.2758 -0.7010  0.1353
  142OSM   H15A15514   4.586   2.267   5.956 -2.1359 -0.0638 -1.2059
  142OSM   H15B15515   4.645   2.332   5.807  0.2935  0.7778  2.2238
  142OSM   H15C15516   4.720   2.193   5.874  1.7633  0.4282  0.6072
  142OSM    C1415517   4.402   2.236   5.792 -0.4198  0.2834  0.2753
  142OSM   H14A15518   4.348   2.235   5.886 -0.0976 -0.6663  0.4612
  142OSM   H14B15519   4.337   2.202   5.713 -2.3613 -0.3767  2.0840
  142OSM   H14C15520   4.413   2.338   5.758 -1.7160  0.9386  1.6836
  142OSM    C1315521   4.554   2.145   5.641 -0.4469  0.2575 -0.5726
  142OSM   H13A15522   4.564   2.240   5.590 -1.0680  1.1333  0.8706
  142OSM   H13B15523   4.484   2.087   5.583 -1.3023  2.6284 -2.0721
  142OSM   H13C15524   4.647   2.091   5.628 -1.1455 -0.9487 -0.6426
  142OSM    C1215525   4.510   2.024   5.868  0.0982  0.6249  0.4931
  142OSM   H12A15526   4.599   1.968   5.847 -1.3396 -0.9182 -1.9938
  142OSM   H12B15527   4.437   1.957   5.825  1.5891 -1.5466  1.1996
  142OSM    C1115528   4.475   2.040   6.015  0.1491 -0.0992 -0.2737
  142OSM   H11A15529   4.543   2.110   6.068  0.4139 -0.6591  0.1493
  142OSM   H11B15530   4.505   1.946   6.067 -1.0588  0.2184  1.0851
  142OSM      P15531   4.277   2.064   6.188 -0.3812  0.0566  0.0941
  142OSM    O1315532   4.323   2.184   6.262  0.5817 -0.3337 -0.4547
  142OSM    O1415533   4.132   2.035   6.178 -0.1667  0.5804  0.3421
  142OSM    O1115534   4.346   1.937   6.247  0.6204  0.4538 -0.0453
  142OSM    O1215535   4.335   2.077   6.040  0.2192  0.8167  0.1214
  142OSM    C1S15536   4.441   1.937   6.359  0.1504 -0.2468 -0.5682
  142OSM    H1S15537   4.498   2.032   6.364 -0.8830  0.4050 -0.9928
  142OSM    H1T15538   4.512   1.854   6.339  0.9247  0.7506 -2.1264
  142OSM     NF15539   4.467   1.915   6.612 -0.0391 -0.0596 -0.0672
  142OSM    HNF15540   4.499   1.830   6.652 -2.0047 -0.8422 -0.0545
  142OSM    C2S15541   4.368   1.900   6.499 -0.8978 -0.5371  0.1719
  142OSM    H2S15542   4.290   1.978   6.512  0.8152  1.7238 -1.9636
  142OSM    C3S15543   4.314   1.754   6.490  0.1080 -0.5798 -0.5956
  142OSM    H3S15544   4.398   1.683   6.471  0.8176 -0.2908  1.2528
  142OSM     O315545   4.221   1.733   6.377  0.1507 -0.0220  0.2939
  142OSM    HO315546   4.217   1.818   6.332  0.9578 -0.2276 -0.1973
  142OSM    C4S15547   4.260   1.720   6.629 -0.0793  0.8744 -0.3597
  142OSM    H4S15548   4.345   1.699   6.696 -0.9000  1.0419  0.7474
  142OSM    C5S15549   4.134   1.746   6.674  0.1877  0.7926 -0.9173
  142OSM    H5S15550   4.055   1.783   6.608 -1.0825 -2.3179 -1.3229
  142OSM    C6S15551   4.098   1.720   6.821 -0.7260 -0.3833  0.0533
  142OSM    H6S15552   4.131   1.617   6.848 -2.4717  0.2485  6.0169
  142OSM    H6T15553   3.987   1.721   6.829 -1.1577 -1.2835 -3.7039
  142OSM    C7S15554   4.150   1.835   6.913 -0.0631  0.2102  0.3184
  142OSM    H7S15555   4.133   1.930   6.858  1.9072 -0.6456 -1.9940
  142OSM    H7T15556   4.260   1.831   6.903  0.0414  0.1229  1.4042
  142OSM    C8S15557   4.102   1.826   7.056  0.6273 -0.1111 -0.0172
  142OSM    H8S15558   4.125   1.725   7.096 -1.3451 -0.3750  0.5795
  142OSM    H8T15559   3.992   1.845   7.057  1.0064  2.4539  0.9523
  142OSM    C9S15560   4.144   1.950   7.139 -0.3419 -0.1206 -0.0334
  142OSM    H9S15561   4.097   2.043   7.101 -1.3046  1.6030  4.6580
  142OSM    H9T15562   4.255   1.959   7.141 -0.2068 -0.4434 -2.6898
  142OSM   C10S15563   4.097   1.948   7.286 -0.6245  0.2848  0.1055
  142OSM   H10S15564   4.024   1.866   7.303 -2.2236  1.3045 -1.4269
  142OSM   H10T15565   4.058   2.051   7.306 -0.9298  0.4568 -1.3118
  142OSM   C11S15566   4.208   1.924   7.388 -0.0696  0.2203  0.0074
  142OSM   H11S15567   4.268   2.017   7.394 -0.3379  0.6564 -2.7886
  142OSM   H11T15568   4.268   1.836   7.357  1.5289  1.6659 -1.2159
  142OSM   C12S15569   4.156   1.888   7.527 -0.4543 -0.7544 -0.2848
  142OSM   H12S15570   4.250   1.882   7.587 -0.5545 -0.6745 -0.1209
  142OSM   H12T15571   4.103   1.792   7.541 -0.7907 -0.2701  2.3154
  142OSM   C13S15572   4.082   1.997   7.605 -0.3825  0.0864  0.5272
  142OSM   H13S15573   3.975   2.008   7.577 -0.8446 -0.8740  1.7867
  142OSM   H13T15574   4.137   2.092   7.589  0.3150 -0.5730 -1.2124
  142OSM   C14S15575   4.105   1.951   7.753  0.1115 -0.0697  0.3370
  142OSM   H14S15576   4.212   1.941   7.780  0.3223 -0.0700 -0.4603
  142OSM   H14T15577   4.066   1.848   7.772  1.9836 -0.4806  2.3651
  142OSM   C15S15578   4.058   2.056   7.855  0.7633  0.1212  0.1656
  142OSM   H15S15579   3.948   2.040   7.858  0.8889 -0.7310  0.3078
  142OSM   H15T15580   4.082   2.157   7.815  1.0529  0.1965  0.5285
  142OSM   C16S15581   4.111   2.032   7.996  0.0887 -0.4703  0.2203
  142OSM   H16S15582   4.221   2.029   8.007  0.1763  0.7462 -0.2177
  142OSM   H16T15583   4.064   1.947   8.049  0.0711  0.6149  2.0324
  142OSM   C17S15584   4.079   2.146   8.095  0.8563 -0.1851  0.2733
  142OSM   H17S15585   3.968   2.159   8.099  0.7672 -0.3099 -1.1992
  142OSM   H17T15586   4.121   2.243   8.061 -1.2590  0.5566 -0.3981
  142OSM   C18S15587   4.127   2.117   8.241 -0.0867 -0.6796  0.2969
  142OSM   H18S15588   4.048   2.062   8.297 -1.6090  0.8543 -0.2672
  142OSM   H18T15589   4.134   2.221   8.280 -1.3564 -0.2061 -0.7068
  142OSM   H18U15590   4.222   2.058   8.239 -0.6435 -1.5662 -0.4804
  142OSM    C1F15591   4.513   2.039   6.652  0.8489 -0.0050 -1.1786
  142OSM     OF15592   4.492   2.138   6.585  0.5499 -0.1279 -0.2930
  142OSM    C2F15593   4.577   2.047   6.776  0.3856  0.0949 -0.6050
  142OSM    H2F15594   4.681   2.016   6.751  0.0296  0.1032 -2.1706
  142OSM    H2G15595   4.524   1.966   6.831 -0.2171  0.1437 -1.1100
  142OSM    C3F15596   4.559   2.182   6.859 -0.5349  0.1340  0.0650
  142OSM    H3F15597   4.453   2.197   6.890 -0.1519  0.9431  1.0431
  142OSM    H3G15598   4.592   2.271   6.801  0.6289 -0.2237  0.1588
  142OSM    C4F15599   4.642   2.175   6.987 -0.0481  0.1872 -0.4539
  142OSM    H4F15600   4.750   2.183   6.965  0.3103 -0.1712  1.0499
  142OSM    H4G15601   4.636   2.073   7.031 -2.0835 -0.0655 -1.2029
  142OSM    C5F15602   4.603   2.284   7.086  0.3929  0.9067 -0.1951
  142OSM    H5F15603   4.492   2.283   7.091  0.3754 -0.0944 -0.5042
  142OSM    H5G15604   4.645   2.381   7.050  1.2729  1.1711  1.4641
  142OSM    C6F15605   4.655   2.252   7.222  0.5810  0.7885 -0.7768
  142OSM    H6F15606   4.766   2.250   7.211  0.6300  2.0585 -0.5886
  142OSM    H6G15607   4.628   2.149   7.255  0.8594  0.9159 -0.1259
  142OSM    C7F15608   4.628   2.363   7.326  0.0558  0.1812  0.2876
  142OSM    H7F15609   4.536   2.417   7.297  0.3708 -0.2613 -1.6563
  142OSM    H7G15610   4.712   2.435   7.322 -0.5891  0.9465  0.3046
  142OSM    C8F15611   4.626   2.320   7.474 -0.2707 -0.1540 -0.4201
  142OSM    H8F15612   4.659   2.407   7.534 -2.9061 -0.1848  1.2288
  142OSM    H8G15613   4.701   2.239   7.481  1.8216  1.6868 -0.2078
  142OSM    C9F15614   4.503   2.251   7.519 -0.0517  0.5186 -0.0431
  142OSM    H9F15615   4.415   2.290   7.466 -1.4944 -1.5320  0.7335
  142OSM   C10F15616   4.485   2.163   7.622  0.0774 -0.5392 -0.2642
  142OSM   H10F15617   4.382   2.125   7.627 -0.0580 -0.5254 -2.1822
  142OSM   C11F15618   4.596   2.106   7.710  0.1124  0.0055 -0.4372
  142OSM   H11F15619   4.667   2.186   7.739  0.1903  0.1452 -1.0034
  142OSM   H11G15620   4.654   2.022   7.666 -0.2160 -1.5767  1.9751
  142OSM   C12F15621   4.532   2.060   7.839  0.2303 -0.2122 -0.3768
  142OSM   H12F15622   4.491   1.957   7.831 -1.5370  0.6145 -3.5609
  142OSM   H12G15623   4.455   2.131   7.877  1.4227 -0.3030  2.4539
  142OSM   C13F15624   4.631   2.035   7.947  0.0862  0.2417 -0.4063
  142OSM   H13F15625   4.687   2.131   7.948  1.5317 -0.4517 -3.1720
  142OSM   H13G15626   4.698   1.957   7.906 -2.2662 -1.2667 -1.5622
  142OSM   C14F15627   4.574   2.006   8.082  0.6223  0.5372 -0.2932
  142OSM   H14F15628   4.656   1.981   8.153  1.4701  0.9388 -1.1085
  142OSM   H14G15629   4.505   1.919   8.077 -0.3809  1.3519 -1.0662
  142OSM   C15F15630   4.501   2.131   8.143 -0.2004 -0.3267  0.1779
  142OSM   H15F15631   4.407   2.154   8.088  0.7922  0.1673 -1.3906
  142OSM   H15G15632   4.565   2.220   8.125 -1.0128  0.0584 -0.9133
  142OSM   C16F15633   4.486   2.117   8.298  0.7524  0.5319 -0.5508
  142OSM   H16F15634   4.577   2.081   8.349 -1.2706 -2.3412  1.3182
  142OSM   H16G15635   4.411   2.048   8.342  1.1561  2.1280  3.0017
  142OSM   C17F15636   4.443   2.252   8.343 -0.3822 -0.4679 -0.5384
  142OSM   H17F15637   4.370   2.310   8.283  0.5696  0.1933 -1.0918
  142OSM   H17G15638   4.528   2.323   8.338 -0.7044 -0.0755 -0.5183
  142OSM   C18F15639   4.398   2.242   8.491  0.6493 -0.4972 -0.2803
  142OSM   H18F15640   4.487   2.241   8.557  0.9323  1.6161 -0.5628
  142OSM   H18G15641   4.324   2.162   8.515 -0.0088  0.1160 -0.2154
  142OSM   H18H15642   4.343   2.336   8.515 -0.5477 -0.3203 -3.2527
  143OSM      N15643   6.264   3.484   5.994 -0.6481  0.4083 -0.1901
  143OSM    C1515644   6.266   3.426   6.130  0.3539  0.7052 -0.1293
  143OSM   H15A15645   6.309   3.494   6.202  3.1421  0.0323 -0.9932
  143OSM   H15B15646   6.332   3.341   6.143 -1.0670 -1.1597 -3.7052
  143OSM   H15C15647   6.168   3.392   6.158 -0.0213  1.0493 -0.9990
  143OSM    C1415648   6.391   3.446   5.923 -0.4940 -0.2523  0.0625
  143OSM   H14A15649   6.485   3.483   5.962 -0.5864  1.4351 -1.1944
  143OSM   H14B15650   6.399   3.469   5.818  0.5834  1.6427  0.4943
  143OSM   H14C15651   6.402   3.339   5.919 -2.3539 -0.4224 -2.5088
  143OSM    C1315652   6.163   3.412   5.912 -0.2528 -0.2838  0.3369
  143OSM   H13A15653   6.155   3.457   5.814  3.3760 -0.2119 -0.0397
  143OSM   H13B15654   6.068   3.414   5.964 -1.2880  0.5797 -1.4824
  143OSM   H13C15655   6.196   3.310   5.899  3.3939  0.7659  0.2719
  143OSM    C1215656   6.242   3.631   6.004  0.3909  0.2748 -0.3450
  143OSM   H12A15657   6.250   3.685   5.911  2.3247 -0.7173 -0.8023
  143OSM   H12B15658   6.329   3.661   6.060  0.2542  1.5513 -0.7852
  143OSM    C1115659   6.121   3.679   6.083  0.7765  0.6054 -0.1941
  143OSM   H11A15660   6.037   3.613   6.051  0.6293  0.7518 -0.1096
  143OSM   H11B15661   6.097   3.782   6.050  0.0075  1.3089  2.4003
  143OSM      P15662   6.232   3.766   6.298  0.0150  0.2771 -0.4545
  143OSM    O1315663   6.353   3.687   6.317  0.7290  1.1714 -0.0916
  143OSM    O1415664   6.241   3.892   6.224 -0.2137 -0.2836 -0.1905
  143OSM    O1115665   6.178   3.798   6.444  0.0722 -0.0152 -0.0845
  143OSM    O1215666   6.131   3.671   6.227 -0.5050 -0.2813 -0.2168
  143OSM    C1S15667   6.108   3.694   6.518 -0.1930  0.1882  0.3489
  143OSM    H1S15668   6.129   3.592   6.479  0.8617  0.0703  1.1826
  143OSM    H1T15669   5.998   3.714   6.518  0.0882  1.8731  1.0421
  143OSM     NF15670   6.086   3.582   6.733  0.1010  0.8009 -0.4719
  143OSM    HNF15671   5.998   3.599   6.775 -0.0275 -0.6016 -0.1069
  143OSM    C2S15672   6.146   3.694   6.669 -0.0501  0.0941  0.3033
  143OSM    H2S15673   6.257   3.686   6.669  0.3465  3.7334  2.0576
  143OSM    C3S15674   6.092   3.826   6.732  0.7209  0.0952 -0.1596
  143OSM    H3S15675   5.982   3.819   6.718  0.3138 -2.2381  2.9857
  143OSM     O315676   6.133   3.940   6.666  0.3747  0.3020  0.1149
  143OSM    HO315677   6.162   3.891   6.589 -0.8946 -0.7133  0.2508
  143OSM    C4S15678   6.143   3.836   6.872  0.5644 -0.0548 -0.3100
  143OSM    H4S15679   6.253   3.848   6.876  0.6198 -0.4827 -0.4599
  143OSM    C5S15680   6.072   3.816   6.980  1.0072 -0.3794  0.2292
  143OSM    H5S15681   5.968   3.782   6.973  1.0920 -0.8312  0.9947
  143OSM    C6S15682   6.127   3.824   7.123  0.2114  0.5823 -0.5305
  143OSM    H6S15683   6.230   3.864   7.116  0.4449  0.3735  1.3834
  143OSM    H6T15684   6.127   3.722   7.167  1.2584  1.8137  2.5925
  143OSM    C7S15685   6.036   3.916   7.206 -0.1913 -0.0329 -0.0227
  143OSM    H7S15686   5.938   3.865   7.214  0.0111 -0.8062 -1.8953
  143OSM    H7T15687   6.018   4.007   7.145  1.3207 -0.2764 -0.8918
  143OSM    C8S15688   6.098   3.945   7.342  0.2786  0.5447 -0.3359
  143OSM    H8S15689   6.191   4.004   7.327  1.2375 -0.9497 -0.4620
  143OSM    H8T15690   6.137   3.848   7.380  0.0308  0.4876 -0.2244
  143OSM    C9S15691   6.010   4.022   7.445  0.1434 -0.2239 -0.9253
  143OSM    H9S15692   5.907   3.982   7.455  0.1365 -0.3200 -1.3417
  143OSM    H9T15693   6.010   4.128   7.412  0.2060 -0.0612 -0.4086
  143OSM   C10S15694   6.071   4.019   7.591  1.1822 -0.4327  0.6274
  143OSM   H10S15695   6.180   4.038   7.592  0.8650  2.4045 -2.2004
  143OSM   H10T15696   6.056   3.916   7.628 -1.4729 -0.2388  0.3143
  143OSM   C11S15697   5.987   4.109   7.689 -0.5609 -0.3990  0.7196
  143OSM   H11S15698   5.883   4.074   7.668 -0.3584  0.2641 -1.6645
  143OSM   H11T15699   5.988   4.211   7.645 -0.6002 -0.8806 -0.4423
  143OSM   C12S15700   6.028   4.107   7.836 -0.0731  0.0212 -0.2898
  143OSM   H12S15701   6.107   4.183   7.854 -0.4668  0.8669 -2.0084
  143OSM   H12T15702   6.083   4.011   7.848  0.6197  0.4491  0.0254
  143OSM   C13S15703   5.922   4.101   7.946  0.1961 -0.1447  1.0029
  143OSM   H13S15704   5.875   4.001   7.932  1.0114 -0.9252  3.3016
  143OSM   H13T15705   5.863   4.194   7.932  1.2413  0.5321  0.9700
  143OSM   C14S15706   5.967   4.107   8.092 -0.6397 -0.6311  0.4364
  143OSM   H14S15707   5.874   4.123   8.152 -3.0082 -0.9783 -2.8669
  143OSM   H14T15708   6.023   4.203   8.087  5.5433 -3.6545  2.2565
  143OSM   C15S15709   6.057   3.993   8.145 -0.2889  0.0864 -0.0602
  143OSM   H15S15710   6.147   3.988   8.081 -1.3468 -1.3022 -1.5389
  143OSM   H15T15711   5.994   3.902   8.131 -2.2331  1.1957  1.1035
  143OSM   C16S15712   6.094   3.998   8.298 -0.1647 -0.5948  0.0507
  143OSM   H16S15713   6.008   3.965   8.360 -0.2061 -0.7701 -0.1005
  143OSM   H16T15714   6.122   4.098   8.337  0.6334 -1.3787  1.6090
  143OSM   C17S15715   6.217   3.908   8.330 -0.4391  0.0707 -1.5444
  143OSM   H17S15716   6.252   3.934   8.432 -1.0501 -0.9492 -1.0699
  143OSM   H17T15717   6.298   3.929   8.257  0.9973 -0.4535 -0.1534
  143OSM   C18S15718   6.187   3.758   8.309 -0.2729 -0.3635  0.3384
  143OSM   H18S15719   6.090   3.726   8.352  0.4395 -0.5460  1.8668
  143OSM   H18T15720   6.263   3.693   8.359 -0.1769 -0.1811  0.4322
  143OSM   H18U15721   6.189   3.726   8.203 -1.0534 -2.1752  0.8302
  143OSM    C1F15722   6.113   3.455   6.710 -0.2384 -0.4066  0.5082
  143OSM     OF15723   6.208   3.433   6.634 -0.5704  0.0354  0.3251
  143OSM    C2F15724   6.027   3.342   6.770  0.0826 -0.1444  0.1362
  143OSM    H2F15725   5.964   3.305   6.686 -0.5742  2.8071 -0.7666
  143OSM    H2G15726   5.965   3.374   6.856  0.8294 -1.0766  1.0474
  143OSM    C3F15727   6.116   3.226   6.827  0.0490  0.0628  0.0497
  143OSM    H3F15728   6.187   3.260   6.905  1.1822  0.4651 -1.1070
  143OSM    H3G15729   6.180   3.185   6.745 -0.4982 -0.0614 -0.3200
  143OSM    C4F15730   6.031   3.110   6.885 -0.5620  0.7409 -0.6916
  143OSM    H4F15731   5.954   3.092   6.806  1.4615 -2.4701 -2.1294
  143OSM    H4G15732   5.981   3.138   6.980  1.1206 -0.6713  0.6907
  143OSM    C5F15733   6.113   2.975   6.896 -0.6943 -0.4781 -0.0545
  143OSM    H5F15734   6.180   2.983   6.984 -0.1813 -0.3979 -0.4438
  143OSM    H5G15735   6.166   2.965   6.799  1.2445  0.3313  0.8711
  143OSM    C6F15736   6.026   2.853   6.914 -0.5398  0.1066  0.3230
  143OSM    H6F15737   5.975   2.817   6.822 -3.2293  0.4612  1.5782
  143OSM    H6G15738   5.945   2.899   6.975  0.3265  0.6190  1.1129
  143OSM    C7F15739   6.094   2.739   6.995 -0.3906 -0.3078  0.5541
  143OSM    H7F15740   6.156   2.797   7.066  1.5651  2.4773 -3.1056
  143OSM    H7G15741   6.153   2.677   6.924  0.4700  0.2569  0.7739
  143OSM    C8F15742   6.006   2.647   7.074  0.7685 -0.3778  0.3319
  143OSM    H8F15743   6.066   2.571   7.130 -0.1022 -1.8721 -0.6817
  143OSM    H8G15744   5.938   2.600   7.000 -0.5066  1.0771  0.5475
  143OSM    C9F15745   5.925   2.718   7.181  0.6327 -0.6832  0.8357
  143OSM    H9F15746   5.831   2.761   7.144  0.6261 -0.9195  0.5705
  143OSM   C10F15747   5.974   2.759   7.305  0.4158  0.8324 -0.2610
  143OSM   H10F15748   5.919   2.809   7.386  1.5685 -1.9331  2.4429
  143OSM   C11F15749   6.112   2.731   7.356  0.0978  0.2122  0.6057
  143OSM   H11F15750   6.165   2.829   7.362 -1.1264  0.9417 -0.0050
  143OSM   H11G15751   6.163   2.666   7.282  2.4741  1.6226  0.8814
  143OSM   C12F15752   6.104   2.656   7.486 -0.6767  0.2200 -0.1335
  143OSM   H12F15753   6.207   2.631   7.517  0.5860  1.3259 -3.1093
  143OSM   H12G15754   6.034   2.570   7.479  0.5226 -0.7496 -0.4181
  143OSM   C13F15755   6.042   2.747   7.595  0.0216 -0.1068  0.5775
  143OSM   H13F15756   5.932   2.754   7.583  0.3174  4.7368 -1.4843
  143OSM   H13G15757   6.070   2.850   7.565  1.5074 -1.4220 -3.1751
  143OSM   C14F15758   6.079   2.700   7.735  0.2929 -0.4019  0.3216
  143OSM   H14F15759   6.185   2.666   7.731  0.7681  0.7124  2.3167
  143OSM   H14G15760   6.012   2.619   7.770 -0.7501  0.3695  0.1350
  143OSM   C15F15761   6.085   2.814   7.841 -0.1714 -0.2213  0.4087
  143OSM   H15F15762   5.979   2.850   7.840 -0.0672  0.0937  0.5865
  143OSM   H15G15763   6.149   2.899   7.810 -0.9638  1.1577  2.3402
  143OSM   C16F15764   6.111   2.759   7.987 -0.2723 -0.0694  0.6793
  143OSM   H16F15765   6.180   2.673   7.995 -0.2654 -0.0443  0.8791
  143OSM   H16G15766   6.009   2.740   8.026 -0.5644  0.8865  0.4193
  143OSM   C17F15767   6.145   2.867   8.081 -0.2280 -0.0491 -0.1206
  143OSM   H17F15768   6.081   2.956   8.066  1.1586  1.5699  2.6770
  143OSM   H17G15769   6.251   2.895   8.060  0.3120  0.1854  2.5118
  143OSM   C18F15770   6.150   2.823   8.227  0.0470  0.5475  0.0548
  143OSM   H18F15771   6.178   2.912   8.286  1.3093 -0.4000  0.9544
  143OSM   H18G15772   6.242   2.764   8.249  0.1604  0.1098 -1.4292
  143OSM   H18H15773   6.055   2.776   8.261  0.1764 -0.6959 -1.1968
  144OSM      N15774   5.423   3.876   6.378  0.0222 -0.4434  0.8737
  144OSM    C1515775   5.533   3.976   6.370  0.0301  0.0620  0.0351
  144OSM   H15A15776   5.521   4.075   6.412 -0.8684  0.5944 -1.3940
  144OSM   H15B15777   5.577   3.994   6.273  1.1681  0.5380  0.6148
  144OSM   H15C15778   5.617   3.928   6.419  0.1838 -0.1821 -0.4621
  144OSM    C1415779   5.459   3.755   6.296  0.3768 -0.6207 -0.4678
  144OSM   H14A15780   5.559   3.723   6.322  0.3757 -0.9868 -0.8953
  144OSM   H14B15781   5.461   3.780   6.191 -1.6235  1.6680 -0.0380
  144OSM   H14C15782   5.385   3.679   6.316 -0.0507  0.2218  1.3809
  144OSM    C1315783   5.425   3.836   6.523  0.2555 -0.1970 -0.7798
  144OSM   H13A15784   5.522   3.798   6.551  0.1514 -0.5023 -0.8379
  144OSM   H13B15785   5.349   3.765   6.550  2.3653 -1.3442  2.8431
  144OSM   H13C15786   5.403   3.915   6.594 -2.3176 -1.9493  0.5064
  144OSM    C1215787   5.289   3.928   6.338  0.7246 -0.3173  0.5347
  144OSM   H12A15788   5.289   3.949   6.232  2.2564 -1.0971  0.3569
  144OSM   H12B15789   5.267   4.021   6.390  0.9159 -0.4226  0.8052
  144OSM    C1115790   5.165   3.833   6.357 -0.4969 -0.7207 -0.4177
  144OSM   H11A15791   5.068   3.881   6.332  0.0218  0.6535  0.0828
  144OSM   H11B15792   5.155   3.816   6.466 -4.1319  1.2554 -0.3008
  144OSM      P15793   5.097   3.582   6.324  0.2679  0.0295  0.0675
  144OSM    O1315794   4.959   3.616   6.285  0.1580  0.2816 -0.4666
  144OSM    O1415795   5.167   3.473   6.255  0.2057  1.1507 -0.2140
  144OSM    O1115796   5.107   3.561   6.480 -0.0753  0.6248  0.4535
  144OSM    O1215797   5.188   3.707   6.299  0.0096  0.5186  0.4199
  144OSM    C1S15798   4.998   3.567   6.567  0.7727 -0.3905 -0.3557
  144OSM    H1S15799   4.926   3.485   6.546  1.1928 -0.7567 -0.3839
  144OSM    H1T15800   4.946   3.665   6.564  1.0338 -0.1886  1.1906
  144OSM     NF15801   4.910   3.576   6.796  1.1441  0.5029  0.5787
  144OSM    HNF15802   4.898   3.660   6.849 -6.1272 -0.7744  2.0256
  144OSM    C2S15803   5.030   3.543   6.717  0.0010  0.1565 -0.0972
  144OSM    H2S15804   5.052   3.435   6.728  0.1374 -0.1745 -2.8566
  144OSM    C3S15805   5.161   3.620   6.756  0.8109  0.4894  0.4280
  144OSM    H3S15806   5.151   3.730   6.742 -0.1367  0.0740 -2.9650
  144OSM     O315807   5.273   3.589   6.675  0.0309  0.1922 -0.2342
  144OSM    HO315808   5.229   3.544   6.602  2.1556 -0.6726 -1.0425
  144OSM    C4S15809   5.187   3.599   6.901 -0.5535 -0.8399 -0.2712
  144OSM    H4S15810   5.131   3.677   6.955 -0.0298  0.3412 -1.3928
  144OSM    C5S15811   5.278   3.525   6.966  0.3893 -0.0778  0.6583
  144OSM    H5S15812   5.336   3.458   6.902 -2.6996 -0.8127 -1.6293
  144OSM    C6S15813   5.293   3.505   7.110  0.3638 -0.0819 -0.7073
  144OSM    H6S15814   5.386   3.555   7.144  1.1592 -1.4418 -0.8122
  144OSM    H6T15815   5.312   3.398   7.131  0.8476  0.0935 -0.2038
  144OSM    C7S15816   5.174   3.547   7.206 -0.3213  0.0469 -0.2349
  144OSM    H7S15817   5.078   3.510   7.166 -0.6703  1.3575 -0.6606
  144OSM    H7T15818   5.172   3.658   7.217  0.3208 -0.0546  1.1769
  144OSM    C8S15819   5.189   3.488   7.349 -0.4954 -0.4871 -0.1413
  144OSM    H8S15820   5.288   3.509   7.395 -0.7993  1.4204 -0.2827
  144OSM    H8T15821   5.163   3.380   7.349 -1.4310 -0.3071  1.9969
  144OSM    C9S15822   5.081   3.545   7.445 -0.0288 -0.4297 -0.7276
  144OSM    H9S15823   4.977   3.537   7.405  0.3834 -0.5858 -1.7928
  144OSM    H9T15824   5.094   3.654   7.460 -1.9808 -0.2301 -0.2552
  144OSM   C10S15825   5.079   3.479   7.586 -0.0704  0.0630  0.3883
  144OSM   H10S15826   5.181   3.497   7.624  0.0943  2.4026 -0.9994
  144OSM   H10T15827   5.059   3.371   7.567 -3.1565  0.6707 -0.3356
  144OSM   C11S15828   4.966   3.539   7.676 -0.0269 -0.4777 -0.2720
  144OSM   H11S15829   4.974   3.474   7.767  2.2466 -0.4819 -0.4345
  144OSM   H11T15830   4.860   3.535   7.642 -0.0744  0.4901 -0.2493
  144OSM   C12S15831   4.997   3.682   7.715  0.0688 -0.7745  0.4773
  144OSM   H12S15832   4.960   3.755   7.640 -0.8359  0.4004  1.9992
  144OSM   H12T15833   5.107   3.690   7.721  0.0688 -0.9022  0.6535
  144OSM   C13S15834   4.920   3.716   7.853 -0.1394 -0.0253  0.2537
  144OSM   H13S15835   4.951   3.636   7.923  1.5891 -0.4559 -0.9350
  144OSM   H13T15836   4.812   3.712   7.825  0.4561  0.5267 -2.4001
  144OSM   C14S15837   4.957   3.857   7.908 -0.2426  1.0838  0.7899
  144OSM   H14S15838   4.944   3.933   7.829  2.2841  1.0349  0.2412
  144OSM   H14T15839   5.064   3.870   7.935 -0.7284  2.1522  2.3886
  144OSM   C15S15840   4.874   3.893   8.034  0.4022  0.3725 -0.4954
  144OSM   H15S15841   4.771   3.852   8.025  1.0677 -1.6694  0.6307
  144OSM   H15T15842   4.861   4.002   8.052 -1.1547  0.8078 -3.5300
  144OSM   C16S15843   4.930   3.827   8.156 -0.3837 -0.0958  0.2925
  144OSM   H16S15844   5.028   3.876   8.173 -0.4274  1.5066 -3.2335
  144OSM   H16T15845   4.933   3.720   8.126 -2.6233 -0.4040  0.9223
  144OSM   C17S15846   4.850   3.840   8.292  0.2976  0.7281  0.4001
  144OSM   H17S15847   4.741   3.820   8.285  0.1485  1.4645  0.5327
  144OSM   H17T15848   4.852   3.944   8.331 -0.3859  0.3072  1.6193
  144OSM   C18S15849   4.916   3.753   8.391  0.0582  0.3950 -0.0528
  144OSM   H18S15850   4.899   3.646   8.368  1.5320  0.1514 -0.1092
  144OSM   H18T15851   4.879   3.780   8.492 -0.9785  2.1663 -0.8571
  144OSM   H18U15852   5.025   3.772   8.396 -0.2399  2.0558  1.1714
  144OSM    C1F15853   4.809   3.484   6.787 -0.6511 -0.5887  0.0375
  144OSM     OF15854   4.822   3.384   6.712 -0.0008  0.0221 -0.1488
  144OSM    C2F15855   4.688   3.509   6.870 -0.2915 -0.2922  0.3909
  144OSM    H2F15856   4.600   3.531   6.806 -0.0480  0.9702  0.4586
  144OSM    H2G15857   4.710   3.603   6.925  1.0066  0.0482 -0.6446
  144OSM    C3F15858   4.654   3.402   6.967 -0.6468  0.0964  0.0334
  144OSM    H3F15859   4.669   3.304   6.916  1.7905  0.9143 -0.9449
  144OSM    H3G15860   4.547   3.418   6.991 -1.0204  3.9359 -3.1072
  144OSM    C4F15861   4.749   3.399   7.093  0.0138 -0.5871 -0.2677
  144OSM    H4F15862   4.744   3.495   7.149 -1.6746 -0.3740 -0.7278
  144OSM    H4G15863   4.849   3.380   7.048  0.3956 -0.9191  0.6938
  144OSM    C5F15864   4.704   3.291   7.182  0.0744  0.2672  0.8071
  144OSM    H5F15865   4.678   3.197   7.129  1.0961  0.2804  0.2410
  144OSM    H5G15866   4.619   3.319   7.248 -3.1448 -1.7435 -2.1705
  144OSM    C6F15867   4.814   3.243   7.272  0.1405  0.3374 -0.9452
  144OSM    H6F15868   4.855   3.324   7.336 -2.7456  1.7349 -0.6961
  144OSM    H6G15869   4.894   3.201   7.206  0.3269 -0.5734 -0.1676
  144OSM    C7F15870   4.764   3.142   7.383 -0.3663  0.0509  0.1151
  144OSM    H7F15871   4.718   3.068   7.314 -2.4142  2.6393 -1.4821
  144OSM    H7G15872   4.683   3.194   7.437 -1.5197 -0.3667 -1.1750
  144OSM    C8F15873   4.868   3.097   7.485  0.5490  0.8498  0.0146
  144OSM    H8F15874   4.920   3.192   7.509  0.4985  0.6752  0.8518
  144OSM    H8G15875   4.940   3.032   7.430  0.2413 -0.2135  0.8214
  144OSM    C9F15876   4.798   3.024   7.603  0.1933  0.2638  0.4349
  144OSM    H9F15877   4.750   2.927   7.585 -1.7328  0.6275  3.0877
  144OSM   C10F15878   4.796   3.063   7.733  0.1395  0.3529  0.3025
  144OSM   H10F15879   4.758   2.991   7.807  0.9050  1.8751  2.2657
  144OSM   C11F15880   4.848   3.193   7.784  0.3246 -0.6875  0.0100
  144OSM   H11F15881   4.761   3.240   7.834 -1.3522 -0.4873 -2.8867
  144OSM   H11G15882   4.875   3.268   7.706 -3.0168 -0.0731 -0.7157
  144OSM   C12F15883   4.964   3.169   7.883 -1.0306 -0.8437  0.1185
  144OSM   H12F15884   5.026   3.260   7.870 -0.8835 -0.7641  1.2616
  144OSM   H12G15885   5.028   3.083   7.854  0.9948 -0.2698  2.4907
  144OSM   C13F15886   4.930   3.158   8.031 -0.0078  0.8229 -0.1674
  144OSM   H13F15887   4.870   3.065   8.044  2.7303 -0.9904  0.4192
  144OSM   H13G15888   4.867   3.241   8.069 -1.0100 -0.3414  0.7957
  144OSM   C14F15889   5.053   3.141   8.125  0.0400 -0.0425 -0.3455
  144OSM   H14F15890   5.020   3.129   8.231 -0.5155 -5.2998 -0.8313
  144OSM   H14G15891   5.111   3.233   8.106  0.9313 -0.4283  0.4358
  144OSM   C15F15892   5.139   3.019   8.091 -0.1757  0.6552  0.3714
  144OSM   H15F15893   5.205   3.047   8.007 -0.0587  3.1253  1.1886
  144OSM   H15G15894   5.076   2.931   8.066  0.9340 -0.1192  0.2161
  144OSM   C16F15895   5.239   2.954   8.196  0.3191 -0.1076  0.1144
  144OSM   H16F15896   5.304   3.034   8.237 -1.1827  0.0730  2.3230
  144OSM   H16G15897   5.294   2.875   8.141 -1.0030 -0.6281 -0.5064
  144OSM   C17F15898   5.174   2.888   8.324 -0.1894  0.3654  0.0227
  144OSM   H17F15899   5.128   2.965   8.389  2.8062  1.9730  0.3972
  144OSM   H17G15900   5.266   2.859   8.379  1.4254  0.8857 -2.2685
  144OSM   C18F15901   5.067   2.773   8.301  0.3515 -0.1436  0.2676
  144OSM   H18F15902   5.036   2.745   8.404  0.8512 -0.0343  0.4529
  144OSM   H18G15903   5.114   2.701   8.230  0.5460  0.6324 -0.4092
  144OSM   H18H15904   4.981   2.824   8.254 -0.8405 -1.0201  1.4482
  145SAPE     N15905   1.616   5.475  10.667 -0.5580  0.4546 -0.3446
  145SAPE   HN115906   1.690   5.402  10.668 -1.3196 -0.3696  1.9093
  145SAPE   HN215907   1.528   5.436  10.705 -0.3915 -0.4029 -0.8266
  145SAPE   HN315908   1.605   5.519  10.573 -1.5449 -0.8671 -0.8714
  145SAPE   C1215909   1.663   5.580  10.765  1.1168 -0.3316 -0.1754
  145SAPE  H12A15910   1.730   5.533  10.840 -0.3544 -1.7644  0.2938
  145SAPE  H12B15911   1.571   5.609  10.820  1.0127 -3.0163  1.2540
  145SAPE   C1115912   1.723   5.699  10.691  0.1247 -0.5999  0.1578
  145SAPE  H11A15913   1.779   5.749  10.773 -1.5317 -0.8110  1.4991
  145SAPE  H11B15914   1.647   5.776  10.665 -0.4180 -0.4475  2.0352
  145SAPE     P15915   1.950   5.618  10.597 -0.0875 -0.3206 -0.0773
  145SAPE   O1315916   2.045   5.717  10.648  0.2088 -0.1442 -0.2808
  145SAPE   O1415917   1.945   5.484  10.669 -0.6523  0.0349  0.6799
  145SAPE   O1215918   1.806   5.671  10.585  0.0062 -0.0060  0.5259
  145SAPE   O1115919   1.983   5.581  10.444  0.3460 -0.3685  0.3188
  145SAPE    C115920   1.994   5.692  10.352  0.4351 -0.3948 -0.2496
  145SAPE    HA15921   1.893   5.735  10.331 -0.0283 -1.2965  0.0679
  145SAPE    HB15922   2.065   5.770  10.387  0.5317 -1.0058  0.9679
  145SAPE    C215923   2.063   5.638  10.224  0.3187  0.2329 -0.3680
  145SAPE    HS15924   2.082   5.719  10.150 -0.1218  0.4596 -0.2383
  145SAPE   O2115925   2.003   5.517  10.171  0.4724 -0.3486 -0.1632
  145SAPE   C2115926   1.871   5.501  10.171 -0.1678 -0.0396  0.6024
  145SAPE   O2215927   1.786   5.583  10.195  0.0145  0.1422  0.7168
  145SAPE   C2215928   1.840   5.366  10.119 -0.3740  0.1919 -0.0994
  145SAPE   H2R15929   1.931   5.302  10.125 -1.5491 -1.4541  1.0944
  145SAPE   H2S15930   1.767   5.322  10.191  1.8814 -4.6624 -0.3412
  145SAPE    C315931   2.213   5.595  10.268  0.3986  0.1461 -0.2620
  145SAPE    HX15932   2.217   5.523  10.352  0.7636  0.6632  0.1728
  145SAPE    HY15933   2.270   5.685  10.300  1.9287 -0.2338 -1.8116
  145SAPE   O3115934   2.286   5.539  10.161  0.2467 -0.3007 -0.0683
  145SAPE   C3115935   2.278   5.408  10.138  0.4626 -0.2770  0.2344
  145SAPE   O3215936   2.225   5.325  10.214 -0.1708 -0.0252  0.3711
  145SAPE   C3215937   2.339   5.375   9.998 -0.0764 -0.2259 -0.6733
  145SAPE   H2X15938   2.447   5.399  10.003 -0.3448  1.6292 -2.3424
  145SAPE   H2Y15939   2.288   5.449   9.932  0.4644  0.9630  0.1947
  145SAPE   C2315940   1.779   5.368   9.972 -0.5922 -0.7737 -0.9370
  145SAPE   H3R15941   1.869   5.405   9.918 -0.4753  1.0590  0.3728
  145SAPE   H3S15942   1.695   5.440   9.975 -0.7880 -1.0011  2.0115
  145SAPE   C2415943   1.728   5.234   9.916  0.6128 -0.4362 -0.4553
  145SAPE   H4R15944   1.792   5.153   9.956 -1.4519 -1.6566  0.5280
  145SAPE   H4S15945   1.739   5.236   9.805  0.3163  0.1463 -0.4800
  145SAPE   C2515946   1.586   5.209   9.950  0.8088  0.1558 -0.2268
  145SAPE   H5R15947   1.569   5.193  10.058  1.2900  3.8649  0.5306
  145SAPE   C2615948   1.485   5.200   9.868  0.6598 -0.0688  1.2504
  145SAPE   H6R15949   1.383   5.202   9.909 -0.0530  0.3606 -0.4190
  145SAPE   C2715950   1.484   5.220   9.717 -0.2053  0.8729  0.2661
  145SAPE   H7R15951   1.552   5.303   9.690  0.2838  0.5706  0.5416
  145SAPE   H7S15952   1.386   5.254   9.678  1.3743  1.5207 -3.5974
  145SAPE   C2815953   1.513   5.088   9.635 -0.3921 -0.0099 -0.6790
  145SAPE   H8R15954   1.471   4.997   9.680 -0.0941  0.7936  1.3276
  145SAPE   C2915955   1.595   5.087   9.529  0.0523  0.3011 -0.2422
  145SAPE   H9R15956   1.617   4.994   9.475 -0.6867  0.2503 -0.4632
  145SAPE  C21015957   1.656   5.208   9.458 -0.0225 -0.1333 -0.4914
  145SAPE  H10R15958   1.748   5.161   9.416 -0.8109 -3.0921  0.7955
  145SAPE  H10S15959   1.680   5.292   9.527  2.4691 -0.5364 -0.7636
  145SAPE  C21115960   1.569   5.256   9.347 -0.3513  0.0451  0.3763
  145SAPE  H11R15961   1.464   5.279   9.369 -0.4914  1.2590 -1.4004
  145SAPE  C21215962   1.613   5.281   9.222 -0.3620  0.2653  0.6468
  145SAPE  H12R15963   1.544   5.331   9.153 -1.3005 -0.2832  1.1757
  145SAPE  C21315964   1.754   5.270   9.159 -0.1851  0.2003 -0.7176
  145SAPE  H13R15965   1.728   5.218   9.064 -0.3779 -0.8953 -0.0822
  145SAPE  H13S15966   1.819   5.195   9.209 -2.6163 -2.0300 -0.6734
  145SAPE  C21415967   1.836   5.399   9.136 -0.0813  0.4884  0.4859
  145SAPE  H14R15968   1.812   5.480   9.207  0.8446  0.3600  0.9622
  145SAPE  C21515969   1.925   5.416   9.037 -0.0930  0.1419 -0.1122
  145SAPE  H15R15970   1.972   5.515   9.025 -3.0162  1.5006 -1.4760
  145SAPE  C21615971   1.961   5.310   8.940  0.0494  0.5874 -0.1480
  145SAPE  H16R15972   1.912   5.307   8.841  1.1606 -0.2210 -0.7046
  145SAPE  H16S15973   1.921   5.214   8.979  0.9671  0.1276 -0.3149
  145SAPE  C21715974   2.111   5.309   8.932  0.2587  0.2220 -0.6828
  145SAPE  H17R15975   2.133   5.213   8.880  0.7603 -0.1777  0.2536
  145SAPE  H17S15976   2.166   5.298   9.028  0.8986 -1.2933 -1.1843
  145SAPE  C21815977   2.169   5.413   8.849 -0.6666 -0.7959 -0.2812
  145SAPE  H18R15978   2.273   5.380   8.829  0.4712 -0.8266  4.5909
  145SAPE  H18S15979   2.167   5.506   8.910 -3.8709 -0.9001 -0.0760
  145SAPE  C21915980   2.099   5.430   8.709  0.5846  0.0697 -0.1847
  145SAPE  H19R15981   2.003   5.483   8.727 -0.0632 -0.8081 -0.9721
  145SAPE  H19S15982   2.077   5.331   8.664  2.8890 -0.6927  0.2472
  145SAPE  C22015983   2.184   5.507   8.606  0.4610 -0.0890  0.8337
  145SAPE  H20R15984   2.287   5.465   8.604  0.4089 -0.1952 -0.1719
  145SAPE  H20S15985   2.197   5.614   8.631  0.1214  0.7984 -2.4188
  145SAPE  H20T15986   2.142   5.500   8.503 -3.1481  1.6459  2.0305
  145SAPE   C3315987   2.305   5.229   9.954  0.4803 -0.2041 -0.2311
  145SAPE   H3X15988   2.317   5.158  10.038 -0.5246  0.1225  0.2145
  145SAPE   H3Y15989   2.385   5.197   9.884 -1.9494  2.0872 -4.4915
  145SAPE   C3415990   2.173   5.212   9.884  0.6255  0.1593  0.7247
  145SAPE   H4X15991   2.165   5.305   9.824  0.6554  0.9399  1.8900
  145SAPE   H4Y15992   2.094   5.229   9.961  0.2199  1.3207  0.0727
  145SAPE   C3515993   2.152   5.086   9.799  0.9360  0.5293  0.6448
  145SAPE   H5X15994   2.147   4.994   9.861  1.1798  0.8969  1.2298
  145SAPE   H5Y15995   2.229   5.075   9.720  1.4272  2.7115  0.7334
  145SAPE   C3615996   2.023   5.091   9.722 -1.0432  0.1478  1.6283
  145SAPE   H6X15997   2.000   5.193   9.682 -0.1099 -0.3950 -0.3997
  145SAPE   H6Y15998   1.936   5.066   9.786 -1.2705 -1.4095  0.7599
  145SAPE   C3715999   2.023   4.986   9.609 -0.2177 -0.3406 -0.1012
  145SAPE   H7X16000   1.923   4.976   9.562  0.5614 -1.4452 -1.6046
  145SAPE   H7Y16001   2.043   4.883   9.646 -0.6552 -1.0638 -1.7828
  145SAPE   C3816002   2.132   5.003   9.498 -0.4963  0.2813 -0.1448
  145SAPE   H8X16003   2.235   4.990   9.539  0.6693  1.9496 -2.3365
  145SAPE   H8Y16004   2.124   5.107   9.460  1.1082  0.0656 -1.1816
  145SAPE   C3916005   2.104   4.892   9.389  0.1828 -0.7599 -0.2330
  145SAPE   H9X16006   2.019   4.937   9.332  1.0747 -1.2465 -2.0432
  145SAPE   H9Y16007   2.064   4.793   9.421  0.5889 -0.4818  1.1982
  145SAPE  C31016008   2.210   4.867   9.282 -0.5187  0.9289  0.5033
  145SAPE  H10X16009   2.180   4.776   9.227  1.0411  1.0588 -0.6297
  145SAPE  H10Y16010   2.306   4.837   9.329 -0.9346 -4.1272 -1.2729
  145SAPE  C31116011   2.227   4.985   9.180  0.0202  0.0094 -0.1826
  145SAPE  H11X16012   2.241   5.079   9.238 -1.6210 -0.1234  0.4901
  145SAPE  H11Y16013   2.132   4.992   9.123 -0.2702 -1.9744 -0.0155
  145SAPE  C31216014   2.352   4.970   9.095  0.2302  0.1671 -0.8193
  145SAPE  H12X16015   2.356   4.866   9.057  1.5902  0.1587 -0.7212
  145SAPE  H12Y16016   2.440   4.974   9.164 -1.5191 -0.1485  1.5515
  145SAPE  C31316017   2.352   5.073   8.986  0.5208 -0.3754 -0.7547
  145SAPE  H13X16018   2.347   5.179   9.018  0.9632 -0.1476 -1.3920
  145SAPE  H13Y16019   2.269   5.051   8.915  1.0746  0.3747 -1.6744
  145SAPE  C31416020   2.477   5.063   8.894 -0.5864  0.5772  0.0044
  145SAPE  H14X16021   2.472   4.971   8.832 -0.1755  1.5546 -1.5319
  145SAPE  H14Y16022   2.573   5.070   8.950 -1.0822  0.0175  0.9552
  145SAPE  C31516023   2.483   5.179   8.791  0.8397 -0.3147 -0.1860
  145SAPE  H15X16024   2.478   5.278   8.840 -0.8531  0.0851 -1.1270
  145SAPE  H15Y16025   2.404   5.163   8.715 -0.0463  1.4084  0.3436
  145SAPE  C31616026   2.612   5.185   8.708 -0.1831  0.0123  0.2040
  145SAPE  H16X16027   2.627   5.085   8.662  0.0731  1.3795 -2.9334
  145SAPE  H16Y16028   2.697   5.205   8.776 -0.7251  0.5154  0.7559
  145SAPE  C31716029   2.595   5.295   8.593 -0.0174 -0.4460 -0.0270
  145SAPE  H17X16030   2.580   5.392   8.646 -0.5791 -1.0571  0.9905
  145SAPE  H17Y16031   2.505   5.259   8.539  0.1787 -1.0380  0.0288
  145SAPE  C31816032   2.714   5.311   8.495  0.2081 -0.2902  0.2289
  145SAPE  H18X16033   2.682   5.362   8.401 -1.4289  0.0480  0.9354
  145SAPE  H18Y16034   2.749   5.208   8.473  1.0914 -0.1442  0.8989
  145SAPE  H18Z16035   2.800   5.361   8.543 -0.1628 -1.4804  2.2398
  146SAPE     N16036   2.507   1.154  10.827 -0.1302 -0.4382  0.8279
  146SAPE   HN116037   2.486   1.062  10.870 -0.1176 -0.6045  0.4874
  146SAPE   HN216038   2.570   1.199  10.896  0.7508  1.9602 -1.3593
  146SAPE   HN316039   2.411   1.192  10.827 -0.2545 -0.7078 -0.4177
  146SAPE   C1216040   2.563   1.125  10.702  0.7700  0.5830  0.4730
  146SAPE  H12A16041   2.672   1.113  10.715  0.6243  0.0258  1.1815
  146SAPE  H12B16042   2.541   1.217  10.643 -0.2541  1.0992  1.6221
  146SAPE   C1116043   2.470   1.021  10.629 -0.1066  0.2102  0.9831
  146SAPE  H11A16044   2.500   0.993  10.526 -0.4078 -1.1271  1.2322
  146SAPE  H11B16045   2.376   1.079  10.620 -1.3192 -1.5392  1.8718
  146SAPE     P16046   2.339   0.801  10.687  0.6429  0.0068  0.1829
  146SAPE   O1316047   2.367   0.678  10.772  0.5428 -0.0972  0.1741
  146SAPE   O1416048   2.212   0.869  10.708 -0.4316 -0.4189  0.6808
  146SAPE   O1216049   2.454   0.904  10.710  0.4485 -0.5981 -0.0226
  146SAPE   O1116050   2.353   0.760  10.541  0.1863  0.3585  0.0994
  146SAPE    C116051   2.436   0.649  10.492  0.1951 -0.1789  0.1876
  146SAPE    HA16052   2.420   0.561  10.558  1.1692  1.3601  2.5837
  146SAPE    HB16053   2.389   0.613  10.398  0.8315 -0.4377 -0.0358
  146SAPE    C216054   2.581   0.666  10.458  0.2006  0.1368 -0.7306
  146SAPE    HS16055   2.630   0.717  10.543 -2.1217  0.4070  0.5135
  146SAPE   O2116056   2.581   0.736  10.332 -0.0962  0.4455 -0.2382
  146SAPE   C2116057   2.699   0.788  10.303  0.0088 -0.4290 -0.0139
  146SAPE   O2216058   2.801   0.772  10.361 -0.7603  0.0409 -0.1373
  146SAPE   C2216059   2.674   0.885  10.194 -0.0391  0.1966 -0.2805
  146SAPE   H2R16060   2.627   0.837  10.105 -1.2815  0.6894  0.0870
  146SAPE   H2S16061   2.602   0.961  10.232 -1.8019 -0.8479 -1.3410
  146SAPE    C316062   2.649   0.526  10.445 -0.4523  0.1932  0.4706
  146SAPE    HX16063   2.645   0.476  10.544 -0.1302 -0.0394  0.3638
  146SAPE    HY16064   2.756   0.534  10.418 -0.3983  2.1349  1.0743
  146SAPE   O3116065   2.579   0.444  10.354  1.0020  0.0692  0.3316
  146SAPE   C3116066   2.619   0.313  10.344  0.8360 -0.1677 -0.5164
  146SAPE   O3216067   2.700   0.268  10.427  0.6586 -0.3382 -0.2606
  146SAPE   C3216068   2.556   0.241  10.232  0.1795  0.7630  0.0038
  146SAPE   H2X16069   2.543   0.132  10.247 -0.8463  0.5549 -2.0687
  146SAPE   H2Y16070   2.624   0.254  10.145 -0.7435 -0.5323 -0.9409
  146SAPE   C2316071   2.798   0.960  10.142 -0.4890  0.1041  0.4891
  146SAPE   H3R16072   2.865   0.894  10.083  1.1885  2.3140 -0.2462
  146SAPE   H3S16073   2.861   0.997  10.226  0.7065 -2.8066  0.9994
  146SAPE   C2416074   2.774   1.084  10.047  0.0887 -0.2266  0.0027
  146SAPE   H4R16075   2.876   1.123  10.025  0.5789 -0.0159  2.3863
  146SAPE   H4S16076   2.721   1.171  10.091  0.5141  0.4141 -0.7401
  146SAPE   C2516077   2.695   1.042   9.922  1.1078 -0.2867  0.2088
  146SAPE   H5R16078   2.601   0.986   9.937  0.8021 -0.2056 -1.2576
  146SAPE   C2616079   2.740   1.060   9.798 -0.2102  0.8707 -0.7434
  146SAPE   H6R16080   2.677   1.008   9.725 -2.8536  1.2172  1.1383
  146SAPE   C2716081   2.868   1.109   9.746 -0.3712  0.5825 -0.1283
  146SAPE   H7R16082   2.933   1.140   9.831  0.1083  0.2446 -0.3737
  146SAPE   H7S16083   2.841   1.199   9.686 -1.6016 -1.2021 -2.3735
  146SAPE   C2816084   2.938   1.007   9.658  0.3105 -0.4468  0.0379
  146SAPE   H8R16085   2.981   0.929   9.723  0.2809 -0.4181  0.0923
  146SAPE   C2916086   2.936   1.005   9.520 -0.3668  0.3503 -0.0493
  146SAPE   H9R16087   2.989   0.924   9.467  1.4310  0.7843  1.0150
  146SAPE  C21016088   2.868   1.102   9.428  0.2019 -0.9952 -0.1962
  146SAPE  H10R16089   2.953   1.141   9.369  0.9236  0.4371  1.6913
  146SAPE  H10S16090   2.840   1.193   9.485  4.7898 -0.1829  1.1315
  146SAPE  C21116091   2.753   1.038   9.358 -0.2129 -0.2453  0.1952
  146SAPE  H11R16092   2.666   1.006   9.417 -1.1220  0.1207 -0.9341
  146SAPE  C21216093   2.755   1.021   9.224  0.5809 -0.2314  0.2830
  146SAPE  H12R16094   2.675   0.955   9.187  1.3187 -0.3724 -1.1447
  146SAPE  C21316095   2.860   1.041   9.119  0.4461 -0.6970 -0.1170
  146SAPE  H13R16096   2.940   0.965   9.132  0.3009 -1.0535 -1.1537
  146SAPE  H13S16097   2.908   1.140   9.135 -0.5799 -0.5409  2.4799
  146SAPE  C21416098   2.799   1.051   8.974 -0.3209  0.2821 -0.2980
  146SAPE  H14R16099   2.701   1.094   8.953  0.5036  2.3392 -0.1731
  146SAPE  C21516100   2.859   1.002   8.862 -0.5973  0.7054  0.1826
  146SAPE  H15R16101   2.802   1.024   8.771 -1.7808  0.5354  0.8595
  146SAPE  C21616102   3.000   0.951   8.851 -0.1732 -0.4693 -0.2229
  146SAPE  H16R16103   3.051   0.918   8.944 -0.6131 -1.3780 -0.2962
  146SAPE  H16S16104   3.065   1.035   8.820 -0.6743  0.3171  0.7974
  146SAPE  C21716105   3.026   0.836   8.751 -0.1230  0.1123  1.0165
  146SAPE  H17R16106   2.947   0.759   8.768 -0.1205 -0.1479 -0.0515
  146SAPE  H17S16107   3.129   0.802   8.772 -0.4762 -1.7923 -0.0819
  146SAPE  C21816108   3.022   0.883   8.603 -0.0492  0.1400  0.3012
  146SAPE  H18R16109   3.085   0.974   8.598  0.1712 -0.0366 -0.1706
  146SAPE  H18S16110   2.917   0.913   8.582 -0.5622 -1.2907  0.6465
  146SAPE  C21916111   3.074   0.772   8.509 -0.3422 -0.3002 -0.6444
  146SAPE  H19R16112   3.178   0.743   8.536 -0.3262 -0.9875 -1.3925
  146SAPE  H19S16113   3.079   0.819   8.408 -0.2558  2.4105  0.5238
  146SAPE  C22016114   2.978   0.656   8.495 -0.4030  0.5083 -0.5109
  146SAPE  H20R16115   2.976   0.605   8.593 -0.7096 -0.6017 -1.0792
  146SAPE  H20S16116   3.014   0.583   8.420 -0.3812 -1.0521  0.9600
  146SAPE  H20T16117   2.873   0.691   8.488 -1.2434 -1.9533 -1.3452
  146SAPE   C3316118   2.413   0.293  10.202  0.4271  0.2733 -0.2207
  146SAPE   H3X16119   2.414   0.399  10.169 -1.5557  0.7038  1.0004
  146SAPE   H3Y16120   2.347   0.288  10.291  1.7073  2.3467  0.9221
  146SAPE   C3416121   2.337   0.211  10.088 -0.0580 -0.1605 -0.6153
  146SAPE   H4X16122   2.229   0.235  10.080 -0.0778 -0.1143 -0.2279
  146SAPE   H4Y16123   2.346   0.105  10.121  0.0532  0.5867  2.0236
  146SAPE   C3516124   2.413   0.221   9.958  0.2620  0.4136 -0.0073
  146SAPE   H5X16125   2.375   0.135   9.898 -1.1956  0.7893  0.3460
  146SAPE   H5Y16126   2.524   0.212   9.967  0.1801 -2.7118 -1.0268
  146SAPE   C3616127   2.390   0.351   9.869 -0.3380  0.0958  0.7280
  146SAPE   H6X16128   2.406   0.443   9.930  0.6965  1.4447 -1.4539
  146SAPE   H6Y16129   2.282   0.342   9.846 -0.3226  1.3609  0.0760
  146SAPE   C3716130   2.486   0.362   9.752 -0.2642 -0.3084  0.0357
  146SAPE   H7X16131   2.565   0.284   9.750  1.1669  1.0637  1.0195
  146SAPE   H7Y16132   2.534   0.461   9.757 -0.1989 -0.3193 -0.3492
  146SAPE   C3816133   2.405   0.368   9.621  0.7440 -0.1207  0.1889
  146SAPE   H8X16134   2.321   0.441   9.624  1.4723  0.8268 -1.2749
  146SAPE   H8Y16135   2.357   0.269   9.602 -1.8409  1.1125 -0.1547
  146SAPE   C3916136   2.499   0.405   9.504  0.6478  0.5665 -0.4762
  146SAPE   H9X16137   2.607   0.380   9.514  0.7335  0.1446 -2.2530
  146SAPE   H9Y16138   2.493   0.515   9.490  2.2288  0.7599  0.2126
  146SAPE  C31016139   2.458   0.340   9.370 -0.0719  0.1915 -0.3216
  146SAPE  H10X16140   2.348   0.356   9.362 -0.4350 -2.2131 -0.9570
  146SAPE  H10Y16141   2.472   0.230   9.382 -0.1584  0.0974 -1.0317
  146SAPE  C31116142   2.539   0.399   9.266 -0.1545 -0.0328  0.2603
  146SAPE  H11X16143   2.648   0.396   9.289 -0.2110  2.0794  0.9591
  146SAPE  H11Y16144   2.518   0.505   9.243  1.6262  0.0779 -1.0986
  146SAPE  C31216145   2.512   0.326   9.135 -0.3390 -0.6155 -0.4549
  146SAPE  H12X16146   2.402   0.327   9.123 -0.5498  0.7645  1.2417
  146SAPE  H12Y16147   2.542   0.223   9.162 -1.3680 -0.3582  1.9033
  146SAPE  C31316148   2.593   0.378   9.014 -0.0256 -0.5130  0.6929
  146SAPE  H13X16149   2.696   0.369   9.053  0.0485 -2.0667  0.2095
  146SAPE  H13Y16150   2.573   0.484   8.989 -1.6283 -1.2636 -1.5893
  146SAPE  C31416151   2.564   0.298   8.886 -0.6259 -1.0272  0.1746
  146SAPE  H14X16152   2.453   0.291   8.878 -0.5195 -0.7343 -2.0914
  146SAPE  H14Y16153   2.602   0.196   8.906  2.5922  0.0844  0.2255
  146SAPE  C31516154   2.608   0.368   8.751 -0.2723  0.9577 -1.1116
  146SAPE  H15X16155   2.716   0.390   8.768 -0.2034 -1.4290  2.4411
  146SAPE  H15Y16156   2.557   0.466   8.744  0.1325  1.9966  5.0025
  146SAPE  C31616157   2.602   0.280   8.627  0.6597 -0.0155 -0.4157
  146SAPE  H16X16158   2.499   0.258   8.591  0.3769  1.7000 -0.7568
  146SAPE  H16Y16159   2.663   0.188   8.635 -1.1795 -1.1535  1.5675
  146SAPE  C31716160   2.651   0.364   8.503  0.0117  0.1916  0.2884
  146SAPE  H17X16161   2.762   0.374   8.505  0.0452  0.0452 -0.5772
  146SAPE  H17Y16162   2.613   0.464   8.531 -0.6976  0.2517 -0.8273
  146SAPE  C31816163   2.587   0.323   8.374  0.2561 -0.5919  0.8967
  146SAPE  H18X16164   2.476   0.320   8.379 -0.0252  1.5184 -1.5726
  146SAPE  H18Y16165   2.638   0.233   8.333  0.0544 -0.2415 -0.1668
  146SAPE  H18Z16166   2.627   0.395   8.299 -0.0691 -1.9609 -0.6412
  147SAPE     N16167   2.364   2.029  10.555 -0.5312 -0.0664  0.0758
  147SAPE   HN116168   2.358   1.926  10.567 -1.2827 -0.2331 -1.4041
  147SAPE   HN216169   2.273   2.069  10.523  0.5549  1.9009 -0.7902
  147SAPE   HN316170   2.434   2.060  10.485  0.2092  0.1318  0.8873
  147SAPE   C1216171   2.382   2.087  10.695  0.0575 -0.8177 -0.4009
  147SAPE  H12A16172   2.461   2.025  10.741 -0.4255  1.0110  3.2017
  147SAPE  H12B16173   2.296   2.060  10.759  0.8336 -0.6793  0.7308
  147SAPE   C1116174   2.403   2.241  10.693  0.2444  0.8226  0.2426
  147SAPE  H11A16175   2.510   2.253  10.664 -0.3065  1.1078 -1.8121
  147SAPE  H11B16176   2.395   2.270  10.800 -0.1061  1.2811  0.0970
  147SAPE     P16177   2.321   2.467  10.617  0.1182  0.2557  0.1168
  147SAPE   O1316178   2.192   2.517  10.565 -0.4699  0.0756 -0.1603
  147SAPE   O1416179   2.347   2.491  10.762  0.1398  0.5357 -0.2127
  147SAPE   O1216180   2.319   2.309  10.596 -0.2175  0.1158  0.7388
  147SAPE   O1116181   2.443   2.513  10.517 -0.7285 -0.1740 -0.0774
  147SAPE    C116182   2.501   2.427  10.421 -0.3050 -0.0512 -0.5106
  147SAPE    HA16183   2.607   2.456  10.404 -0.3049 -0.1448 -0.6668
  147SAPE    HB16184   2.518   2.322  10.455  0.9296  0.0089 -0.9049
  147SAPE    C216185   2.428   2.434  10.292 -0.0636  0.3254  0.7302
  147SAPE    HS16186   2.322   2.404  10.304 -0.4394  1.7136  1.0167
  147SAPE   O2116187   2.501   2.353  10.198  0.5314 -0.6368  0.1040
  147SAPE   C2116188   2.463   2.229  10.203 -0.2047  0.4804  0.1307
  147SAPE   O2216189   2.387   2.175  10.279 -0.1209 -0.1540 -0.1222
  147SAPE   C2216190   2.538   2.154  10.086 -0.0776  0.1582  0.0429
  147SAPE   H2R16191   2.508   2.194   9.986  0.5162 -0.5926 -0.4493
  147SAPE   H2S16192   2.648   2.157  10.103 -0.3133  0.8986  1.6562
  147SAPE    C316193   2.441   2.575  10.238 -0.2251  0.4583 -0.6047
  147SAPE    HX16194   2.546   2.611  10.233 -0.2930  0.9745  0.9060
  147SAPE    HY16195   2.393   2.641  10.314  1.6985  2.3704 -0.9745
  147SAPE   O3116196   2.369   2.596  10.120  0.0291  0.3507 -0.0536
  147SAPE   C3116197   2.431   2.656  10.021 -0.6166 -0.8497 -0.2512
  147SAPE   O3216198   2.543   2.708  10.031 -0.3687  0.2772 -0.1193
  147SAPE   C3216199   2.342   2.666   9.892  0.9203 -0.1386  0.2010
  147SAPE   H2X16200   2.234   2.682   9.915  0.4895 -1.8240 -0.5000
  147SAPE   H2Y16201   2.345   2.568   9.841  0.6557  0.0292 -0.1465
  147SAPE   C2316202   2.483   2.011  10.055 -0.1396  0.1330  0.0054
  147SAPE   H3R16203   2.390   1.989  10.112  0.2525  2.5213  1.6946
  147SAPE   H3S16204   2.552   1.940  10.105  0.1130  0.1549 -0.3118
  147SAPE   C2416205   2.463   1.976   9.907 -0.1847  0.3229 -0.3320
  147SAPE   H4R16206   2.559   2.004   9.857  0.4803  1.4501  1.5175
  147SAPE   H4S16207   2.384   2.038   9.861  0.2276  0.7052 -0.5333
  147SAPE   C2516208   2.434   1.829   9.870  0.5783  0.0253  0.8123
  147SAPE   H5R16209   2.404   1.766   9.955  1.4110  0.9890  1.8645
  147SAPE   C2616210   2.446   1.783   9.740 -0.7642  0.0494 -0.6533
  147SAPE   H6R16211   2.430   1.677   9.718 -2.6439  0.6146 -2.2537
  147SAPE   C2716212   2.487   1.869   9.627 -0.2754 -0.4938  0.5015
  147SAPE   H7R16213   2.592   1.844   9.600  0.2789  0.5475  1.6048
  147SAPE   H7S16214   2.490   1.971   9.671 -1.6116 -0.5566  0.7570
  147SAPE   C2816215   2.385   1.853   9.514  0.6446  0.0402 -0.7661
  147SAPE   H8R16216   2.290   1.904   9.537 -0.3985 -1.3158 -1.9388
  147SAPE   C2916217   2.404   1.788   9.399  0.4461 -0.0029  0.6274
  147SAPE   H9R16218   2.326   1.781   9.322  0.8455 -1.7737  0.3242
  147SAPE  C21016219   2.538   1.733   9.353  0.2851  0.0148 -0.2966
  147SAPE  H10R16220   2.523   1.644   9.288 -0.8825 -0.3645  0.4635
  147SAPE  H10S16221   2.603   1.701   9.437 -1.3149  0.4945  1.2057
  147SAPE  C21116222   2.605   1.839   9.269 -0.4792 -0.0312  0.1578
  147SAPE  H11R16223   2.664   1.917   9.318 -2.1351  2.7702 -1.9617
  147SAPE  C21216224   2.585   1.854   9.135 -0.7791  0.1038  0.6316
  147SAPE  H12R16225   2.638   1.936   9.084  2.6857 -0.5253  2.8812
  147SAPE  C21316226   2.496   1.769   9.048 -0.6361  0.5118 -0.2832
  147SAPE  H13R16227   2.439   1.699   9.112  2.2916 -1.1439  0.7322
  147SAPE  H13S16228   2.561   1.707   8.982 -1.1731 -1.9876  1.4183
  147SAPE  C21416229   2.397   1.840   8.961  0.0700 -0.2734 -0.4300
  147SAPE  H14R16230   2.338   1.904   9.028  1.7869 -0.4008  1.2742
  147SAPE  C21516231   2.390   1.835   8.822 -0.1172 -0.6939 -0.8926
  147SAPE  H15R16232   2.307   1.897   8.785 -0.6663 -0.9996 -0.1990
  147SAPE  C21616233   2.468   1.769   8.717  0.2213  0.4546  0.3245
  147SAPE  H16R16234   2.417   1.693   8.655  0.1326  0.8455 -0.0843
  147SAPE  H16S16235   2.568   1.730   8.746 -0.3961 -0.9226  0.6920
  147SAPE  C21716236   2.527   1.878   8.623  0.5314  0.2859  0.5350
  147SAPE  H17R16237   2.584   1.962   8.668  0.9905  0.1826  0.1594
  147SAPE  H17S16238   2.445   1.924   8.563  2.0081  0.3893 -1.4976
  147SAPE  C21816239   2.618   1.816   8.512 -0.5370 -0.0768 -0.1134
  147SAPE  H18R16240   2.553   1.768   8.436 -0.5332 -1.4200  0.6839
  147SAPE  H18S16241   2.676   1.741   8.570  0.6501  0.6298 -0.3446
  147SAPE  C21916242   2.713   1.918   8.453 -0.9417  0.0035 -0.4233
  147SAPE  H19R16243   2.795   1.946   8.524  0.5500 -2.4930 -1.0310
  147SAPE  H19S16244   2.648   2.005   8.431 -2.0151  0.1956  2.8951
  147SAPE  C22016245   2.791   1.869   8.329  0.0948 -0.1170  0.6986
  147SAPE  H20R16246   2.860   1.786   8.356  0.3762 -0.4580 -0.9626
  147SAPE  H20S16247   2.843   1.956   8.285 -0.9280 -0.7353 -1.9053
  147SAPE  H20T16248   2.715   1.836   8.255 -0.4618 -1.5368  1.8325
  147SAPE   C3316249   2.384   2.776   9.792  0.1600  0.2221  0.0986
  147SAPE   H3X16250   2.491   2.783   9.762  1.1050  0.5982  3.1545
  147SAPE   H3Y16251   2.358   2.872   9.842  1.8756  1.4431 -1.2388
  147SAPE   C3416252   2.307   2.754   9.665  0.3852  0.3745  0.9007
  147SAPE   H4X16253   2.200   2.741   9.692  0.0876 -0.4805 -0.5510
  147SAPE   H4Y16254   2.338   2.662   9.611  2.7520  3.2515 -3.1988
  147SAPE   C3516255   2.328   2.869   9.572  0.6198  0.2952  0.9911
  147SAPE   H5X16256   2.433   2.874   9.534 -0.0069 -1.1468 -1.1117
  147SAPE   H5Y16257   2.314   2.964   9.627 -1.1953  0.8708 -0.3775
  147SAPE   C3616258   2.226   2.875   9.448 -0.1033  0.1118  0.1157
  147SAPE   H6X16259   2.185   2.978   9.443 -2.6109 -0.8158 -0.2083
  147SAPE   H6Y16260   2.145   2.803   9.474  0.3244 -0.4798 -0.1553
  147SAPE   C3716261   2.295   2.823   9.326  0.3838  0.1717 -0.0950
  147SAPE   H7X16262   2.312   2.714   9.343  0.3737  0.6525  4.0619
  147SAPE   H7Y16263   2.388   2.881   9.312 -0.8986  2.7454  1.3966
  147SAPE   C3816264   2.209   2.856   9.199  0.0347 -1.0210 -0.4187
  147SAPE   H8X16265   2.273   2.816   9.117  0.5926  0.4131 -0.7217
  147SAPE   H8Y16266   2.199   2.967   9.190  3.0646 -0.5709  0.6599
  147SAPE   C3916267   2.064   2.796   9.204 -0.2489  1.0005  0.1454
  147SAPE   H9X16268   2.008   2.841   9.289 -1.0692  0.9781 -0.3758
  147SAPE   H9Y16269   2.063   2.686   9.221 -0.2220  0.7920 -1.1408
  147SAPE  C31016270   1.979   2.822   9.081  0.2501 -0.0713  0.2585
  147SAPE  H10X16271   1.874   2.784   9.083  0.7259 -1.6585 -1.2923
  147SAPE  H10Y16272   2.030   2.773   8.995 -2.7606  0.4303 -1.9771
  147SAPE  C31116273   1.941   2.970   9.058  0.3917 -0.4932  0.2320
  147SAPE  H11X16274   2.034   3.029   9.069  0.1074 -0.0223  0.1417
  147SAPE  H11Y16275   1.870   3.005   9.136 -0.6708 -1.8266 -0.0955
  147SAPE  C31216276   1.890   3.000   8.915 -0.7232 -0.4908 -0.7626
  147SAPE  H12X16277   1.954   2.941   8.845  0.3301  2.3484 -2.3474
  147SAPE  H12Y16278   1.911   3.107   8.896 -0.9098 -0.4104 -0.5135
  147SAPE  C31316279   1.742   2.972   8.892  1.0823 -0.0655  0.6773
  147SAPE  H13X16280   1.727   2.879   8.952  0.3288 -0.4481 -0.0991
  147SAPE  H13Y16281   1.696   2.968   8.791  1.0477  0.1890  0.6810
  147SAPE  C31416282   1.650   3.072   8.974 -0.2203  0.9439 -0.3023
  147SAPE  H14X16283   1.679   3.076   9.081 -0.4049  1.9296 -0.2871
  147SAPE  H14Y16284   1.546   3.034   8.964  0.6856 -1.0249 -5.6335
  147SAPE  C31516285   1.657   3.214   8.913  0.4258 -0.1422  0.3856
  147SAPE  H15X16286   1.764   3.236   8.891  0.7505 -3.0645 -1.5309
  147SAPE  H15Y16287   1.625   3.292   8.985  0.5668  2.2224 -1.9675
  147SAPE  C31616288   1.570   3.233   8.791  0.5583 -0.2156  0.0950
  147SAPE  H16X16289   1.467   3.218   8.830 -0.2355  2.1713 -0.9038
  147SAPE  H16Y16290   1.581   3.158   8.711  0.7637 -0.8806  0.7354
  147SAPE  C31716291   1.584   3.365   8.717  0.6051 -0.3769  0.0390
  147SAPE  H17X16292   1.555   3.445   8.787  0.3264 -1.6027  1.3627
  147SAPE  H17Y16293   1.510   3.353   8.635  2.7947  1.3784 -2.3735
  147SAPE  C31816294   1.724   3.406   8.663  0.7046  0.3180  0.1164
  147SAPE  H18X16295   1.809   3.378   8.729 -0.0467  0.4002  1.1468
  147SAPE  H18Y16296   1.731   3.512   8.631  0.9654 -0.2705 -1.8732
  147SAPE  H18Z16297   1.731   3.353   8.566 -1.8629  0.7923 -0.4021
  148SAPE     N16298   3.600   4.500  10.737 -0.5998 -0.2584 -0.5381
  148SAPE   HN116299   3.568   4.518  10.835 -1.3341  2.2440 -1.1550
  148SAPE   HN216300   3.609   4.591  10.688  0.6600  0.1938  0.4679
  148SAPE   HN316301   3.527   4.436  10.699 -0.0806 -0.5683 -1.0183
  148SAPE   C1216302   3.739   4.429  10.756  0.2690 -0.9082 -0.6283
  148SAPE  H12A16303   3.714   4.334  10.808 -1.9244  0.3786  0.8330
  148SAPE  H12B16304   3.791   4.502  10.821 -0.2309 -0.2103 -1.0081
  148SAPE   C1116305   3.814   4.406  10.623 -0.0944  0.8732 -0.6528
  148SAPE  H11A16306   3.757   4.338  10.555 -1.5394  1.5933 -0.2090
  148SAPE  H11B16307   3.901   4.344  10.653 -1.1137  0.2179  1.0457
  148SAPE     P16308   3.954   4.631  10.611 -0.2619  0.0079  0.1598
  148SAPE   O1316309   3.883   4.760  10.621  0.2266 -0.0939 -0.1566
  148SAPE   O1416310   4.029   4.589  10.729  0.1308  0.2243  1.2190
  148SAPE   O1216311   3.853   4.523  10.553  0.1355 -0.0749  0.0500
  148SAPE   O1116312   4.056   4.642  10.490  0.2259 -0.3538 -0.0459
  148SAPE    C116313   4.140   4.528  10.467 -0.1156 -0.6102 -0.8969
  148SAPE    HA16314   4.093   4.433  10.501  1.3425 -0.2221  2.6190
  148SAPE    HB16315   4.155   4.510  10.359  3.4524  0.5821 -0.7369
  148SAPE    C216316   4.279   4.528  10.534  0.1999 -0.0460 -0.4771
  148SAPE    HS16317   4.258   4.493  10.637  1.1159 -0.2691 -0.3561
  148SAPE   O2116318   4.339   4.659  10.527  0.1712  0.7686  0.2855
  148SAPE   C2116319   4.436   4.686  10.605 -0.6664 -0.7150 -0.4276
  148SAPE   O2216320   4.505   4.613  10.675  0.1185  0.5238  0.3377
  148SAPE   C2216321   4.472   4.841  10.586 -0.5898  0.2152 -0.0932
  148SAPE   H2R16322   4.382   4.895  10.624 -0.2930  0.4126  0.3451
  148SAPE   H2S16323   4.556   4.874  10.651  0.6447 -0.0844 -1.4996
  148SAPE    C316324   4.376   4.423  10.469 -0.3104  0.1173 -0.5257
  148SAPE    HX16325   4.323   4.325  10.468 -1.4447  0.7125 -0.1624
  148SAPE    HY16326   4.467   4.407  10.531 -0.4046 -0.7258 -0.5839
  148SAPE   O3116327   4.404   4.449  10.330 -0.9971  0.0628  1.0349
  148SAPE   C3116328   4.526   4.518  10.314 -0.1281 -0.1912 -0.4278
  148SAPE   O3216329   4.602   4.551  10.400  0.1187  0.1772 -0.2459
  148SAPE   C3216330   4.541   4.548  10.168 -0.0236 -1.0319  0.0244
  148SAPE   H2X16331   4.444   4.586  10.129  0.4465  0.1126 -0.0474
  148SAPE   H2Y16332   4.565   4.446  10.132  1.0224 -0.2579 -1.5690
  148SAPE   C2316333   4.498   4.901  10.451  0.0613 -0.8195  0.3603
  148SAPE   H3R16334   4.440   4.844  10.375 -2.2877  0.6724  0.9361
  148SAPE   H3S16335   4.605   4.878  10.430  0.1577 -0.7837  0.7962
  148SAPE   C2416336   4.477   5.052  10.446 -0.1419 -0.2821  0.4240
  148SAPE   H4R16337   4.413   5.095  10.525 -0.0374 -1.7019  1.2962
  148SAPE   H4S16338   4.414   5.088  10.362 -0.5982  1.0378  1.2893
  148SAPE   C2516339   4.618   5.116  10.435  0.0121  0.6279 -0.6086
  148SAPE   H5R16340   4.679   5.105  10.526 -4.3062 -0.4873  2.4911
  148SAPE   C2616341   4.668   5.182  10.329  0.3330 -0.0199 -0.3598
  148SAPE   H6R16342   4.762   5.236  10.347  0.6305 -1.2627  2.3452
  148SAPE   C2716343   4.601   5.200  10.191 -0.3056  0.4570  0.7429
  148SAPE   H7R16344   4.516   5.132  10.170  0.6476 -0.5806  0.1283
  148SAPE   H7S16345   4.668   5.171  10.107 -2.2555 -0.1337 -0.6780
  148SAPE   C2816346   4.555   5.342  10.171 -0.0460 -0.2221  0.1346
  148SAPE   H8R16347   4.497   5.386  10.253 -2.1158  1.2264 -1.9779
  148SAPE   C2916348   4.574   5.417  10.062  0.1749  0.0927  0.0417
  148SAPE   H9R16349   4.536   5.520  10.057 -0.8113 -0.1340  1.9975
  148SAPE  C21016350   4.662   5.374   9.943 -0.2123  0.3659 -0.5236
  148SAPE  H10R16351   4.627   5.272   9.918 -0.2650  0.1712  0.3246
  148SAPE  H10S16352   4.770   5.365   9.966 -0.5618 -0.5867  0.8762
  148SAPE  C21116353   4.640   5.461   9.816 -0.0002 -0.0650  0.3614
  148SAPE  H11R16354   4.566   5.542   9.827  0.8544  0.7572  0.0901
  148SAPE  C21216355   4.695   5.435   9.693  0.2836  0.0081 -0.1445
  148SAPE  H12R16356   4.688   5.508   9.611 -0.6708  0.0129 -0.0688
  148SAPE  C21316357   4.784   5.314   9.669 -0.6783 -0.5695 -0.4680
  148SAPE  H13R16358   4.755   5.258   9.577 -1.1815 -2.0230  0.5337
  148SAPE  H13S16359   4.758   5.237   9.745 -1.5844 -0.5947 -0.7898
  148SAPE  C21416360   4.938   5.329   9.663  0.0240 -1.1596  0.4499
  148SAPE  H14R16361   4.973   5.426   9.624 -2.5334 -0.7034 -0.9455
  148SAPE  C21516362   5.029   5.248   9.714  0.2309 -0.3796 -0.7703
  148SAPE  H15R16363   5.133   5.274   9.690 -0.0511  0.2705 -1.3135
  148SAPE  C21616364   4.999   5.127   9.806 -0.1370  0.5613  0.2756
  148SAPE  H16R16365   5.058   5.045   9.760 -1.4295  0.6850 -1.7374
  148SAPE  H16S16366   4.890   5.103   9.809  0.2323 -2.1834 -2.8512
  148SAPE  C21716367   5.032   5.155   9.955 -0.3218 -0.4212  0.8125
  148SAPE  H17R16368   4.971   5.242   9.986 -0.8514 -0.3688 -0.3095
  148SAPE  H17S16369   5.139   5.185   9.956 -0.6048  0.6921  0.1556
  148SAPE  C21816370   5.012   5.047  10.053 -0.4692 -0.4037 -0.1817
  148SAPE  H18R16371   5.068   4.957  10.019  0.4668 -0.4237  1.3495
  148SAPE  H18S16372   4.904   5.020  10.055 -0.7932  0.8845  1.0677
  148SAPE  C21916373   5.059   5.092  10.193 -0.3986 -0.7656 -0.7552
  148SAPE  H19R16374   4.990   5.165  10.241  0.7756  0.1404 -0.4056
  148SAPE  H19S16375   5.157   5.145  10.190  0.4359 -2.1204  0.7871
  148SAPE  C22016376   5.071   4.972  10.288  0.0412  0.1112 -0.3831
  148SAPE  H20R16377   4.978   4.936  10.337  0.2429 -0.0357 -0.0966
  148SAPE  H20S16378   5.142   5.001  10.369  1.6392  1.3505 -2.1156
  148SAPE  H20T16379   5.107   4.885  10.229 -0.1569  0.5408 -1.1526
  148SAPE   C3316380   4.659   4.645  10.139  0.4366 -0.5924  0.6922
  148SAPE   H3X16381   4.745   4.618  10.204  0.2169 -0.2059  1.1486
  148SAPE   H3Y16382   4.633   4.748  10.170  0.5892  0.1385 -1.4284
  148SAPE   C3416383   4.700   4.655   9.987 -0.4828 -0.8991 -0.3150
  148SAPE   H4X16384   4.605   4.699   9.949  0.2657  0.0762 -1.1230
  148SAPE   H4Y16385   4.721   4.551   9.954 -0.0602 -0.0716 -2.9018
  148SAPE   C3516386   4.821   4.749   9.957  0.6428 -0.1563  0.3968
  148SAPE   H5X16387   4.899   4.727  10.034  0.7879 -0.4775  0.1568
  148SAPE   H5Y16388   4.794   4.853   9.988  1.4159  0.3786 -0.6431
  148SAPE   C3616389   4.895   4.721   9.830 -0.2248 -0.5084  0.1617
  148SAPE   H6X16390   4.880   4.614   9.804 -0.4771 -1.5990  4.1670
  148SAPE   H6Y16391   5.000   4.751   9.850 -0.3876 -0.5470  1.0933
  148SAPE   C3716392   4.837   4.811   9.729  0.0515  0.4084  0.7394
  148SAPE   H7X16393   4.837   4.916   9.767 -0.8767  0.1069  1.6123
  148SAPE   H7Y16394   4.732   4.779   9.709  0.7273 -0.3781 -2.0638
  148SAPE   C3816395   4.913   4.792   9.594  0.8416  0.6300 -0.1393
  148SAPE   H8X16396   4.919   4.682   9.580 -1.9932  0.1990  1.3980
  148SAPE   H8Y16397   5.018   4.824   9.611  2.1142 -2.0194 -2.2970
  148SAPE   C3916398   4.859   4.874   9.481  0.5421 -0.3240  0.0305
  148SAPE   H9X16399   4.873   4.980   9.514  0.3130 -0.5619  0.9234
  148SAPE   H9Y16400   4.755   4.854   9.449  0.6682  0.9145 -1.2505
  148SAPE  C31016401   4.947   4.856   9.358  0.0022 -0.5964 -0.0648
  148SAPE  H10X16402   5.051   4.868   9.396 -0.4901 -0.5120  1.3195
  148SAPE  H10Y16403   4.931   4.949   9.300 -0.1020  0.9558  2.3271
  148SAPE  C31116404   4.921   4.737   9.269  0.0092 -0.1494  0.1422
  148SAPE  H11X16405   4.814   4.742   9.239 -0.3159 -2.0025  0.8549
  148SAPE  H11Y16406   4.925   4.641   9.325 -0.5057  0.8330  1.9365
  148SAPE  C31216407   5.009   4.732   9.143  0.2267 -0.1526  0.3478
  148SAPE  H12X16408   5.103   4.693   9.186 -1.2051 -0.1881  3.7557
  148SAPE  H12Y16409   5.022   4.828   9.089  0.7604 -1.2419 -1.5384
  148SAPE  C31316410   4.976   4.621   9.037 -0.2587  0.0783 -0.3562
  148SAPE  H13X16411   4.887   4.649   8.977 -1.1822  1.8543  1.7040
  148SAPE  H13Y16412   4.956   4.532   9.101  0.0016  2.2717  3.0236
  148SAPE  C31416413   5.092   4.576   8.951  0.3024  0.1535  0.4716
  148SAPE  H14X16414   5.066   4.486   8.892  0.5526  0.7019 -0.4979
  148SAPE  H14Y16415   5.170   4.547   9.025  0.3594  0.3187  0.4764
  148SAPE  C31516416   5.144   4.687   8.857 -0.2092 -0.1669  0.2815
  148SAPE  H15X16417   5.253   4.677   8.835 -0.4858 -0.4603 -1.0641
  148SAPE  H15Y16418   5.133   4.789   8.900 -1.6403  1.0136 -2.6152
  148SAPE  C31616419   5.055   4.696   8.731  0.1848 -0.4465  0.1312
  148SAPE  H16X16420   5.073   4.794   8.681 -1.2957  0.3051  1.0174
  148SAPE  H16Y16421   4.950   4.694   8.767  0.0415 -0.2511 -0.2639
  148SAPE  C31716422   5.083   4.579   8.639  0.5361 -0.6643 -0.1610
  148SAPE  H17X16423   5.042   4.485   8.681 -1.1588  0.4128  0.6965
  148SAPE  H17Y16424   5.192   4.557   8.639  0.3860 -1.6795  2.3678
  148SAPE  C31816425   5.017   4.596   8.503  0.2108  0.2641 -0.5867
  148SAPE  H18X16426   4.907   4.607   8.518  0.2338  1.9701 -1.3847
  148SAPE  H18Y16427   5.031   4.505   8.441 -2.2615  0.4544 -1.5393
  148SAPE  H18Z16428   5.055   4.690   8.457  1.6307  0.3292  0.6450
  149SAPE     N16429   6.185   6.347  10.797 -0.6513 -0.4503  0.2650
  149SAPE   HN116430   6.096   6.386  10.762  0.7183  0.5593 -2.4062
  149SAPE   HN216431   6.264   6.412  10.779 -0.9758 -0.3652 -0.9228
  149SAPE   HN316432   6.212   6.263  10.742 -1.9479  0.6652 -2.2146
  149SAPE   C1216433   6.192   6.313  10.937  0.4498 -0.0003  0.0967
  149SAPE  H12A16434   6.152   6.400  10.994  1.1456  0.6819 -0.4528
  149SAPE  H12B16435   6.293   6.292  10.978  1.8446  0.4275 -2.9201
  149SAPE   C1116436   6.105   6.187  10.950  0.0876  0.1772  0.3969
  149SAPE  H11A16437   6.113   6.153  11.055 -3.1019 -1.0597  0.3395
  149SAPE  H11B16438   6.146   6.102  10.891 -1.2375  0.9111 -1.6960
  149SAPE     P16439   5.838   6.200  10.991  0.1536 -0.2672  0.5184
  149SAPE   O1316440   5.858   6.112  11.104  0.3980  0.4174  0.4661
  149SAPE   O1416441   5.779   6.330  11.020 -0.1393 -0.4120 -1.0157
  149SAPE   O1216442   5.972   6.214  10.910 -0.0008  0.0764  0.4285
  149SAPE   O1116443   5.737   6.140  10.885  0.5511 -0.1126 -0.0107
  149SAPE    C116444   5.761   6.005  10.824  0.0589 -0.2390  0.2483
  149SAPE    HA16445   5.831   5.948  10.888 -1.4925 -0.3392  1.9294
  149SAPE    HB16446   5.666   5.947  10.814 -0.5989  0.9767 -0.9271
  149SAPE    C216447   5.829   6.025  10.683 -0.1471  0.1166  0.1347
  149SAPE    HS16448   5.926   6.076  10.701  0.3730 -1.0248  0.7260
  149SAPE   O2116449   5.735   6.099  10.602  0.1841  0.3260 -0.1719
  149SAPE   C2116450   5.785   6.165  10.506 -0.3105  0.1034  0.5290
  149SAPE   O2216451   5.905   6.191  10.487 -0.1739 -0.5828  0.5456
  149SAPE   C2216452   5.670   6.216  10.413  0.7418  0.1827 -0.2571
  149SAPE   H2R16453   5.649   6.131  10.344 -0.0180  0.4220 -0.3270
  149SAPE   H2S16454   5.580   6.226  10.477 -0.5466 -0.3735 -1.9150
  149SAPE    C316455   5.857   5.887  10.621 -0.2873  0.1762 -0.1338
  149SAPE    HX16456   5.758   5.837  10.616 -0.0355 -0.2572 -1.2402
  149SAPE    HY16457   5.922   5.831  10.692 -0.9042 -1.3032 -0.6912
  149SAPE   O3116458   5.912   5.891  10.486  0.0196  1.1100 -0.1561
  149SAPE   C3116459   6.048   5.910  10.491  0.0732 -0.2154 -0.3788
  149SAPE   O3216460   6.114   5.915  10.593 -0.0244  0.2699 -0.8050
  149SAPE   C3216461   6.099   5.910  10.348 -0.3820  0.1989 -0.8583
  149SAPE   H2X16462   6.046   5.837  10.284  0.0633  0.4177 -1.4846
  149SAPE   H2Y16463   6.203   5.875  10.366 -0.4711 -0.5161 -1.6794
  149SAPE   C2316464   5.694   6.344  10.329  0.5986 -0.0373 -0.4221
  149SAPE   H3R16465   5.719   6.429  10.397  0.1914  0.2130 -0.5854
  149SAPE   H3S16466   5.594   6.376  10.292  0.4420  1.7650  1.3662
  149SAPE   C2416467   5.797   6.319  10.221 -0.5850 -0.4968 -0.3255
  149SAPE   H4R16468   5.806   6.211  10.195  1.5540 -1.1667  2.6487
  149SAPE   H4S16469   5.896   6.342  10.264  0.5288 -2.1398 -1.8842
  149SAPE   C2516470   5.760   6.400  10.096 -0.1774 -0.2995 -0.3739
  149SAPE   H5R16471   5.655   6.430  10.084 -0.5112 -1.3550 -0.1378
  149SAPE   C2616472   5.846   6.445  10.003  0.2268 -0.5603 -0.2217
  149SAPE   H6R16473   5.798   6.501   9.921  0.5147  1.0553  0.6670
  149SAPE   C2716474   5.994   6.419   9.987 -1.1113  0.0574  0.3282
  149SAPE   H7R16475   6.023   6.312   9.981 -0.4948 -0.0035  3.0563
  149SAPE   H7S16476   6.039   6.461  10.079  0.8320  0.5639 -0.8031
  149SAPE   C2816477   6.059   6.488   9.873  0.1633  0.1495  0.7251
  149SAPE   H8R16478   6.078   6.594   9.892  0.8295  0.0240  0.7869
  149SAPE   C2916479   6.111   6.428   9.759  0.9684 -0.2462  0.4497
  149SAPE   H9R16480   6.140   6.499   9.680 -1.8891  1.6683  0.9592
  149SAPE  C21016481   6.108   6.284   9.724  0.4689 -0.4926  0.1952
  149SAPE  H10R16482   6.119   6.221   9.815 -1.5477 -0.3175  0.6102
  149SAPE  H10S16483   6.198   6.262   9.662 -0.2351  2.8145 -2.2673
  149SAPE  C21116484   5.983   6.260   9.646 -0.0819 -0.1510  0.7036
  149SAPE  H11R16485   5.898   6.248   9.715  0.0295  1.5663  1.1865
  149SAPE  C21216486   5.957   6.244   9.517  0.3193 -0.4549  0.1153
  149SAPE  H12R16487   5.857   6.219   9.479  0.2396  0.0679 -0.0250
  149SAPE  C21316488   6.061   6.240   9.415 -0.3611  0.2960 -0.6051
  149SAPE  H13R16489   6.068   6.136   9.377 -2.0978  0.1432 -0.5590
  149SAPE  H13S16490   6.162   6.265   9.456 -0.6033 -0.6781  0.6521
  149SAPE  C21416491   6.042   6.322   9.292 -0.4439 -0.4902  0.3459
  149SAPE  H14R16492   5.983   6.414   9.303  0.8384  0.1590  2.3450
  149SAPE  C21516493   6.097   6.280   9.172 -0.2667 -0.4165  0.1644
  149SAPE  H15R16494   6.063   6.338   9.085  1.6616  1.0165  0.2910
  149SAPE  C21616495   6.176   6.160   9.142 -0.5690 -0.0034 -0.1406
  149SAPE  H16R16496   6.115   6.068   9.159 -1.3228  0.6389  0.7489
  149SAPE  H16S16497   6.267   6.154   9.206  0.3265  0.4024 -1.3367
  149SAPE  C21716498   6.202   6.155   8.986 -0.8048  0.7736  0.3078
  149SAPE  H17R16499   6.274   6.071   8.978  0.1726  1.6312 -0.1281
  149SAPE  H17S16500   6.261   6.245   8.957  2.9584 -2.2857 -2.7533
  149SAPE  C21816501   6.085   6.128   8.896  0.0549 -0.1169 -0.6112
  149SAPE  H18R16502   6.017   6.217   8.898  1.4135  0.9645  1.4073
  149SAPE  H18S16503   6.030   6.040   8.937  0.0828  1.1598  2.4816
  149SAPE  C21916504   6.139   6.121   8.749  0.2505 -0.2574 -0.0060
  149SAPE  H19R16505   6.188   6.021   8.738 -0.5272 -0.7138  0.5476
  149SAPE  H19S16506   6.207   6.206   8.727  0.8977 -0.4438  1.1378
  149SAPE  C22016507   6.030   6.134   8.638 -0.0178  0.0694  0.4695
  149SAPE  H20R16508   5.947   6.060   8.650 -2.9380  2.5549 -2.4690
  149SAPE  H20S16509   6.083   6.119   8.542  2.0692  1.8816  1.2574
  149SAPE  H20T16510   5.975   6.230   8.637 -0.9073 -0.2844  3.4380
  149SAPE   C3316511   6.095   6.048  10.274 -0.0918  0.1607  0.3082
  149SAPE   H3X16512   6.124   6.130  10.342  2.7438 -0.4974 -0.0020
  149SAPE   H3Y16513   5.992   6.073  10.242 -0.4360 -0.9964  0.4603
  149SAPE   C3416514   6.179   6.052  10.148  0.9246 -0.1608 -0.0254
  149SAPE   H4X16515   6.284   6.030  10.177  0.6141 -0.4664  0.9174
  149SAPE   H4Y16516   6.173   6.159  10.116 -0.1437 -0.0615  0.4475
  149SAPE   C3516517   6.126   5.954  10.038  0.0731  0.3630  0.0071
  149SAPE   H5X16518   6.026   5.976   9.994  1.2117  0.1811 -2.8146
  149SAPE   H5Y16519   6.120   5.852  10.080  3.6439 -0.2683 -0.7466
  149SAPE   C3616520   6.210   5.953   9.909 -0.4068 -0.3237 -0.0096
  149SAPE   H6X16521   6.281   5.868   9.918 -0.0759 -0.2398 -1.5285
  149SAPE   H6Y16522   6.267   6.046   9.890 -1.7787  0.8116  1.1496
  149SAPE   C3716523   6.142   5.914   9.778 -0.4227 -0.0606 -0.7026
  149SAPE   H7X16524   6.057   5.983   9.757  1.1026  1.8040 -1.0013
  149SAPE   H7Y16525   6.108   5.810   9.794  1.5118 -0.5978  0.1651
  149SAPE   C3816526   6.252   5.914   9.661  0.0512 -0.3463 -0.5344
  149SAPE   H8X16527   6.338   5.848   9.687  0.0964 -1.1886 -2.5961
  149SAPE   H8Y16528   6.283   6.020   9.662  1.7350 -0.8116  0.5906
  149SAPE   C3916529   6.198   5.887   9.522 -0.2131 -0.3111 -0.1307
  149SAPE   H9X16530   6.116   5.955   9.493 -2.3753 -2.6643  0.1511
  149SAPE   H9Y16531   6.169   5.781   9.533 -1.5627  0.0684  0.1801
  149SAPE  C31016532   6.294   5.897   9.410  0.0811 -0.0940  0.5369
  149SAPE  H10X16533   6.400   5.880   9.438  0.0979 -1.4504 -0.2367
  149SAPE  H10Y16534   6.289   6.003   9.379 -0.2673  0.2874  1.8247
  149SAPE  C31116535   6.263   5.809   9.288 -0.3503 -0.2877  0.1488
  149SAPE  H11X16536   6.164   5.836   9.246 -0.2909  2.0272  1.3052
  149SAPE  H11Y16537   6.263   5.700   9.309 -0.8277  0.1435  2.8401
  149SAPE  C31216538   6.362   5.856   9.179  0.4241  0.5121  0.1028
  149SAPE  H12X16539   6.464   5.848   9.222  0.4802 -1.0140 -0.2301
  149SAPE  H12Y16540   6.345   5.963   9.154  0.5935  0.6288  0.4869
  149SAPE  C31316541   6.370   5.774   9.043  0.8689  0.9353  0.3639
  149SAPE  H13X16542   6.461   5.790   8.981  0.2204 -0.6084 -1.0675
  149SAPE  H13Y16543   6.280   5.791   8.980  1.0189  0.7353  0.0899
  149SAPE  C31416544   6.356   5.621   9.068 -0.1582 -0.3487  0.0002
  149SAPE  H14X16545   6.353   5.562   8.974 -0.5994 -2.8733  1.5076
  149SAPE  H14Y16546   6.256   5.594   9.106  0.4833 -1.1791  1.1811
  149SAPE  C31516547   6.453   5.548   9.170  0.0456 -0.5832  0.7963
  149SAPE  H15X16548   6.428   5.573   9.275  1.8404  2.0423  0.6732
  149SAPE  H15Y16549   6.552   5.595   9.155 -0.8985  1.4853  0.6809
  149SAPE  C31616550   6.463   5.398   9.147  0.4824  0.1818  0.2600
  149SAPE  H16X16551   6.505   5.379   9.046 -3.5819  2.4750 -2.1045
  149SAPE  H16Y16552   6.360   5.357   9.155  0.7288 -0.5803 -0.3479
  149SAPE  C31716553   6.544   5.329   9.253  0.5109 -0.5534  0.1981
  149SAPE  H17X16554   6.523   5.386   9.346  3.6197 -0.4161  0.9382
  149SAPE  H17Y16555   6.650   5.354   9.231 -0.3646  2.1209 -1.5141
  149SAPE  C31816556   6.528   5.180   9.270  0.2888  0.2792 -0.7556
  149SAPE  H18X16557   6.604   5.146   9.344 -2.8078 -1.4204  1.9225
  149SAPE  H18Y16558   6.539   5.132   9.170 -1.4575 -0.0606 -0.8216
  149SAPE  H18Z16559   6.426   5.166   9.313  1.2161  3.7313  3.1939
  150SAPE     N16560   2.211   3.260  10.882 -0.5831  0.4195  0.6010
  150SAPE   HN116561   2.253   3.260  10.787 -2.4116  0.2989 -0.2392
  150SAPE   HN216562   2.258   3.184  10.936 -0.1258 -1.7057 -2.4895
  150SAPE   HN316563   2.110   3.241  10.866 -0.4100  1.0195 -1.4434
  150SAPE   C1216564   2.235   3.393  10.954 -0.3440  0.1336 -0.6894
  150SAPE  H12A16565   2.167   3.389  11.041 -1.2402  2.6940 -1.1821
  150SAPE  H12B16566   2.198   3.477  10.890 -0.6390 -0.8819 -1.8931
  150SAPE   C1116567   2.381   3.405  11.005 -0.1492  0.3175 -0.3142
  150SAPE  H11A16568   2.393   3.341  11.095 -0.2513  1.1961  0.3420
  150SAPE  H11B16569   2.380   3.514  11.030 -1.0813 -0.0989  1.6111
  150SAPE     P16570   2.624   3.446  10.901 -0.0240  0.2882 -0.4363
  150SAPE   O1316571   2.665   3.465  11.041 -0.0290 -0.0279  0.1566
  150SAPE   O1416572   2.714   3.370  10.822 -0.1830  0.2873  0.3850
  150SAPE   O1216573   2.481   3.374  10.903  0.4482 -0.0375  0.3763
  150SAPE   O1116574   2.590   3.576  10.834 -0.3358 -0.0397  0.2828
  150SAPE    C116575   2.683   3.686  10.821 -0.3670 -0.7272 -0.0187
  150SAPE    HA16576   2.671   3.762  10.902 -0.1111  0.7134 -1.2734
  150SAPE    HB16577   2.787   3.649  10.812 -0.4420 -0.5289 -2.3607
  150SAPE    C216578   2.658   3.757  10.685 -0.2251  0.3221  0.3691
  150SAPE    HS16579   2.757   3.805  10.668 -0.4663  2.0436  3.2516
  150SAPE   O2116580   2.542   3.842  10.699 -0.2752  0.2890 -0.6276
  150SAPE   C2116581   2.548   3.946  10.620  0.3560  0.1602  0.0279
  150SAPE   O2216582   2.641   3.973  10.549 -0.3202 -0.4658  0.2737
  150SAPE   C2216583   2.417   4.013  10.620  0.4163 -0.3302 -0.3241
  150SAPE   H2R16584   2.346   3.935  10.654  1.7607 -0.5606  2.1805
  150SAPE   H2S16585   2.408   4.092  10.698  0.4133  0.5783 -1.2131
  150SAPE    C316586   2.646   3.653  10.564  0.7204  0.4683  0.0343
  150SAPE    HX16587   2.543   3.613  10.556  1.5668 -2.0819  0.7869
  150SAPE    HY16588   2.716   3.571  10.592  0.7745  0.8137  0.9167
  150SAPE   O3116589   2.670   3.702  10.432 -0.3424 -0.2842 -0.3947
  150SAPE   C3116590   2.805   3.725  10.411  0.1024  0.4197 -0.4050
  150SAPE   O3216591   2.894   3.691  10.482 -0.3254  0.6810 -0.8509
  150SAPE   C3216592   2.822   3.801  10.279 -0.0120  0.4025  0.0892
  150SAPE   H2X16593   2.744   3.880  10.271  0.8983  1.2429 -0.8105
  150SAPE   H2Y16594   2.811   3.728  10.196 -0.8660  3.1840 -2.4111
  150SAPE   C2316595   2.386   4.076  10.482 -0.2303  0.2558 -0.5880
  150SAPE   H3R16596   2.409   4.010  10.395 -3.0374  1.2229 -2.1716
  150SAPE   H3S16597   2.452   4.165  10.469  3.0487 -1.6377  1.5698
  150SAPE   C2416598   2.244   4.129  10.483 -0.5020  1.0225 -0.0977
  150SAPE   H4R16599   2.237   4.201  10.399 -0.6969 -1.6018 -2.4590
  150SAPE   H4S16600   2.228   4.185  10.578  1.4953 -0.2903  1.0963
  150SAPE   C2516601   2.126   4.035  10.483 -0.2022  0.0388 -0.4145
  150SAPE   H5R16602   2.081   4.006  10.579  0.8791 -1.9765 -0.4726
  150SAPE   C2616603   2.082   3.962  10.377  0.9737 -0.7603 -0.4312
  150SAPE   H6R16604   2.007   3.884  10.398  1.1173 -0.8750 -0.3466
  150SAPE   C2716605   2.137   3.970  10.235  0.1053 -0.3066 -0.0414
  150SAPE   H7R16606   2.130   3.871  10.185  1.2127 -1.6867  2.3409
  150SAPE   H7S16607   2.247   3.985  10.231  0.0305 -0.0592 -1.5994
  150SAPE   C2816608   2.089   4.099  10.161  0.0296 -0.2437  0.1962
  150SAPE   H8R16609   2.143   4.187  10.197  2.3175 -1.3370 -0.4120
  150SAPE   C2916610   1.998   4.116  10.061  0.6294  0.6718  0.4078
  150SAPE   H9R16611   1.978   4.216  10.022 -0.3108  0.2572 -0.2099
  150SAPE  C21016612   1.920   4.001   9.998  0.3083  0.3772  0.2791
  150SAPE  H10R16613   1.837   3.993  10.071  2.1750  1.7886  2.6877
  150SAPE  H10S16614   1.979   3.909   9.980 -3.1844 -1.5917 -2.5960
  150SAPE  C21116615   1.849   4.018   9.862 -0.6391  0.1938 -0.6624
  150SAPE  H11R16616   1.741   4.006   9.875 -0.4287 -2.5048 -0.8272
  150SAPE  C21216617   1.906   4.027   9.739 -0.1887 -0.3050  0.1000
  150SAPE  H12R16618   1.843   4.019   9.649 -1.9630 -1.7214  1.3967
  150SAPE  C21316619   2.056   4.022   9.727 -0.7443 -0.4710  0.1824
  150SAPE  H13R16620   2.111   4.031   9.823  2.5418  1.8023 -1.7256
  150SAPE  H13S16621   2.086   4.111   9.667 -2.7234 -0.0331 -0.2522
  150SAPE  C21416622   2.100   3.901   9.647  0.7512 -0.4861 -0.2603
  150SAPE  H14R16623   2.167   3.841   9.710 -0.5695 -1.0640  0.6508
  150SAPE  C21516624   2.083   3.876   9.515  0.7344  0.8452  0.1582
  150SAPE  H15R16625   2.125   3.787   9.467  2.0143  0.9258  1.0724
  150SAPE  C21616626   2.017   3.964   9.405 -0.2467 -0.1282  0.3886
  150SAPE  H16R16627   2.095   4.015   9.344 -2.0511 -0.1792 -2.1364
  150SAPE  H16S16628   1.965   4.051   9.450  0.3117  1.2762 -1.5500
  150SAPE  C21716629   1.919   3.899   9.312  0.0644  0.3454 -0.6055
  150SAPE  H17R16630   1.825   3.891   9.371  0.1091  0.3695 -0.5303
  150SAPE  H17S16631   1.965   3.805   9.275 -2.8827 -2.4332  2.1269
  150SAPE  C21816632   1.893   3.983   9.191  0.0544  0.5630 -0.4956
  150SAPE  H18R16633   1.985   3.992   9.131 -0.7137  1.1519 -1.6299
  150SAPE  H18S16634   1.867   4.090   9.210 -0.7207  0.5857 -1.5719
  150SAPE  C21916635   1.767   3.919   9.120 -1.0237 -0.3268  0.3882
  150SAPE  H19R16636   1.728   4.006   9.063  1.6091  0.9989  0.4721
  150SAPE  H19S16637   1.691   3.901   9.199  0.4715  0.4506  2.0653
  150SAPE  C22016638   1.796   3.803   9.026  0.0113 -0.2786  0.5092
  150SAPE  H20R16639   1.712   3.761   8.966 -0.6945 -0.5048  1.6232
  150SAPE  H20S16640   1.829   3.713   9.083 -0.5842 -1.1002 -0.4014
  150SAPE  H20T16641   1.880   3.837   8.961  0.0070  0.0675  0.6843
  150SAPE   C3316642   2.965   3.868  10.267 -0.3680  0.0119  0.1030
  150SAPE   H3X16643   3.046   3.796  10.289  2.2611  2.3118 -1.4713
  150SAPE   H3Y16644   2.961   3.942  10.350 -3.6791 -1.8342  1.8144
  150SAPE   C3416645   2.998   3.931  10.132 -0.2250 -0.0914 -0.4824
  150SAPE   H4X16646   3.092   3.989  10.125 -0.4347  0.1732 -1.2319
  150SAPE   H4Y16647   2.917   3.997  10.096 -1.4994 -1.0170  0.5887
  150SAPE   C3516648   2.999   3.828  10.025 -0.0849 -0.2223  0.2305
  150SAPE   H5X16649   2.899   3.792   9.996 -0.4418  2.8282 -3.1053
  150SAPE   H5Y16650   3.060   3.739  10.051 -2.6063 -1.9850  0.3376
  150SAPE   C3616651   3.067   3.870   9.890 -0.3255 -0.3825  0.4568
  150SAPE   H6X16652   3.069   3.781   9.823  0.5512  0.0327 -0.0823
  150SAPE   H6Y16653   3.173   3.896   9.913  0.1766 -1.7279 -0.1900
  150SAPE   C3716654   2.983   3.975   9.820  0.3346 -0.4458 -0.3689
  150SAPE   H7X16655   2.960   4.063   9.884 -1.3583 -0.0329 -1.4817
  150SAPE   H7Y16656   2.884   3.934   9.792 -0.0663 -0.7076  1.3298
  150SAPE   C3816657   3.029   4.029   9.680  0.9002 -0.0774 -0.2602
  150SAPE   H8X16658   3.000   3.952   9.606  1.3895 -0.0870 -0.4441
  150SAPE   H8Y16659   3.139   4.038   9.676  0.8600  1.7006  1.2490
  150SAPE   C3916660   2.980   4.173   9.655  0.1227 -0.5001 -0.1590
  150SAPE   H9X16661   3.005   4.239   9.741 -1.6764 -0.3768  0.3169
  150SAPE   H9Y16662   2.869   4.183   9.650  0.2935  2.0658 -0.0251
  150SAPE  C31016663   3.036   4.230   9.524  0.4529 -0.0601 -0.3168
  150SAPE  H10X16664   3.015   4.152   9.448 -4.2147  1.1318 -0.5777
  150SAPE  H10Y16665   3.146   4.244   9.532  0.3957 -0.1136  0.6205
  150SAPE  C31116666   2.976   4.366   9.483 -0.1968  0.9748 -0.9596
  150SAPE  H11X16667   3.014   4.442   9.554 -0.7951  0.1856  0.2340
  150SAPE  H11Y16668   2.866   4.355   9.499 -0.1898  2.4316  0.3177
  150SAPE  C31216669   2.993   4.387   9.338 -0.3210  0.2043  0.0209
  150SAPE  H12X16670   2.920   4.317   9.292  0.3261  0.3900 -1.3401
  150SAPE  H12Y16671   3.094   4.351   9.309 -0.4482 -0.3027  0.2077
  150SAPE  C31316672   2.961   4.525   9.292 -0.1981 -0.2960  0.4827
  150SAPE  H13X16673   3.047   4.588   9.322 -0.6175  0.3300  0.3877
  150SAPE  H13Y16674   2.881   4.561   9.360 -0.2404 -2.1226  1.4555
  150SAPE  C31416675   2.935   4.546   9.142  0.2001  1.0018  0.1084
  150SAPE  H14X16676   2.894   4.648   9.122  0.7095  1.1276 -0.3330
  150SAPE  H14Y16677   2.860   4.473   9.108  1.4624  0.2688 -1.2121
  150SAPE  C31516678   3.059   4.505   9.050 -0.1846 -0.1504 -0.1164
  150SAPE  H15X16679   3.077   4.396   9.052 -1.3157 -0.3505  0.0065
  150SAPE  H15Y16680   3.146   4.565   9.086 -1.1228  0.3506  1.4302
  150SAPE  C31616681   3.024   4.553   8.907  0.0720  0.4329 -0.0708
  150SAPE  H16X16682   3.011   4.663   8.909  1.9584  0.6845  1.6557
  150SAPE  H16Y16683   2.929   4.502   8.882  0.3987 -0.4906  0.5277
  150SAPE  C31716684   3.132   4.505   8.808  0.4387  0.8945 -0.1317
  150SAPE  H17X16685   3.236   4.520   8.843  0.5617 -0.2783  0.0517
  150SAPE  H17Y16686   3.128   4.570   8.718  0.1143  1.3703  0.2218
  150SAPE  C31816687   3.104   4.365   8.767  0.6542  0.7726  0.5186
  150SAPE  H18X16688   3.192   4.322   8.715 -0.2826 -3.4686  2.0907
  150SAPE  H18Y16689   3.012   4.349   8.706 -0.3392 -1.4346  2.4710
  150SAPE  H18Z16690   3.093   4.294   8.851 -3.5846  1.1670  0.4917
  151SAPE     N16691   3.757   1.885  10.885 -0.4312  0.7608  0.5876
  151SAPE   HN116692   3.714   1.926  10.800 -1.9087  0.1262  0.9912
  151SAPE   HN216693   3.770   1.956  10.960  0.3459  1.9590 -0.6292
  151SAPE   HN316694   3.845   1.836  10.861 -0.0851  0.5302  2.2014
  151SAPE   C1216695   3.660   1.781  10.923  0.3851 -0.2082  0.2389
  151SAPE  H12A16696   3.566   1.835  10.947  1.6553  0.8340  3.4184
  151SAPE  H12B16697   3.699   1.733  11.015 -0.0018 -0.9363  0.0309
  151SAPE   C1116698   3.657   1.680  10.808 -0.1898  0.8011 -0.0533
  151SAPE  H11A16699   3.601   1.716  10.719 -1.6742 -3.0448 -0.8469
  151SAPE  H11B16700   3.595   1.593  10.839  1.0595 -1.0161 -2.3126
  151SAPE     P16701   3.864   1.669  10.640  0.0007 -0.1915 -0.3906
  151SAPE   O1316702   3.955   1.789  10.665 -0.2004  0.0389 -1.2994
  151SAPE   O1416703   3.935   1.550  10.585  0.3065 -0.5620 -0.0564
  151SAPE   O1216704   3.783   1.624  10.770  0.7147  0.0801  0.5342
  151SAPE   O1116705   3.755   1.730  10.534 -0.3552 -0.0140 -0.4273
  151SAPE    C116706   3.679   1.628  10.461 -0.4942  0.6790 -0.0583
  151SAPE    HA16707   3.657   1.540  10.524 -1.1160  0.8091 -0.0904
  151SAPE    HB16708   3.583   1.675  10.431 -0.6242  0.0538 -0.6302
  151SAPE    C216709   3.758   1.568  10.332  0.0765  0.4447  0.0251
  151SAPE    HS16710   3.856   1.530  10.365 -0.0944 -0.2317 -0.2408
  151SAPE   O2116711   3.765   1.683  10.241 -0.1793 -0.3493  0.1960
  151SAPE   C2116712   3.879   1.722  10.191  0.3034 -0.1457  0.0047
  151SAPE   O2216713   3.977   1.648  10.202  0.2880 -0.0041 -0.2152
  151SAPE   C2216714   3.860   1.861  10.122  0.2901 -0.2390  0.3378
  151SAPE   H2R16715   3.803   1.832  10.030 -0.2717  0.6721  0.3862
  151SAPE   H2S16716   3.799   1.921  10.193 -0.9221 -0.1841 -0.7049
  151SAPE    C316717   3.683   1.441  10.271  0.2955 -1.1971 -0.5466
  151SAPE    HX16718   3.659   1.376  10.357 -2.0338  0.7761  0.4144
  151SAPE    HY16719   3.747   1.392  10.195  0.6687 -0.8583 -0.4576
  151SAPE   O3116720   3.557   1.472  10.213 -0.2681  0.0515  0.1584
  151SAPE   C3116721   3.552   1.456  10.078  0.7792  0.6964 -0.4222
  151SAPE   O3216722   3.647   1.456  10.001 -0.0819 -0.2932  0.7707
  151SAPE   C3216723   3.402   1.434  10.042  0.2991 -0.4446  0.5625
  151SAPE   H2X16724   3.343   1.528  10.055 -2.2163 -1.8732  0.0920
  151SAPE   H2Y16725   3.347   1.363  10.108 -1.0078  1.4273  1.5870
  151SAPE   C2316726   3.998   1.926  10.095 -0.1331 -0.0262  0.4128
  151SAPE   H3R16727   4.059   1.863  10.027 -1.0575 -0.1582 -0.3067
  151SAPE   H3S16728   4.061   1.933  10.186 -0.6678 -0.1609  0.7972
  151SAPE   C2416729   3.980   2.071  10.054  0.4607 -0.9166  0.3855
  151SAPE   H4R16730   3.940   2.132  10.137  0.0879 -0.3250 -0.2165
  151SAPE   H4S16731   3.905   2.073   9.972  2.0884 -0.6036 -1.1715
  151SAPE   C2516732   4.109   2.128  10.012  0.5129  0.3566  0.3184
  151SAPE   H5R16733   4.173   2.164  10.094 -1.0936  1.9435  0.9582
  151SAPE   C2616734   4.149   2.153   9.890 -0.8858  0.3953  0.5388
  151SAPE   H6R16735   4.251   2.185   9.863 -1.2734  0.7102 -0.5788
  151SAPE   C2716736   4.065   2.102   9.771  0.1887 -0.1427  0.4060
  151SAPE   H7R16737   3.961   2.136   9.790  1.0120  1.4645  2.3637
  151SAPE   H7S16738   4.059   1.991   9.767 -0.0899 -0.1604  1.1960
  151SAPE   C2816739   4.118   2.154   9.639  0.4183 -0.1479 -0.4522
  151SAPE   H8R16740   4.177   2.246   9.642 -0.8417  0.7992 -2.4194
  151SAPE   C2916741   4.104   2.100   9.517  0.0836  0.3630  0.0470
  151SAPE   H9R16742   4.144   2.175   9.446  0.8303 -0.3535 -0.2994
  151SAPE  C21016743   4.035   1.972   9.483 -0.0525  0.0258  0.1832
  151SAPE  H10R16744   3.936   1.976   9.532 -1.4865 -1.0904 -2.4530
  151SAPE  H10S16745   4.097   1.887   9.521  1.0912  1.2583  1.1901
  151SAPE  C21116746   4.034   1.964   9.329  0.5097 -0.1799 -0.1773
  151SAPE  H11R16747   4.134   1.962   9.284  1.9120 -1.2075  2.6834
  151SAPE  C21216748   3.925   1.926   9.256 -0.6499 -0.0177  0.4694
  151SAPE  H12R16749   3.949   1.904   9.150  1.5125  0.1966  0.8670
  151SAPE  C21316750   3.786   1.897   9.306 -0.7732  0.8623  0.3939
  151SAPE  H13R16751   3.772   1.961   9.396  2.1665  1.0835  0.7735
  151SAPE  H13S16752   3.785   1.792   9.343  1.5893  0.3246 -0.8861
  151SAPE  C21416753   3.683   1.927   9.196 -0.4324  0.4181 -0.8579
  151SAPE  H14R16754   3.680   2.030   9.158  0.8175  0.2565 -1.4507
  151SAPE  C21516755   3.597   1.841   9.138  0.1270  0.3262  0.1709
  151SAPE  H15R16756   3.520   1.870   9.066 -0.4940  0.9570  1.0629
  151SAPE  C21616757   3.591   1.695   9.157  0.3942 -0.5956 -0.1671
  151SAPE  H16R16758   3.484   1.666   9.149  0.0694  0.5858 -0.1920
  151SAPE  H16S16759   3.630   1.663   9.256 -0.1079  0.9987  0.5793
  151SAPE  C21716760   3.667   1.603   9.055  0.0018  0.0666  0.0741
  151SAPE  H17R16761   3.667   1.495   9.077 -3.4679 -0.1772 -0.5167
  151SAPE  H17S16762   3.773   1.637   9.055 -0.0277  0.1821 -0.7561
  151SAPE  C21816763   3.629   1.611   8.906  0.3597 -0.3736 -0.0250
  151SAPE  H18R16764   3.619   1.721   8.891 -1.7574 -0.6488 -1.0683
  151SAPE  H18S16765   3.532   1.562   8.885  0.0085  1.7470 -4.5032
  151SAPE  C21916766   3.739   1.545   8.824 -0.5322 -0.2192  0.1796
  151SAPE  H19R16767   3.792   1.471   8.888  0.8273 -1.5790 -2.3242
  151SAPE  H19S16768   3.819   1.615   8.793  0.6029 -1.3452  0.4837
  151SAPE  C22016769   3.694   1.471   8.698  0.1380 -0.5400  0.2136
  151SAPE  H20R16770   3.647   1.371   8.706  0.1842 -0.5764  0.0277
  151SAPE  H20S16771   3.781   1.454   8.632 -0.4764 -3.4580  0.0216
  151SAPE  H20T16772   3.622   1.539   8.648 -1.3358 -0.3400  2.4329
  151SAPE   C3316773   3.379   1.375   9.897 -0.9668 -0.4187  0.7773
  151SAPE   H3X16774   3.408   1.268   9.894 -2.1614 -0.7759 -2.7836
  151SAPE   H3Y16775   3.446   1.427   9.826  0.3487 -1.5945  1.1175
  151SAPE   C3416776   3.236   1.365   9.845 -0.6354  0.3814 -0.0727
  151SAPE   H4X16777   3.192   1.467   9.847 -1.1913  0.1378  1.1526
  151SAPE   H4Y16778   3.184   1.307   9.923  0.0060  0.7992  0.6810
  151SAPE   C3516779   3.219   1.311   9.704  0.0881  0.9096  0.9482
  151SAPE   H5X16780   3.112   1.330   9.681 -0.3646 -1.6571  0.5634
  151SAPE   H5Y16781   3.241   1.203   9.691 -1.1873  0.6706  0.6402
  151SAPE   C3616782   3.309   1.368   9.595  0.0565 -0.2129  0.0877
  151SAPE   H6X16783   3.411   1.326   9.607  0.0606  0.3761  2.6402
  151SAPE   H6Y16784   3.315   1.479   9.600 -0.1265 -0.2535  1.5886
  151SAPE   C3716785   3.251   1.341   9.449 -0.1964 -0.2572  0.2891
  151SAPE   H7X16786   3.144   1.370   9.446 -0.7683 -2.1856 -3.7286
  151SAPE   H7Y16787   3.243   1.232   9.428  1.4673 -0.3672  0.1209
  151SAPE   C3816788   3.334   1.404   9.340  0.5049 -0.3000  0.4804
  151SAPE   H8X16789   3.437   1.363   9.331 -0.4344 -2.5338 -1.4763
  151SAPE   H8Y16790   3.341   1.511   9.367  0.5321  0.3164 -1.8091
  151SAPE   C3916791   3.264   1.390   9.206 -0.4920 -0.5254 -0.2919
  151SAPE   H9X16792   3.202   1.482   9.194  1.0496  0.9006  1.8761
  151SAPE   H9Y16793   3.194   1.304   9.201 -1.1305  0.0600 -1.7965
  151SAPE  C31016794   3.361   1.382   9.083 -0.6973  0.0253 -0.0838
  151SAPE  H10X16795   3.409   1.281   9.079 -1.2026 -0.4544  3.2295
  151SAPE  H10Y16796   3.440   1.460   9.077 -0.8381  0.1754  0.0294
  151SAPE  C31116797   3.274   1.396   8.954  0.1691  1.0273  0.1058
  151SAPE  H11X16798   3.270   1.506   8.935  1.0350  1.0217 -0.1405
  151SAPE  H11Y16799   3.178   1.348   8.982 -0.4514  0.9505 -1.9828
  151SAPE  C31216800   3.337   1.326   8.829  0.2353  0.1839 -0.1336
  151SAPE  H12X16801   3.432   1.383   8.821 -0.0905  1.2466  2.6243
  151SAPE  H12Y16802   3.272   1.359   8.746  0.3188  0.6165 -0.0296
  151SAPE  C31316803   3.375   1.175   8.837 -0.3874 -0.1297  0.1987
  151SAPE  H13X16804   3.283   1.130   8.880  0.3256 -0.5151  1.3718
  151SAPE  H13Y16805   3.464   1.150   8.900 -0.8375  0.3134  1.0257
  151SAPE  C31416806   3.396   1.102   8.704 -0.1963  0.3723 -0.2727
  151SAPE  H14X16807   3.350   1.149   8.614  2.0710 -0.8216 -2.1758
  151SAPE  H14Y16808   3.335   1.010   8.707  0.6796 -0.2379 -0.8200
  151SAPE  C31516809   3.544   1.073   8.666 -0.4537  0.5847  0.1431
  151SAPE  H15X16810   3.592   0.981   8.706  1.2788 -0.4437 -3.8419
  151SAPE  H15Y16811   3.611   1.146   8.718  1.6573 -1.2090  0.1115
  151SAPE  C31616812   3.567   1.074   8.518  0.5186  0.1513 -0.6732
  151SAPE  H16X16813   3.675   1.074   8.493  0.1519 -0.3930 -2.4411
  151SAPE  H16Y16814   3.524   1.165   8.472 -1.0317  0.2322  0.8468
  151SAPE  C31716815   3.502   0.955   8.446 -0.1891  0.0173 -0.3237
  151SAPE  H17X16816   3.507   0.979   8.338  0.1234 -3.0307 -1.0562
  151SAPE  H17Y16817   3.396   0.948   8.480 -0.6610  2.3495 -1.0744
  151SAPE  C31816818   3.568   0.822   8.456  0.5900  0.1862 -0.1774
  151SAPE  H18X16819   3.679   0.825   8.449  0.6432  1.5743  0.8673
  151SAPE  H18Y16820   3.527   0.756   8.377 -2.4530 -0.1135  1.4911
  151SAPE  H18Z16821   3.541   0.767   8.548  1.5022  0.6785  0.3910
  152SAPE     N16822   5.176   3.012  10.607  0.1254 -0.0855  0.4341
  152SAPE   HN116823   5.230   3.096  10.637  3.0152 -2.0384  1.1425
  152SAPE   HN216824   5.075   3.031  10.593  0.6987  1.2429 -2.9200
  152SAPE   HN316825   5.180   2.942  10.683 -1.6899 -2.7403 -1.6957
  152SAPE   C1216826   5.235   2.952  10.480  0.0770  0.0420  0.0244
  152SAPE  H12A16827   5.202   3.010  10.390 -1.3783 -1.8735 -0.7508
  152SAPE  H12B16828   5.211   2.845  10.464  1.5944 -0.0321 -2.3259
  152SAPE   C1116829   5.380   2.967  10.489 -0.4897  0.3721  0.1227
  152SAPE  H11A16830   5.410   3.073  10.481 -0.0431  0.3385  1.2089
  152SAPE  H11B16831   5.422   2.920  10.398 -0.7372 -0.9483  0.6587
  152SAPE     P16832   5.554   2.805  10.610 -0.3204  0.3433 -0.2109
  152SAPE   O1316833   5.594   2.777  10.750  0.8652  0.4146  0.1777
  152SAPE   O1416834   5.520   2.693  10.522  0.6602  0.4244  0.5299
  152SAPE   O1216835   5.439   2.911  10.606 -0.0890  0.2865 -0.0823
  152SAPE   O1116836   5.671   2.882  10.543  0.0658  0.5492  0.4444
  152SAPE    C116837   5.751   2.989  10.591 -0.3075 -0.2889  0.3247
  152SAPE    HA16838   5.704   3.088  10.573  0.1252 -0.0716  0.3696
  152SAPE    HB16839   5.764   2.988  10.701  0.4001  2.4025  0.3353
  152SAPE    C216840   5.886   2.996  10.519 -0.2134 -1.5598  1.3741
  152SAPE    HS16841   5.946   3.086  10.544 -1.1392 -0.9216  1.3490
  152SAPE   O2116842   5.874   2.992  10.376 -0.0242 -0.5834  0.9109
  152SAPE   C2116843   5.857   3.111  10.312 -0.4191  0.0535  0.4413
  152SAPE   O2216844   5.853   3.220  10.364  0.5960  0.4257 -0.4984
  152SAPE   C2216845   5.839   3.085  10.159 -0.3125 -1.4374  0.0285
  152SAPE   H2R16846   5.804   2.981  10.143 -0.2279 -1.4745  0.0845
  152SAPE   H2S16847   5.754   3.151  10.134 -1.3972 -2.8241 -0.0798
  152SAPE    C316848   5.978   2.876  10.555 -0.1154 -0.7457  0.5344
  152SAPE    HX16849   5.941   2.773  10.538 -1.4013 -0.3074  0.5673
  152SAPE    HY16850   5.981   2.875  10.666 -0.2508  1.4966  0.6072
  152SAPE   O3116851   6.112   2.891  10.512  0.2378 -0.2774  0.0403
  152SAPE   C3116852   6.147   2.830  10.396  0.0606 -0.1357  0.1645
  152SAPE   O3216853   6.072   2.781  10.318 -0.0168 -0.1908 -0.0852
  152SAPE   C3216854   6.297   2.843  10.375  0.0670  0.6375  1.1898
  152SAPE   H2X16855   6.330   2.738  10.361 -0.0756  0.7345 -0.0038
  152SAPE   H2Y16856   6.337   2.877  10.473  1.8213 -0.7814  1.0119
  152SAPE   C2316857   5.957   3.115  10.066  0.2091  0.0383 -0.1336
  152SAPE   H3R16858   6.025   3.028  10.082 -2.7389 -1.9886  2.4798
  152SAPE   H3S16859   6.010   3.206  10.103  0.7163 -1.1243  2.1877
  152SAPE   C2416860   5.929   3.145   9.920  0.1086  1.3081  0.2863
  152SAPE   H4R16861   6.026   3.177   9.877 -0.6239  1.8582 -1.0041
  152SAPE   H4S16862   5.852   3.224   9.905 -0.7271  0.3781 -0.4830
  152SAPE   C2516863   5.883   3.016   9.850  0.4675 -0.1051  0.4620
  152SAPE   H5R16864   5.814   2.953   9.909 -2.3226  1.3434 -1.0146
  152SAPE   C2616865   5.924   2.955   9.738 -0.0155  1.0082 -0.1874
  152SAPE   H6R16866   5.872   2.862   9.712  0.2245  0.4645  1.1924
  152SAPE   C2716867   6.034   3.000   9.646 -0.1780 -0.2026  0.4252
  152SAPE   H7R16868   6.114   2.925   9.628  0.0289  0.0576  0.2570
  152SAPE   H7S16869   6.086   3.086   9.692 -0.8974  0.3171  0.2811
  152SAPE   C2816870   5.967   3.026   9.514  0.3756  0.7393 -0.5652
  152SAPE   H8R16871   5.881   3.093   9.533 -0.5926 -0.5371 -0.2952
  152SAPE   C2916872   5.997   2.981   9.389  0.7386  0.3851 -0.1121
  152SAPE   H9R16873   5.927   3.014   9.311 -1.1305 -0.6506  1.0213
  152SAPE  C21016874   6.100   2.897   9.337 -0.1938  0.4363 -0.2050
  152SAPE  H10R16875   6.048   2.835   9.261 -0.0378  1.7569 -1.4395
  152SAPE  H10S16876   6.133   2.820   9.409  1.9901  1.2856 -0.2299
  152SAPE  C21116877   6.221   2.966   9.290 -0.3699 -0.4842 -0.0057
  152SAPE  H11R16878   6.298   2.989   9.365  0.4210 -0.4016 -0.8222
  152SAPE  C21216879   6.234   3.025   9.173 -0.3412  0.0805  0.6111
  152SAPE  H12R16880   6.332   3.071   9.157 -0.0245 -0.6865  0.3179
  152SAPE  C21316881   6.131   3.043   9.061 -1.3467  0.3800  0.2823
  152SAPE  H13R16882   6.075   3.138   9.074 -0.1649  0.8599  2.2287
  152SAPE  H13S16883   6.058   2.959   9.069 -0.4786 -0.2270  2.3755
  152SAPE  C21416884   6.193   3.037   8.919  0.5909 -0.5730  0.3243
  152SAPE  H14R16885   6.269   2.959   8.902 -0.2040 -1.5775  1.1970
  152SAPE  C21516886   6.185   3.139   8.828  0.5269 -0.3213 -0.8482
  152SAPE  H15R16887   6.238   3.129   8.732  1.0252 -0.5649 -0.5512
  152SAPE  C21616888   6.105   3.268   8.855 -0.4781  0.3514 -0.1040
  152SAPE  H16R16889   6.161   3.317   8.937 -0.0069 -1.0166  0.4158
  152SAPE  H16S16890   5.998   3.255   8.880 -0.6060 -1.1685 -1.2737
  152SAPE  C21716891   6.126   3.374   8.748  0.1894 -0.1973 -0.3121
  152SAPE  H17R16892   6.229   3.415   8.761  0.1043 -0.3407  0.9648
  152SAPE  H17S16893   6.063   3.464   8.763  0.7059  0.2930 -0.9960
  152SAPE  C21816894   6.107   3.320   8.605 -0.5034 -0.8325 -0.0687
  152SAPE  H18R16895   6.003   3.282   8.592 -1.2318  1.3208 -1.0233
  152SAPE  H18S16896   6.183   3.249   8.567  0.5425  0.1633  0.1188
  152SAPE  C21916897   6.133   3.429   8.497 -0.0733 -0.3484 -0.2831
  152SAPE  H19R16898   6.237   3.467   8.507  0.4364 -2.0585  1.6258
  152SAPE  H19S16899   6.067   3.517   8.516 -2.1404 -2.1380  1.4019
  152SAPE  C22016900   6.121   3.386   8.349  0.0323  0.2506  0.4535
  152SAPE  H20R16901   6.196   3.310   8.319  0.4854  1.1647 -0.8742
  152SAPE  H20S16902   6.125   3.471   8.277  1.8721 -0.8869 -0.8753
  152SAPE  H20T16903   6.023   3.336   8.340  0.6206 -0.7093 -0.8476
  152SAPE   C3316904   6.333   2.935  10.256 -0.3598 -0.6005  0.4154
  152SAPE   H3X16905   6.443   2.953  10.260 -0.1213 -1.6074 -0.8538
  152SAPE   H3Y16906   6.277   3.030  10.261  0.9098  0.1345  1.0704
  152SAPE   C3416907   6.319   2.864  10.111 -0.1277  0.3179 -0.4159
  152SAPE   H4X16908   6.218   2.818  10.115  0.1229 -0.1564  1.2613
  152SAPE   H4Y16909   6.395   2.784  10.102  0.8164  0.8004  2.2232
  152SAPE   C3516910   6.334   2.960   9.993 -0.0008  0.1059  0.3547
  152SAPE   H5X16911   6.438   2.998   9.989  0.5933 -1.5035 -1.7011
  152SAPE   H5Y16912   6.266   3.044  10.017 -2.1295 -1.4413  0.0200
  152SAPE   C3616913   6.311   2.903   9.851 -0.0360  0.0121 -0.6400
  152SAPE   H6X16914   6.306   3.003   9.803  1.0468  0.4262  0.0674
  152SAPE   H6Y16915   6.218   2.843   9.844  0.0808 -0.3211  0.4712
  152SAPE   C3716916   6.421   2.809   9.796  0.1553  0.2133  0.0644
  152SAPE   H7X16917   6.416   2.724   9.867 -3.3952 -0.1581 -0.3989
  152SAPE   H7Y16918   6.519   2.860   9.809  0.5388 -0.7089  0.9077
  152SAPE   C3816919   6.394   2.771   9.655  0.0867  0.4491 -0.1133
  152SAPE   H8X16920   6.415   2.844   9.574 -0.6351  0.8542  0.0484
  152SAPE   H8Y16921   6.287   2.742   9.648 -0.3155  1.7006  0.4963
  152SAPE   C3916922   6.477   2.641   9.624 -0.3863 -0.1194  0.1177
  152SAPE   H9X16923   6.428   2.557   9.678  2.0818 -1.7150  0.0549
  152SAPE   H9Y16924   6.585   2.649   9.650  0.6042 -2.1314 -2.8061
  152SAPE  C31016925   6.483   2.606   9.472 -0.3798 -0.1859  0.3962
  152SAPE  H10X16926   6.377   2.612   9.440 -0.6616  1.3093  1.5436
  152SAPE  H10Y16927   6.525   2.504   9.456  0.2967  0.2151 -0.4654
  152SAPE  C31116928   6.565   2.705   9.379  0.4784  0.2672  0.2491
  152SAPE  H11X16929   6.665   2.697   9.426  0.2456 -0.1555  0.6859
  152SAPE  H11Y16930   6.527   2.809   9.389 -0.2794  0.2124 -1.6405
  152SAPE  C31216931   6.555   2.659   9.231 -0.2275 -0.1391 -0.7927
  152SAPE  H12X16932   6.446   2.646   9.216 -0.5202  0.7282  0.3661
  152SAPE  H12Y16933   6.612   2.564   9.226  1.9361  1.0951 -0.7760
  152SAPE  C31316934   6.604   2.763   9.137  0.2576 -0.0158 -0.8110
  152SAPE  H13X16935   6.696   2.816   9.168 -0.0031 -0.0423  0.0212
  152SAPE  H13Y16936   6.528   2.842   9.120 -1.3456 -1.1244  0.8146
  152SAPE  C31416937   6.634   2.688   9.012  0.5026  0.2888  0.4161
  152SAPE  H14X16938   6.551   2.634   8.962  0.2996  1.8470 -1.0075
  152SAPE  H14Y16939   6.712   2.611   9.031  2.1027  1.3243 -1.6216
  152SAPE  C31516940   6.711   2.776   8.914  0.1206  0.5330 -0.5302
  152SAPE  H15X16941   6.818   2.782   8.944 -0.6494  0.5645  2.5454
  152SAPE  H15Y16942   6.669   2.878   8.899 -0.1485  0.9375  2.4856
  152SAPE  C31616943   6.711   2.708   8.775 -0.1696  0.0524 -0.9122
  152SAPE  H16X16944   6.607   2.674   8.759 -0.1551 -0.9520  0.8782
  152SAPE  H16Y16945   6.766   2.613   8.786 -3.1123 -1.5633  1.3492
  152SAPE  C31716946   6.758   2.802   8.655 -0.1266 -0.2975  0.3075
  152SAPE  H17X16947   6.867   2.786   8.650 -0.0098  0.7594 -1.3465
  152SAPE  H17Y16948   6.760   2.909   8.683 -0.0993 -0.0131 -0.7426
  152SAPE  C31816949   6.700   2.769   8.517  0.4173 -0.0822 -0.3089
  152SAPE  H18X16950   6.737   2.832   8.434  0.7354 -1.0280 -0.8993
  152SAPE  H18Y16951   6.590   2.777   8.523  0.4159 -1.0533  3.1380
  152SAPE  H18Z16952   6.721   2.665   8.483 -2.6118 -1.1313  0.6937
  153SAPE     N16953   6.021   3.688  10.922  0.0349  0.4065  0.1486
  153SAPE   HN116954   6.058   3.616  10.987 -1.7669  0.7773  1.6863
  153SAPE   HN216955   6.089   3.701  10.844 -0.5032 -1.3004 -0.6424
  153SAPE   HN316956   6.006   3.776  10.975 -0.9770  0.4785 -0.2553
  153SAPE   C1216957   5.889   3.660  10.865  1.1184 -0.7285 -0.0200
  153SAPE  H12A16958   5.820   3.636  10.949  0.6759 -0.8024 -0.4011
  153SAPE  H12B16959   5.892   3.572  10.798  1.1996 -0.7998  0.0749
  153SAPE   C1116960   5.847   3.776  10.775 -0.2660 -0.1755  0.0342
  153SAPE  H11A16961   5.767   3.727  10.715  0.4396 -0.7474 -0.4690
  153SAPE  H11B16962   5.928   3.796  10.702 -0.5020  0.6335 -0.0108
  153SAPE     P16963   5.738   4.006  10.790  0.0032 -0.2171 -0.0509
  153SAPE   O1316964   5.635   3.961  10.693  0.1054  0.1799  0.3369
  153SAPE   O1416965   5.693   4.095  10.896 -0.0719 -0.0667  0.3914
  153SAPE   O1216966   5.812   3.886  10.853  0.0949 -0.2520  1.2868
  153SAPE   O1116967   5.859   4.077  10.709  0.1390  0.7526 -0.0761
  153SAPE    C116968   5.982   4.111  10.761 -1.1447 -0.1371 -0.4376
  153SAPE    HA16969   5.957   4.175  10.849 -1.5732  0.3169 -0.8858
  153SAPE    HB16970   6.029   4.019  10.802 -1.2771  0.8023  1.9835
  153SAPE    C216971   6.073   4.184  10.665 -0.9160 -1.1915  0.2646
  153SAPE    HS16972   6.013   4.254  10.603  1.9810 -0.7871 -2.3252
  153SAPE   O2116973   6.129   4.083  10.573  0.4489 -0.1624 -0.0356
  153SAPE   C2116974   6.068   4.052  10.463 -0.1987 -0.3216  0.2373
  153SAPE   O2216975   5.977   4.114  10.405 -0.3508 -0.5703 -0.8726
  153SAPE   C2216976   6.121   3.919  10.406 -0.8489  0.6424  0.2904
  153SAPE   H2R16977   6.230   3.922  10.427 -0.2139  0.4731 -2.6363
  153SAPE   H2S16978   6.084   3.828  10.458  0.7513  0.4095  1.0655
  153SAPE    C316979   6.187   4.263  10.722 -0.2149 -0.5063  0.5237
  153SAPE    HX16980   6.264   4.186  10.744  0.9507 -0.1165 -1.8942
  153SAPE    HY16981   6.143   4.308  10.814 -0.9401 -1.3240  0.5934
  153SAPE   O3116982   6.232   4.365  10.627 -0.4365 -0.4728  0.6800
  153SAPE   C3116983   6.167   4.478  10.632  0.0201  0.6739 -0.0487
  153SAPE   O3216984   6.076   4.503  10.712  0.1066 -0.2049  0.3044
  153SAPE   C3216985   6.216   4.569  10.519  0.5186  0.0074 -0.0786
  153SAPE   H2X16986   6.129   4.633  10.494 -0.9046 -2.7996 -3.0411
  153SAPE   H2Y16987   6.244   4.508  10.430  2.5431  1.4052 -0.4803
  153SAPE   C2316988   6.097   3.907  10.250  0.0062 -0.5438 -0.2829
  153SAPE   H3R16989   6.159   3.983  10.197  0.0754 -0.5472 -0.2065
  153SAPE   H3S16990   5.995   3.921  10.209  0.5140 -1.6120 -1.9909
  153SAPE   C2416991   6.132   3.762  10.208  0.5177  0.3053 -0.0873
  153SAPE   H4R16992   6.218   3.732  10.272  1.9554  1.1817 -1.5147
  153SAPE   H4S16993   6.168   3.767  10.103 -0.7820  2.7274 -0.4906
  153SAPE   C2516994   6.020   3.663  10.232 -0.4445  0.5401  0.3133
  153SAPE   H5R16995   5.975   3.674  10.332 -3.2982 -0.7994 -0.7258
  153SAPE   C2616996   5.963   3.575  10.151  0.2090  0.2249  0.6188
  153SAPE   H6R16997   5.896   3.499  10.193 -1.1495  0.5606 -0.8376
  153SAPE   C2716998   6.000   3.556  10.009 -0.3708  0.2725 -0.4377
  153SAPE   H7R16999   6.047   3.458   9.988  0.9198  0.6681  0.4751
  153SAPE   H7S17000   6.068   3.637   9.973  2.1628 -2.8134 -3.2666
  153SAPE   C2817001   5.880   3.572   9.918  0.2381  0.5174  0.3806
  153SAPE   H8R17002   5.778   3.576   9.959  0.2197 -1.2618  0.5858
  153SAPE   C2917003   5.890   3.564   9.783  0.0900  0.0195  0.2576
  153SAPE   H9R17004   5.808   3.568   9.711  0.8435 -1.9842 -0.7680
  153SAPE  C21017005   6.019   3.563   9.702 -0.0155 -0.6957  0.2734
  153SAPE  H10R17006   6.100   3.603   9.767  1.7444  0.8727 -2.6672
  153SAPE  H10S17007   6.013   3.635   9.617 -5.0002 -1.3393 -0.2467
  153SAPE  C21117008   6.050   3.428   9.654  0.1581  0.9545 -0.1403
  153SAPE  H11R17009   6.045   3.362   9.742  3.4929  0.6085 -0.0916
  153SAPE  C21217010   6.089   3.384   9.529  0.0713  0.1836  0.4105
  153SAPE  H12R17011   6.115   3.279   9.512  0.0843  0.6616 -3.3158
  153SAPE  C21317012   6.105   3.476   9.409  0.1094 -0.9299  0.0718
  153SAPE  H13R17013   6.213   3.501   9.397 -0.2891  1.0787  0.2719
  153SAPE  H13S17014   6.051   3.570   9.432  2.2323  0.4660 -0.3591
  153SAPE  C21417015   6.058   3.435   9.278  0.3325  0.1909 -0.3625
  153SAPE  H14R17016   6.006   3.338   9.269  1.5384 -0.2863 -3.4386
  153SAPE  C21517017   6.067   3.510   9.167 -0.4713  0.5190  0.3075
  153SAPE  H15R17018   6.022   3.482   9.071  2.1626  0.9966 -1.1849
  153SAPE  C21617019   6.130   3.651   9.176  0.5922  0.0118 -0.8860
  153SAPE  H16R17020   6.240   3.649   9.190  0.8184 -1.2409 -2.5942
  153SAPE  H16S17021   6.089   3.704   9.265 -0.9715  0.6283 -1.9479
  153SAPE  C21717022   6.099   3.743   9.057 -0.2238  0.7240  0.1722
  153SAPE  H17R17023   6.121   3.846   9.093  1.7574  0.0783  0.9107
  153SAPE  H17S17024   5.994   3.742   9.021  0.1116  0.2308 -0.8247
  153SAPE  C21817025   6.194   3.712   8.944 -0.1995  0.1727 -1.0445
  153SAPE  H18R17026   6.158   3.611   8.917 -0.2600 -0.5902  1.6439
  153SAPE  H18S17027   6.304   3.714   8.961 -0.0608  1.3913 -1.8988
  153SAPE  C21917028   6.174   3.795   8.818 -0.3758  0.0654  0.5683
  153SAPE  H19R17029   6.183   3.905   8.831  0.3088  0.2978 -1.3822
  153SAPE  H19S17030   6.065   3.781   8.801  0.1052 -3.9445 -0.2801
  153SAPE  C22017031   6.265   3.747   8.702  0.1098 -0.5549  0.1325
  153SAPE  H20R17032   6.367   3.742   8.746 -0.3773 -0.9481  1.2601
  153SAPE  H20S17033   6.245   3.820   8.620  0.7399 -0.0774  0.3939
  153SAPE  H20T17034   6.236   3.646   8.667 -0.2143  0.3473 -2.4126
  153SAPE   C3317035   6.343   4.641  10.558 -0.7539 -0.1531  0.2149
  153SAPE   H3X17036   6.406   4.562  10.604 -1.3323 -1.1711 -0.7169
  153SAPE   H3Y17037   6.318   4.712  10.640 -1.5916 -1.0245  0.7269
  153SAPE   C3417038   6.412   4.724  10.444 -0.6111  0.6844 -0.3085
  153SAPE   H4X17039   6.504   4.774  10.481 -0.5051  0.8614 -0.8139
  153SAPE   H4Y17040   6.339   4.801  10.411  0.3191  2.0427  0.6474
  153SAPE   C3517041   6.446   4.646  10.318  0.0083  0.0032  0.1581
  153SAPE   H5X17042   6.353   4.621  10.263  0.6131 -0.4166 -0.6990
  153SAPE   H5Y17043   6.508   4.554  10.325  0.5894  0.4583  1.2341
  153SAPE   C3617044   6.522   4.744  10.225 -0.1004  0.0802 -0.9416
  153SAPE   H6X17045   6.631   4.747  10.245  0.1017  0.9768 -2.1074
  153SAPE   H6Y17046   6.483   4.847  10.237 -1.2857 -0.2787 -1.5471
  153SAPE   C3717047   6.497   4.707  10.078  0.1898  0.1984 -0.5112
  153SAPE   H7X17048   6.399   4.660  10.057 -0.1027 -0.4271  1.9519
  153SAPE   H7Y17049   6.569   4.626  10.052  0.1732 -0.4828  1.4209
  153SAPE   C3817050   6.514   4.817   9.976  0.2137  0.0570  0.5084
  153SAPE   H8X17051   6.604   4.877  10.004  0.6970  0.8246 -2.3578
  153SAPE   H8Y17052   6.441   4.899   9.991 -0.3547 -0.6523  1.7778
  153SAPE   C3917053   6.527   4.765   9.833 -0.6569 -0.0737 -0.4316
  153SAPE   H9X17054   6.427   4.728   9.804 -0.0018 -1.0268 -1.5663
  153SAPE   H9Y17055   6.597   4.679   9.840 -1.4429 -0.6535  0.4395
  153SAPE  C31017056   6.562   4.869   9.722  0.3656  0.0666 -0.7120
  153SAPE  H10X17057   6.669   4.900   9.725 -0.0572  1.5312  1.3388
  153SAPE  H10Y17058   6.502   4.961   9.737  1.5166  0.8937 -1.0259
  153SAPE  C31117059   6.534   4.820   9.572  0.0892 -0.9723 -0.0883
  153SAPE  H11X17060   6.593   4.728   9.555  0.1286 -0.6729 -1.7357
  153SAPE  H11Y17061   6.567   4.894   9.495 -0.8516  0.8844  1.2151
  153SAPE  C31217062   6.386   4.797   9.535 -0.1451 -0.1116 -0.3737
  153SAPE  H12X17063   6.330   4.869   9.599  0.9571  2.5436 -2.2306
  153SAPE  H12Y17064   6.359   4.697   9.577 -0.6952  0.5649  0.9525
  153SAPE  C31317065   6.361   4.832   9.390  0.4792 -0.4644 -0.0637
  153SAPE  H13X17066   6.419   4.924   9.367  1.5429 -1.9455 -4.3416
  153SAPE  H13Y17067   6.254   4.844   9.363  0.7277  0.2482 -0.7756
  153SAPE  C31417068   6.406   4.712   9.301 -0.0475  0.0129 -0.0085
  153SAPE  H14X17069   6.338   4.628   9.326  1.1300 -0.3643  2.2110
  153SAPE  H14Y17070   6.503   4.664   9.326 -0.6283 -2.1026 -1.5159
  153SAPE  C31517071   6.420   4.746   9.151 -0.0955 -0.0928  0.3117
  153SAPE  H15X17072   6.467   4.659   9.100 -2.0499 -0.7091 -0.5106
  153SAPE  H15Y17073   6.487   4.831   9.126 -1.3878  0.1339 -2.7780
  153SAPE  C31617074   6.291   4.770   9.076 -0.1937  0.2235 -0.4119
  153SAPE  H16X17075   6.250   4.866   9.114  0.5471  0.0389  0.8810
  153SAPE  H16Y17076   6.227   4.681   9.097  2.2667 -1.5386  0.0538
  153SAPE  C31717077   6.308   4.796   8.928 -0.0023 -1.0567  0.0126
  153SAPE  H17X17078   6.373   4.882   8.902 -2.0812  0.2925 -1.0865
  153SAPE  H17Y17079   6.208   4.824   8.887 -0.6073  0.3706  2.2773
  153SAPE  C31817080   6.370   4.689   8.850 -0.0455  0.4915 -0.2043
  153SAPE  H18X17081   6.470   4.651   8.881 -0.0680  0.7411  0.1767
  153SAPE  H18Y17082   6.392   4.723   8.746  0.3315 -0.0135 -0.2945
  153SAPE  H18Z17083   6.298   4.605   8.835 -0.2846  0.8083 -0.8747
  154SAPE     N17084   1.150   2.117  10.650  0.6567 -0.7446  0.1916
  154SAPE   HN117085   1.059   2.079  10.683 -0.6202  1.4513 -0.6333
  154SAPE   HN217086   1.201   2.171  10.723 -1.1154  1.7449 -0.3174
  154SAPE   HN317087   1.133   2.185  10.574  1.1791 -2.0398 -1.1421
  154SAPE   C1217088   1.245   2.025  10.592 -0.2595 -0.5270  0.1985
  154SAPE  H12A17089   1.337   2.084  10.574 -0.9271  0.2436 -0.8357
  154SAPE  H12B17090   1.198   1.990  10.498  2.0214 -2.2160 -0.4026
  154SAPE   C1117091   1.279   1.915  10.698  1.2139  0.1689 -0.4099
  154SAPE  H11A17092   1.343   1.836  10.654  0.0361 -0.9255 -0.2058
  154SAPE  H11B17093   1.188   1.859  10.729  1.3611  0.8387  1.3620
  154SAPE     P17094   1.489   2.005  10.832 -0.5986 -0.1437 -0.0020
  154SAPE   O1317095   1.506   2.140  10.890  0.4651  0.3280  0.4369
  154SAPE   O1417096   1.543   1.893  10.908 -0.2432 -0.2460  0.2586
  154SAPE   O1217097   1.335   1.978  10.814  0.3554  0.2880 -0.4070
  154SAPE   O1117098   1.542   2.012  10.684 -0.9593 -0.6012 -0.2381
  154SAPE    C117099   1.680   1.992  10.663 -0.0440 -0.6758 -0.0452
  154SAPE    HA17100   1.744   2.081  10.682  0.4325 -0.9298 -0.4283
  154SAPE    HB17101   1.722   1.905  10.718  0.1300 -0.7553 -0.3041
  154SAPE    C217102   1.704   1.965  10.516  0.0695 -0.1427  0.5519
  154SAPE    HS17103   1.698   2.059  10.457  0.7882 -1.1231 -1.1329
  154SAPE   O2117104   1.624   1.853  10.471 -0.1065  0.3014  0.1552
  154SAPE   C2117105   1.505   1.887  10.409  0.1302 -0.2353  0.3414
  154SAPE   O2217106   1.473   2.007  10.401 -0.0452  0.8839  0.3407
  154SAPE   C2217107   1.433   1.758  10.357 -0.0191  0.0398 -0.6221
  154SAPE   H2R17108   1.496   1.668  10.376 -1.5863 -1.3079 -1.5671
  154SAPE   H2S17109   1.337   1.747  10.412 -0.0446  1.5223 -0.3223
  154SAPE    C317110   1.859   1.922  10.496  0.3645 -0.4212  0.4870
  154SAPE    HX17111   1.856   1.816  10.529 -0.0689 -0.1699  1.2825
  154SAPE    HY17112   1.927   1.976  10.566  0.4910  0.4522 -0.2871
  154SAPE   O3117113   1.901   1.932  10.356  0.3572 -0.1664  0.1877
  154SAPE   C3117114   2.031   1.925  10.339 -0.2077 -0.9293 -0.4921
  154SAPE   O3217115   2.115   1.921  10.430 -0.5783 -0.2445  0.4596
  154SAPE   C3217116   2.060   1.927  10.193 -0.0370 -0.2138  0.0703
  154SAPE   H2X17117   2.153   1.986  10.176  3.3442 -5.0313 -0.2110
  154SAPE   H2Y17118   1.981   1.974  10.132  0.1150 -0.7354 -0.5430
  154SAPE   C2317119   1.405   1.771  10.201 -0.3296 -0.3786  0.4403
  154SAPE   H3R17120   1.354   1.865  10.171 -2.7038 -1.3686  1.1782
  154SAPE   H3S17121   1.341   1.681  10.190  0.3014 -1.1065  2.2745
  154SAPE   C2417122   1.525   1.751  10.106 -0.0957  0.1511  0.2501
  154SAPE   H4R17123   1.479   1.750  10.005  0.2310  0.5168  0.0977
  154SAPE   H4S17124   1.555   1.645  10.122  0.0894 -0.1555 -1.8872
  154SAPE   C2517125   1.633   1.852  10.127 -0.6566 -0.1487  0.5707
  154SAPE   H5R17126   1.692   1.849  10.220  1.2609 -1.6932 -0.6074
  154SAPE   C2617127   1.674   1.927  10.023 -0.2867 -0.0412 -0.2219
  154SAPE   H6R17128   1.767   1.985  10.035  2.6872 -4.2274 -0.8805
  154SAPE   C2717129   1.628   1.914   9.877 -0.1692 -0.1057 -0.5973
  154SAPE   H7R17130   1.677   2.006   9.838 -1.1259  0.3061 -0.8576
  154SAPE   H7S17131   1.519   1.927   9.863 -0.9738 -1.4249  3.2358
  154SAPE   C2817132   1.679   1.796   9.801  0.1823  0.0348 -0.4314
  154SAPE   H8R17133   1.724   1.714   9.860  0.7304  1.1546  0.7710
  154SAPE   C2917134   1.685   1.794   9.670 -0.5263 -1.0094  0.6098
  154SAPE   H9R17135   1.719   1.699   9.625  1.6589 -0.3397  0.7368
  154SAPE  C21017136   1.634   1.898   9.571 -0.2435  0.0262  0.2600
  154SAPE  H10R17137   1.677   1.998   9.593  1.0553 -0.0070 -1.8568
  154SAPE  H10S17138   1.529   1.903   9.607 -0.0160 -2.4832  1.5088
  154SAPE  C21117139   1.635   1.853   9.426 -0.4163  0.4422 -0.1717
  154SAPE  H11R17140   1.569   1.766   9.410  1.7154 -1.2200 -0.3943
  154SAPE  C21217141   1.719   1.896   9.331 -0.2726  0.2547 -0.0295
  154SAPE  H12R17142   1.708   1.864   9.226 -0.0695  1.5971 -0.4763
  154SAPE  C21317143   1.822   2.004   9.333 -0.2104  0.5896 -0.3818
  154SAPE  H13R17144   1.822   2.055   9.432 -0.5692  0.6844 -0.4298
  154SAPE  H13S17145   1.810   2.086   9.259  1.2606  1.0414 -0.1511
  154SAPE  C21417146   1.949   1.927   9.321 -0.6763 -0.4748 -0.2480
  154SAPE  H14R17147   2.014   1.904   9.406  1.0614 -0.5140 -1.5413
  154SAPE  C21517148   2.009   1.896   9.205 -0.4847  0.7743  0.1181
  154SAPE  H15R17149   2.098   1.832   9.215 -0.0610  0.6664 -3.1911
  154SAPE  C21617150   1.959   1.912   9.064  0.6174 -0.0366 -0.2092
  154SAPE  H16R17151   2.038   1.963   9.005 -0.2426 -1.1742 -2.4973
  154SAPE  H16S17152   1.867   1.974   9.056 -1.5296 -2.6660  1.9534
  154SAPE  C21717153   1.931   1.780   8.988  0.0012 -0.0143  0.1062
  154SAPE  H17R17154   1.860   1.729   9.056  0.4513 -1.9466 -0.7917
  154SAPE  H17S17155   2.015   1.707   8.985 -1.1121 -1.3677  0.6511
  154SAPE  C21817156   1.879   1.797   8.851  0.2510  0.2023  0.1112
  154SAPE  H18R17157   1.951   1.868   8.804  1.4989 -0.4897  0.9139
  154SAPE  H18S17158   1.783   1.852   8.850  0.4686  0.5869 -0.1201
  154SAPE  C21917159   1.861   1.667   8.772  0.4441  0.9297  1.2904
  154SAPE  H19R17160   1.787   1.604   8.824 -0.5869  1.0833  0.0631
  154SAPE  H19S17161   1.952   1.604   8.783 -0.2314 -0.4075 -0.4031
  154SAPE  C22017162   1.820   1.683   8.624  0.0429 -0.2392 -0.3755
  154SAPE  H20R17163   1.787   1.583   8.590 -0.2688 -0.2388 -0.0812
  154SAPE  H20S17164   1.891   1.727   8.551  2.0324 -2.1131  0.3245
  154SAPE  H20T17165   1.732   1.751   8.624 -0.6233 -1.0819  0.4186
  154SAPE   C3317166   2.083   1.791  10.120 -0.3642 -0.6993  0.1045
  154SAPE   H3X17167   2.015   1.708  10.150  1.1064 -1.7342  0.7406
  154SAPE   H3Y17168   2.186   1.756  10.143 -0.6011 -0.0336  2.3939
  154SAPE   C3417169   2.056   1.805   9.967  0.4831  0.1142  0.0305
  154SAPE   H4X17170   2.134   1.862   9.912 -0.4763  0.4054 -1.0684
  154SAPE   H4Y17171   1.962   1.864   9.962  0.4412  0.0023 -0.6136
  154SAPE   C3517172   2.044   1.672   9.895 -0.2240  0.2520  0.4808
  154SAPE   H5X17173   1.952   1.615   9.922 -0.2711 -0.7083 -1.5425
  154SAPE   H5Y17174   2.130   1.603   9.908 -0.5554 -0.4724 -0.9778
  154SAPE   C3617175   2.045   1.690   9.739 -0.3962  0.1179 -0.0112
  154SAPE   H6X17176   2.143   1.723   9.700 -0.6955  0.5794 -0.3808
  154SAPE   H6Y17177   1.969   1.770   9.726  0.4044  1.0951  1.1298
  154SAPE   C3717178   1.996   1.562   9.676 -0.1877  0.0709  0.1231
  154SAPE   H7X17179   1.904   1.531   9.730 -0.4018 -1.8670 -1.2585
  154SAPE   H7Y17180   2.083   1.497   9.700 -0.3536 -0.0097  0.5221
  154SAPE   C3817181   1.992   1.579   9.525  0.3221 -0.4838 -0.3756
  154SAPE   H8X17182   2.095   1.590   9.485  0.2898 -2.5737 -1.1350
  154SAPE   H8Y17183   1.941   1.676   9.510  0.5176 -0.5336 -1.4771
  154SAPE   C3917184   1.925   1.458   9.453  0.0480  0.0884  0.2350
  154SAPE   H9X17185   1.840   1.424   9.514 -0.9305  0.5854 -0.8077
  154SAPE   H9Y17186   1.998   1.375   9.439 -1.6193 -1.6118  1.3345
  154SAPE  C31017187   1.863   1.514   9.321 -0.3750  0.6554  0.1714
  154SAPE  H10X17188   1.934   1.579   9.267  1.6623 -0.4256  1.4416
  154SAPE  H10Y17189   1.796   1.592   9.363 -0.5059 -0.2233  1.6979
  154SAPE  C31117190   1.796   1.412   9.229 -0.0368  0.0046 -0.3177
  154SAPE  H11X17191   1.735   1.360   9.306  1.6905  0.2985  1.2997
  154SAPE  H11Y17192   1.874   1.343   9.189 -0.3632 -1.0381  0.7872
  154SAPE  C31217193   1.714   1.477   9.114  0.6345 -0.5401  0.5117
  154SAPE  H12X17194   1.788   1.524   9.046 -0.8187 -0.1377 -0.8493
  154SAPE  H12Y17195   1.646   1.560   9.144 -0.1416 -0.4406 -1.3911
  154SAPE  C31317196   1.627   1.380   9.042  0.0511 -0.2463 -0.5956
  154SAPE  H13X17197   1.544   1.345   9.107  1.3759 -1.3749  0.5421
  154SAPE  H13Y17198   1.693   1.291   9.045  0.5368  0.1352  0.5126
  154SAPE  C31417199   1.560   1.415   8.915 -0.0189  0.5209 -0.2624
  154SAPE  H14X17200   1.485   1.335   8.898  1.5086 -1.0788  0.2603
  154SAPE  H14Y17201   1.644   1.395   8.844 -0.1529 -2.3970  0.2975
  154SAPE  C31517202   1.491   1.553   8.902 -0.4743  0.2967 -0.1799
  154SAPE  H15X17203   1.564   1.632   8.932 -0.2603  0.9717 -2.3276
  154SAPE  H15Y17204   1.411   1.553   8.979 -0.5278  2.3225 -0.1866
  154SAPE  C31617205   1.434   1.572   8.758 -0.3207 -0.2984 -0.0506
  154SAPE  H16X17206   1.378   1.488   8.713  0.7141 -0.8298 -0.3821
  154SAPE  H16Y17207   1.510   1.594   8.680  0.4840  0.6947  0.9769
  154SAPE  C31717208   1.326   1.682   8.766  0.1425 -0.0705 -0.0270
  154SAPE  H17X17209   1.242   1.655   8.834  1.1433  0.1897  1.3648
  154SAPE  H17Y17210   1.280   1.688   8.665 -0.1903  0.5317  0.1572
  154SAPE  C31817211   1.376   1.819   8.811 -0.1325 -0.4280 -0.1262
  154SAPE  H18X17212   1.448   1.869   8.742 -0.2022  3.0010  2.0538
  154SAPE  H18Y17213   1.413   1.823   8.916  0.7603  0.3671 -0.4509
  154SAPE  H18Z17214   1.292   1.891   8.815  1.0031  0.9008  0.6860
  155SAPE     N17215   4.555   4.406  11.090 -0.5222 -0.2991  0.4045
  155SAPE   HN117216   4.602   4.481  11.144 -0.6337  0.8266 -1.0348
  155SAPE   HN217217   4.491   4.350  11.150  0.8321 -2.4650 -0.0541
  155SAPE   HN317218   4.627   4.337  11.060 -1.5905 -1.4602  0.3837
  155SAPE   C1217219   4.470   4.463  10.981  0.4905  0.4527  0.2726
  155SAPE  H12A17220   4.532   4.510  10.902  0.3271 -0.2467 -0.2822
  155SAPE  H12B17221   4.413   4.547  11.027  1.1579  2.3045 -2.0662
  155SAPE   C1117222   4.365   4.369  10.915 -0.0613  0.2631  0.0315
  155SAPE  H11A17223   4.413   4.296  10.846 -0.4154  0.2402 -0.1905
  155SAPE  H11B17224   4.305   4.432  10.846  1.4155  2.2175  0.4703
  155SAPE     P17225   4.290   4.153  11.047  0.1165 -0.0415  0.1223
  155SAPE   O1317226   4.395   4.145  11.154  0.2405 -0.5309 -0.1709
  155SAPE   O1417227   4.154   4.121  11.082  0.2444  0.1530 -0.1406
  155SAPE   O1217228   4.278   4.301  11.004  0.1668 -0.3439 -0.0646
  155SAPE   O1117229   4.338   4.075  10.914 -0.9600 -0.0493 -0.5616
  155SAPE    C117230   4.304   3.932  10.915  0.2538 -0.1953 -0.1563
  155SAPE    HA17231   4.379   3.874  10.973  0.7004  1.2632  0.8028
  155SAPE    HB17232   4.207   3.908  10.964  0.1059 -1.3679 -0.9958
  155SAPE    C217233   4.298   3.873  10.763 -0.4290 -0.2216 -0.4763
  155SAPE    HS17234   4.397   3.899  10.720 -0.2885  0.6557  0.3753
  155SAPE   O2117235   4.189   3.923  10.689  0.5280 -0.2346 -0.0014
  155SAPE   C2117236   4.215   4.020  10.599  0.0225 -0.3787  0.4185
  155SAPE   O2217237   4.328   4.064  10.586  0.2042 -0.1869  0.1191
  155SAPE   C2217238   4.091   4.067  10.531  0.5776  0.2852 -0.1189
  155SAPE   H2R17239   4.006   4.000  10.560 -0.9734  1.2490 -2.1661
  155SAPE   H2S17240   4.062   4.166  10.573 -3.8636 -0.1779 -1.4856
  155SAPE    C317241   4.292   3.713  10.763 -0.3639  0.2941  0.7034
  155SAPE    HX17242   4.191   3.684  10.799 -0.2863 -1.9516 -0.6970
  155SAPE    HY17243   4.352   3.671  10.847 -1.1641  0.7538  1.5306
  155SAPE   O3117244   4.316   3.660  10.621 -0.2626  0.1877  0.0948
  155SAPE   C3117245   4.238   3.555  10.585 -0.7726  0.4064 -0.1909
  155SAPE   O3217246   4.159   3.507  10.665  0.2539  0.6044  0.3479
  155SAPE   C3217247   4.282   3.497  10.453  0.0452  0.0481  0.1877
  155SAPE   H2X17248   4.381   3.451  10.477 -1.3565 -1.2730  4.5907
  155SAPE   H2Y17249   4.305   3.578  10.382  0.7560 -1.3093 -1.1873
  155SAPE   C2317250   4.095   4.060  10.376 -0.4018 -0.5458  0.1450
  155SAPE   H3R17251   4.114   3.955  10.347  3.1661  0.3571 -1.1996
  155SAPE   H3S17252   4.184   4.117  10.343  1.6158 -2.4835  1.8998
  155SAPE   C2417253   3.981   4.130  10.305 -0.2952  0.3152  0.2198
  155SAPE   H4R17254   3.995   4.133  10.195 -2.7118 -3.2737 -0.3557
  155SAPE   H4S17255   3.977   4.235  10.342 -0.0359  0.2275  0.5084
  155SAPE   C2517256   3.845   4.074  10.345  0.2148  0.3828 -0.4051
  155SAPE   H5R17257   3.803   4.070  10.447 -0.9840  0.1806 -0.8942
  155SAPE   C2617258   3.757   4.009  10.263  0.6102 -0.2259  0.4174
  155SAPE   H6R17259   3.667   3.975  10.316  0.9568 -0.6618  0.7393
  155SAPE   C2717260   3.772   3.988  10.120  0.1941  0.2231  0.0757
  155SAPE   H7R17261   3.822   4.079  10.078  2.7321 -1.2538 -0.3009
  155SAPE   H7S17262   3.670   3.994  10.076  1.4840  1.2304 -3.0531
  155SAPE   C2817263   3.843   3.864  10.065 -0.5573 -0.3478  0.1434
  155SAPE   H8R17264   3.884   3.801  10.146 -0.6405  0.3736  0.7597
  155SAPE   C2917265   3.853   3.821   9.935 -0.7564 -0.0165  0.3895
  155SAPE   H9R17266   3.896   3.722   9.912 -0.3549  0.3666 -0.5450
  155SAPE  C21017267   3.798   3.882   9.806 -0.0271  0.1523  0.7185
  155SAPE  H10R17268   3.688   3.899   9.808  0.2267  3.1060 -2.0222
  155SAPE  H10S17269   3.799   3.799   9.731 -0.2389  1.0589 -0.3246
  155SAPE  C21117270   3.863   4.001   9.744  1.1394 -0.3288  0.2657
  155SAPE  H11R17271   3.904   4.075   9.815  0.6754  0.8562 -0.6787
  155SAPE  C21217272   3.869   4.032   9.613  0.0038  0.0838  0.4695
  155SAPE  H12R17273   3.944   4.110   9.590 -0.8587  0.6717 -0.4172
  155SAPE  C21317274   3.814   3.962   9.494  0.3776  0.2919  0.9250
  155SAPE  H13R17275   3.795   4.035   9.413  0.9790 -0.5445 -0.0035
  155SAPE  H13S17276   3.716   3.915   9.516  0.5667 -0.7776 -0.3748
  155SAPE  C21417277   3.898   3.851   9.444  0.3558 -0.4608 -0.1342
  155SAPE  H14R17278   3.937   3.785   9.523  0.7221 -0.4148 -0.2768
  155SAPE  C21517279   3.930   3.822   9.315  0.0847  0.4798 -0.6148
  155SAPE  H15R17280   3.998   3.739   9.292 -0.1931 -0.0890  0.5526
  155SAPE  C21617281   3.882   3.900   9.197  0.0462 -0.5688  0.0146
  155SAPE  H16R17282   3.961   3.924   9.122  0.1630  0.8079  0.5580
  155SAPE  H16S17283   3.845   3.998   9.232 -0.1122 -1.0495  1.2199
  155SAPE  C21717284   3.774   3.834   9.114  0.6989 -0.5187 -0.2562
  155SAPE  H17R17285   3.679   3.818   9.170 -0.1836  0.6206 -1.3705
  155SAPE  H17S17286   3.803   3.732   9.080 -1.5010 -1.4913  0.6017
  155SAPE  C21817287   3.746   3.901   8.982  0.3026 -0.3191 -0.2170
  155SAPE  H18R17288   3.838   3.929   8.925 -0.3435 -0.1962 -1.2185
  155SAPE  H18S17289   3.695   4.000   8.988 -1.5575 -1.0407 -2.7972
  155SAPE  C21917290   3.646   3.826   8.890 -0.4468  0.7039  0.1419
  155SAPE  H19R17291   3.564   3.783   8.952 -0.3666 -0.6519 -0.6615
  155SAPE  H19S17292   3.705   3.747   8.839 -0.5419  0.3478  0.5853
  155SAPE  C22017293   3.578   3.904   8.783 -0.3646  0.7600  0.0117
  155SAPE  H20R17294   3.503   3.969   8.832  0.2852 -0.4352  2.8196
  155SAPE  H20S17295   3.534   3.841   8.703 -1.9423  1.2761  0.4416
  155SAPE  H20T17296   3.649   3.969   8.728 -0.3082  2.4338  1.9288
  155SAPE   C3317297   4.181   3.392  10.398 -0.0700  0.7758  0.0474
  155SAPE   H3X17298   4.074   3.419  10.385 -0.1019  0.3234 -0.6611
  155SAPE   H3Y17299   4.190   3.308  10.470  0.9741 -1.9749 -3.0545
  155SAPE   C3417300   4.227   3.327  10.260  0.7280  0.1739  0.1093
  155SAPE   H4X17301   4.164   3.236  10.246  1.2635 -0.1973  0.0787
  155SAPE   H4Y17302   4.332   3.292  10.263  0.0148 -2.2734 -0.9894
  155SAPE   C3517303   4.203   3.414  10.137  0.2489 -0.0959  0.1307
  155SAPE   H5X17304   4.249   3.513  10.157  2.8109 -1.4124  1.2275
  155SAPE   H5Y17305   4.092   3.423  10.135  0.3384  1.2438  0.3043
  155SAPE   C3617306   4.264   3.350  10.014  0.1763 -0.3770  0.7598
  155SAPE   H6X17307   4.218   3.251   9.996 -0.4960 -0.2342  1.6335
  155SAPE   H6Y17308   4.370   3.328  10.038  0.1739 -0.3273  0.8186
  155SAPE   C3717309   4.235   3.427   9.881  0.0011  0.3842 -0.1130
  155SAPE   H7X17310   4.286   3.526   9.884  1.4280 -0.3390  0.3951
  155SAPE   H7Y17311   4.124   3.430   9.881  0.0165  1.1218 -0.7008
  155SAPE   C3817312   4.257   3.357   9.745 -0.7643  0.5115  0.0797
  155SAPE   H8X17313   4.226   3.251   9.760  1.7509 -0.3004  0.1232
  155SAPE   H8Y17314   4.365   3.355   9.717 -0.5676 -2.0416  0.7944
  155SAPE   C3917315   4.177   3.409   9.622 -0.6791  0.5017 -0.7715
  155SAPE   H9X17316   4.068   3.408   9.642 -0.8613  0.8560 -1.6972
  155SAPE   H9Y17317   4.193   3.337   9.539  2.1106  2.8372 -2.4705
  155SAPE  C31017318   4.199   3.554   9.597 -0.4787  0.3446  0.1186
  155SAPE  H10X17319   4.154   3.605   9.685 -0.3004 -0.1048  0.4753
  155SAPE  H10Y17320   4.149   3.584   9.502  1.3568 -3.1914 -2.1646
  155SAPE  C31117321   4.350   3.592   9.577 -0.0294  0.0399 -0.1263
  155SAPE  H11X17322   4.398   3.529   9.499 -0.4375  0.3822 -0.6642
  155SAPE  H11Y17323   4.408   3.578   9.670  1.8225 -2.2523 -1.5350
  155SAPE  C31217324   4.360   3.734   9.523  0.1259  1.1017  0.1339
  155SAPE  H12X17325   4.265   3.767   9.478  1.2411  0.6008 -2.8249
  155SAPE  H12Y17326   4.438   3.742   9.444 -0.0762 -0.3445 -0.2443
  155SAPE  C31317327   4.386   3.830   9.640 -0.6593  0.2402 -0.3949
  155SAPE  H13X17328   4.481   3.813   9.695  0.5150  1.4944 -1.9423
  155SAPE  H13Y17329   4.300   3.826   9.710 -0.1636  0.7563  0.2543
  155SAPE  C31417330   4.397   3.976   9.591  0.3329  0.2789 -0.5691
  155SAPE  H14X17331   4.470   3.970   9.507  0.9095 -0.3009 -0.0306
  155SAPE  H14Y17332   4.437   4.046   9.667 -1.2385 -0.2546  0.7979
  155SAPE  C31517333   4.265   4.041   9.532 -0.4164  0.0474 -0.6839
  155SAPE  H15X17334   4.186   4.074   9.604  0.3180  0.9940 -0.2842
  155SAPE  H15Y17335   4.214   3.974   9.460 -0.6142 -0.8169  0.2373
  155SAPE  C31617336   4.304   4.174   9.451 -0.4746 -0.1558 -0.6088
  155SAPE  H16X17337   4.394   4.153   9.390  0.3244  1.3565 -0.0046
  155SAPE  H16Y17338   4.327   4.250   9.528 -1.7454  0.3322 -0.6779
  155SAPE  C31717339   4.201   4.217   9.346  0.5118 -0.5419 -0.4165
  155SAPE  H17X17340   4.208   4.327   9.329  2.1587 -0.4694  0.5357
  155SAPE  H17Y17341   4.097   4.202   9.384  0.6297 -0.4642 -0.0576
  155SAPE  C31817342   4.186   4.136   9.215 -0.6738 -0.5634  0.5684
  155SAPE  H18X17343   4.276   4.144   9.151 -0.9880  0.3743  0.2182
  155SAPE  H18Y17344   4.104   4.182   9.155  1.0272  0.3351 -1.1714
  155SAPE  H18Z17345   4.179   4.026   9.225  1.3696 -0.6278  1.7536
  156SAPE     N17346   4.492   1.443  10.898 -0.3558 -0.0349 -0.1939
  156SAPE   HN117347   4.406   1.482  10.855 -0.8602 -1.6040 -0.6931
  156SAPE   HN217348   4.529   1.360  10.848 -1.2626 -0.7562  0.2765
  156SAPE   HN317349   4.449   1.394  10.980 -0.2683 -3.2489 -1.9097
  156SAPE   C1217350   4.587   1.560  10.912 -0.0639 -0.5657  0.0414
  156SAPE  H12A17351   4.681   1.523  10.957 -1.2536 -1.6030  1.8183
  156SAPE  H12B17352   4.545   1.639  10.978  1.0783 -0.3008  0.4681
  156SAPE   C1117353   4.613   1.622  10.773 -0.4045 -0.4796 -0.1778
  156SAPE  H11A17354   4.666   1.555  10.701 -0.4112  0.3465 -0.9569
  156SAPE  H11B17355   4.682   1.704  10.801 -2.0995  0.0716  2.7668
  156SAPE     P17356   4.442   1.796  10.709 -0.0660  0.1045  0.1725
  156SAPE   O1317357   4.329   1.801  10.617  0.3145 -0.1022 -0.1138
  156SAPE   O1417358   4.401   1.817  10.844 -0.1314  0.5870 -0.1610
  156SAPE   O1217359   4.498   1.656  10.705 -0.4242 -0.0584  0.2882
  156SAPE   O1117360   4.555   1.898  10.671 -0.1012 -0.6540  0.1374
  156SAPE    C117361   4.542   1.987  10.558 -0.5570  0.5837 -0.2237
  156SAPE    HA17362   4.437   2.017  10.540  0.1971  3.5475 -0.1620
  156SAPE    HB17363   4.585   2.086  10.581 -1.1069  0.2853  2.3823
  156SAPE    C217364   4.615   1.935  10.430  0.2385 -0.3383 -0.3049
  156SAPE    HS17365   4.624   2.010  10.349 -1.5632 -0.6737 -0.8516
  156SAPE   O2117366   4.548   1.822  10.366 -0.1619  0.7560 -0.0294
  156SAPE   C2117367   4.432   1.857  10.301  0.2407  0.8375  0.4428
  156SAPE   O2217368   4.391   1.971  10.296 -0.9553  0.0975  0.6312
  156SAPE   C2217369   4.367   1.738  10.236 -0.0933  0.2195 -0.4864
  156SAPE   H2R17370   4.348   1.654  10.306  0.1049  0.1322 -0.5349
  156SAPE   H2S17371   4.262   1.766  10.214  0.0047  1.1355  0.1329
  156SAPE    C317372   4.758   1.894  10.465  0.3881 -0.7332 -0.5257
  156SAPE    HX17373   4.749   1.815  10.544  0.0849 -0.0964  0.0907
  156SAPE    HY17374   4.806   1.976  10.523  0.0774 -0.9428  0.0453
  156SAPE   O3117375   4.841   1.859  10.350  0.0997 -0.5816 -0.0168
  156SAPE   C3117376   4.842   1.728  10.323 -0.3439 -0.2673  0.6871
  156SAPE   O3217377   4.800   1.638  10.391 -0.2777 -0.0669 -0.0787
  156SAPE   C3217378   4.902   1.724  10.177 -0.1008  0.5649 -0.3068
  156SAPE   H2X17379   4.933   1.618  10.165  0.2780  0.7847 -1.3434
  156SAPE   H2Y17380   4.990   1.790  10.192 -0.5945  0.6782  2.7254
  156SAPE   C2317381   4.451   1.677  10.118  0.3914  0.4695  0.1463
  156SAPE   H3R17382   4.385   1.603  10.069 -0.6981  1.9477 -0.6766
  156SAPE   H3S17383   4.541   1.624  10.158  0.6065  1.3587  0.8554
  156SAPE   C2417384   4.491   1.775  10.001 -0.0638  0.3416  0.9243
  156SAPE   H4R17385   4.545   1.709   9.931 -1.0820 -0.3674  0.7851
  156SAPE   H4S17386   4.555   1.856  10.043 -0.1198 -0.5106  2.7591
  156SAPE   C2517387   4.374   1.833   9.926  0.0559  0.2292 -0.3313
  156SAPE   H5R17388   4.291   1.863   9.991 -0.3860 -0.1817 -0.7076
  156SAPE   C2617389   4.352   1.858   9.797 -0.2063  0.1302  0.2603
  156SAPE   H6R17390   4.259   1.911   9.768 -0.2728 -0.3155 -0.3784
  156SAPE   C2717391   4.452   1.837   9.684 -0.2989 -0.3817  0.0864
  156SAPE   H7R17392   4.547   1.797   9.727  1.4923  3.4126  0.0559
  156SAPE   H7S17393   4.482   1.933   9.636  0.6025 -1.2480 -1.1510
  156SAPE   C2817394   4.405   1.742   9.568 -0.2284  0.1358  0.2549
  156SAPE   H8R17395   4.360   1.646   9.595 -0.1129  0.1807  0.6052
  156SAPE   C2917396   4.419   1.766   9.437  0.4459 -0.2429 -0.4395
  156SAPE   H9R17397   4.387   1.695   9.359 -2.2723  0.1462  0.2179
  156SAPE  C21017398   4.465   1.895   9.372 -0.6171 -0.8830 -0.7232
  156SAPE  H10R17399   4.534   1.943   9.445  1.1573 -3.0514 -0.8857
  156SAPE  H10S17400   4.377   1.962   9.359 -1.3322 -1.8571 -1.0199
  156SAPE  C21117401   4.533   1.884   9.236 -0.7395 -0.9260 -0.4670
  156SAPE  H11R17402   4.614   1.810   9.228 -1.9653 -2.2313 -1.2308
  156SAPE  C21217403   4.487   1.935   9.122  0.0510  0.0248  0.5062
  156SAPE  H12R17404   4.555   1.920   9.036 -1.8506 -0.1046 -1.0454
  156SAPE  C21317405   4.375   2.036   9.101 -0.5220 -0.2786  0.1098
  156SAPE  H13R17406   4.397   2.123   9.166 -0.1268  0.3561 -0.8511
  156SAPE  H13S17407   4.283   1.983   9.132  0.2107 -0.7968  1.5048
  156SAPE  C21417408   4.362   2.076   8.953  0.5060 -0.2803 -0.4762
  156SAPE  H14R17409   4.444   2.139   8.915 -0.3248  1.2074  0.1332
  156SAPE  C21517410   4.252   2.048   8.877  0.0516 -0.3042  1.2196
  156SAPE  H15R17411   4.255   2.091   8.776  0.5851 -0.2471  1.2549
  156SAPE  C21617412   4.127   1.967   8.900  0.7569  0.2863  0.3290
  156SAPE  H16R17413   4.074   1.988   8.996  0.5800 -0.1928  0.3395
  156SAPE  H16S17414   4.146   1.858   8.901 -0.0196  0.0253 -3.0430
  156SAPE  C21717415   4.027   1.976   8.781 -0.0670 -0.5213  0.8321
  156SAPE  H17R17416   4.066   1.915   8.697 -1.2019 -3.1481  2.0945
  156SAPE  H17S17417   4.026   2.074   8.730 -0.2703 -1.6580 -1.4560
  156SAPE  C21817418   3.882   1.931   8.803 -0.1646  0.6612  0.1022
  156SAPE  H18R17419   3.823   2.012   8.852 -1.7762 -1.0133  1.0760
  156SAPE  H18S17420   3.884   1.849   8.878 -3.6732  0.3360  0.0080
  156SAPE  C21917421   3.802   1.897   8.680  0.6102 -0.3399 -0.6377
  156SAPE  H19R17422   3.707   1.858   8.724  0.4879  1.8761  1.2218
  156SAPE  H19S17423   3.848   1.829   8.606 -2.0946  0.5491 -3.3416
  156SAPE  C22017424   3.750   2.018   8.602  0.0642  0.0401 -0.7292
  156SAPE  H20R17425   3.681   1.992   8.519 -0.1478 -0.1212 -0.5039
  156SAPE  H20S17426   3.832   2.079   8.559 -2.0143  3.3112 -0.3248
  156SAPE  H20T17427   3.703   2.092   8.670  3.1464  1.2525  0.2381
  156SAPE   C3317428   4.817   1.775  10.062 -0.1913 -0.0567 -0.0970
  156SAPE   H3X17429   4.771   1.873  10.085 -1.1866 -0.1086 -1.6953
  156SAPE   H3Y17430   4.736   1.704  10.034  0.1806 -0.4995 -0.0602
  156SAPE   C3417431   4.906   1.793   9.941  0.1321  0.0032  0.6103
  156SAPE   H4X17432   4.960   1.696   9.934 -0.1696 -0.0483 -2.2465
  156SAPE   H4Y17433   4.975   1.877   9.960 -0.8664  0.8596  0.5094
  156SAPE   C3517434   4.826   1.821   9.819 -0.0756  0.0682 -0.4348
  156SAPE   H5X17435   4.782   1.916   9.856 -1.1146 -0.6345  0.1686
  156SAPE   H5Y17436   4.752   1.742   9.795 -1.2101  1.1487 -0.5895
  156SAPE   C3617437   4.911   1.842   9.695  0.3454  0.8102  0.5253
  156SAPE   H6X17438   4.925   1.736   9.667 -1.4815  0.8223 -0.6080
  156SAPE   H6Y17439   5.009   1.875   9.735  1.2748 -1.5040  0.2976
  156SAPE   C3717440   4.844   1.905   9.573 -0.0515  0.2637 -0.4398
  156SAPE   H7X17441   4.819   2.006   9.613 -2.9252 -0.9488  1.1680
  156SAPE   H7Y17442   4.749   1.853   9.548  0.1171 -1.5599  2.2901
  156SAPE   C3817443   4.944   1.909   9.451  0.4594 -0.6068 -0.3904
  156SAPE   H8X17444   5.004   1.816   9.450 -0.1302 -0.9829 -1.0664
  156SAPE   H8Y17445   5.019   1.986   9.481  2.2235 -2.0469 -0.9705
  156SAPE   C3917446   4.865   1.940   9.318  0.6340  0.6210 -0.9425
  156SAPE   H9X17447   4.785   2.012   9.342  1.4369  0.5053  2.5416
  156SAPE   H9Y17448   4.814   1.844   9.296 -1.3036  1.3429  0.1308
  156SAPE  C31017449   4.957   1.982   9.213 -0.2890 -0.4039  0.9825
  156SAPE  H10X17450   5.036   1.906   9.195 -1.8137 -1.9135  0.4521
  156SAPE  H10Y17451   5.014   2.068   9.255  1.7887 -1.5691  0.6922
  156SAPE  C31117452   4.887   2.045   9.080  0.0873 -0.4157  0.3581
  156SAPE  H11X17453   4.824   1.969   9.028 -1.7259  1.2841 -0.0455
  156SAPE  H11Y17454   4.965   2.068   9.006 -1.8842  0.4148 -1.5804
  156SAPE  C31217455   4.793   2.161   9.106  0.3503 -0.0118  0.0424
  156SAPE  H12X17456   4.837   2.243   9.167  1.6057  0.3015 -1.2278
  156SAPE  H12Y17457   4.708   2.120   9.164  0.8244  1.3175  1.7552
  156SAPE  C31317458   4.746   2.213   8.968 -0.4266  0.2506  0.1737
  156SAPE  H13X17459   4.687   2.127   8.928  1.5838 -0.0997 -2.3067
  156SAPE  H13Y17460   4.835   2.221   8.902  1.8933 -1.5032  2.8290
  156SAPE  C31417461   4.669   2.345   8.966 -0.3718 -0.0301 -0.0427
  156SAPE  H14X17462   4.724   2.428   9.015 -1.9843 -0.5393  2.8057
  156SAPE  H14Y17463   4.576   2.337   9.025  0.4132 -0.7406  1.1367
  156SAPE  C31517464   4.612   2.374   8.825  0.0172 -0.0067  0.2049
  156SAPE  H15X17465   4.530   2.449   8.828 -0.3648 -0.3595 -0.9313
  156SAPE  H15Y17466   4.574   2.279   8.782  0.3134  0.2614 -0.6802
  156SAPE  C31617467   4.735   2.428   8.745 -0.1079  0.8145 -0.1184
  156SAPE  H16X17468   4.814   2.351   8.731 -1.5763 -1.0042  1.0714
  156SAPE  H16Y17469   4.767   2.514   8.808 -2.1206 -1.0812  3.8728
  156SAPE  C31717470   4.715   2.471   8.599 -0.2836 -0.2471 -0.2509
  156SAPE  H17X17471   4.626   2.537   8.595 -1.6582 -1.8374  1.8098
  156SAPE  H17Y17472   4.685   2.386   8.534 -2.5382  0.0204  0.3735
  156SAPE  C31817473   4.852   2.522   8.545  0.3187  0.4346  0.3043
  156SAPE  H18X17474   4.843   2.529   8.434  1.6862 -0.6898  0.1005
  156SAPE  H18Y17475   4.934   2.453   8.571 -0.2842 -0.8313 -1.0191
  156SAPE  H18Z17476   4.866   2.620   8.596 -0.2040  0.2540  0.8064
  157SAPE     N17477   2.176   2.716  11.288  0.0682  0.5050  0.2772
  157SAPE   HN117478   2.268   2.746  11.327  1.9603 -3.7027 -0.4218
  157SAPE   HN217479   2.097   2.746  11.348  0.2909 -1.0564  1.4245
  157SAPE   HN317480   2.181   2.612  11.288 -1.6614  0.3919 -0.9622
  157SAPE   C1217481   2.149   2.749  11.145  0.7223  0.1902  0.3208
  157SAPE  H12A17482   2.124   2.857  11.142 -0.7419 -0.1420  0.1125
  157SAPE  H12B17483   2.067   2.690  11.099 -0.4932  2.1874 -0.1658
  157SAPE   C1117484   2.272   2.729  11.057  0.4912 -0.2622  0.6729
  157SAPE  H11A17485   2.232   2.734  10.954 -0.9593  1.0852  1.2432
  157SAPE  H11B17486   2.310   2.625  11.069  0.2688 -0.6651 -1.6507
  157SAPE     P17487   2.385   2.958  10.980 -0.2826 -0.2269 -0.5107
  157SAPE   O1317488   2.327   3.085  11.032 -0.5733  0.1456 -0.2970
  157SAPE   O1417489   2.532   2.963  10.954  0.5557  0.3713  0.1028
  157SAPE   O1217490   2.366   2.834  11.082  0.1089 -0.2016 -0.3609
  157SAPE   O1117491   2.301   2.915  10.844 -0.8100  0.1974 -0.0402
  157SAPE    C117492   2.367   2.854  10.733 -0.6523  0.3752  0.6255
  157SAPE    HA17493   2.452   2.790  10.765  0.4194  1.3727 -0.1363
  157SAPE    HB17494   2.296   2.786  10.681  0.2062  0.5823 -0.8793
  157SAPE    C217495   2.427   2.953  10.629 -0.0279 -0.3839 -0.0736
  157SAPE    HS17496   2.473   3.036  10.687  0.6839 -2.0373  1.8635
  157SAPE   O2117497   2.327   2.986  10.535  0.3494 -0.2778 -0.6488
  157SAPE   C2117498   2.265   3.099  10.554 -0.0136 -0.7481  0.0500
  157SAPE   O2217499   2.302   3.184  10.636 -0.1109  0.6232 -0.5621
  157SAPE   C2217500   2.138   3.099  10.471 -0.0792 -0.4766  0.0586
  157SAPE   H2R17501   2.098   2.997  10.455 -2.7992  1.0230 -4.0340
  157SAPE   H2S17502   2.055   3.149  10.525 -0.6982  0.0141 -1.3029
  157SAPE    C317503   2.536   2.881  10.551 -0.4411 -0.0598 -1.0139
  157SAPE    HX17504   2.497   2.789  10.502  0.0841  0.2992 -2.1512
  157SAPE    HY17505   2.607   2.844  10.628 -1.6899  0.4818  0.4445
  157SAPE   O3117506   2.601   2.973  10.460  0.7707  0.1335 -0.5425
  157SAPE   C3117507   2.717   3.023  10.500  0.3951  0.4793  0.5945
  157SAPE   O3217508   2.785   2.984  10.593 -0.0822 -0.4123 -0.1400
  157SAPE   C3217509   2.763   3.115  10.391 -0.3951  0.8478  0.3857
  157SAPE   H2X17510   2.841   3.067  10.328 -2.7738  0.3999 -2.4672
  157SAPE   H2Y17511   2.826   3.189  10.444  0.4680 -0.2300  0.9158
  157SAPE   C2317512   2.160   3.175  10.338 -0.2719 -0.8471  0.0387
  157SAPE   H3R17513   2.184   3.281  10.364  0.7562 -1.1672  0.4244
  157SAPE   H3S17514   2.061   3.170  10.288 -1.2535 -1.8305  1.9653
  157SAPE   C2417515   2.269   3.109  10.250  0.6705  0.0131  0.0734
  157SAPE   H4R17516   2.372   3.118  10.291 -0.1713  0.9098  2.1547
  157SAPE   H4S17517   2.254   3.165  10.156  2.4371  0.8665  0.2611
  157SAPE   C2517518   2.239   2.958  10.233  0.0150 -0.3785 -0.6177
  157SAPE   H5R17519   2.275   2.895  10.315  0.5890 -1.4076 -1.6345
  157SAPE   C2617520   2.182   2.894  10.125 -0.0452 -0.1390  0.2561
  157SAPE   H6R17521   2.181   2.784  10.132 -1.0837 -0.1592 -0.0765
  157SAPE   C2717522   2.112   2.954  10.010  0.4329  0.2853  0.2097
  157SAPE   H7R17523   2.178   2.945   9.921 -1.8783  0.2505 -1.5903
  157SAPE   H7S17524   2.096   3.063  10.023  1.7593  0.4025  1.0713
  157SAPE   C2817525   1.981   2.893   9.976  0.7980  0.5371  0.5036
  157SAPE   H8R17526   1.923   2.848  10.058  0.2545  0.4793  0.0934
  157SAPE   C2917527   1.924   2.900   9.855  0.1678 -0.3660 -0.0719
  157SAPE   H9R17528   1.818   2.871   9.853  0.0341 -0.0246  1.1767
  157SAPE  C21017529   1.979   2.977   9.738  0.5383 -0.0722  0.4008
  157SAPE  H10R17530   2.088   2.961   9.734  0.7639  0.6176  2.5340
  157SAPE  H10S17531   1.974   3.084   9.766 -0.9466 -0.3341  1.2755
  157SAPE  C21117532   1.907   2.956   9.604  0.6548 -0.3792  0.2461
  157SAPE  H11R17533   1.931   2.858   9.559 -0.9809 -0.1564 -1.1807
  157SAPE  C21217534   1.844   3.052   9.534  0.0386  0.9584 -0.8540
  157SAPE  H12R17535   1.790   3.007   9.449 -0.0107 -1.1556  0.2381
  157SAPE  C21317536   1.805   3.193   9.565  0.0095  0.2652 -0.4641
  157SAPE  H13R17537   1.895   3.244   9.607  0.7898 -0.7860 -0.8064
  157SAPE  H13S17538   1.730   3.205   9.645  0.7665  0.5088  0.2266
  157SAPE  C21417539   1.770   3.281   9.438  0.2586  0.2294 -0.5986
  157SAPE  H14R17540   1.801   3.232   9.344  0.0095  0.0232 -0.5738
  157SAPE  C21517541   1.720   3.401   9.436 -0.6247  0.0096  0.4688
  157SAPE  H15R17542   1.711   3.449   9.337 -0.8784 -0.0497  0.4629
  157SAPE  C21617543   1.684   3.494   9.557 -0.3047  0.7881  0.7993
  157SAPE  H16R17544   1.766   3.490   9.631  0.7462 -1.3384 -0.3741
  157SAPE  H16S17545   1.584   3.459   9.592 -0.4871  0.5365  0.0531
  157SAPE  C21717546   1.647   3.644   9.528  0.4972 -0.1816  0.8157
  157SAPE  H17R17547   1.540   3.635   9.498  0.8072  0.2100 -0.4638
  157SAPE  H17S17548   1.708   3.698   9.452  1.2561 -0.6123  1.1021
  157SAPE  C21817549   1.653   3.720   9.661  0.0969 -0.7034 -0.2271
  157SAPE  H18R17550   1.613   3.820   9.635  0.6216  0.0330  1.6361
  157SAPE  H18S17551   1.763   3.735   9.673  0.5289 -1.8940 -2.2767
  157SAPE  C21917552   1.590   3.650   9.780  0.1317 -0.6632  0.0012
  157SAPE  H19R17553   1.660   3.569   9.810  1.5693  1.0536  1.4859
  157SAPE  H19S17554   1.491   3.609   9.748  0.5569 -0.8482 -1.1389
  157SAPE  C22017555   1.579   3.739   9.909  0.4302 -0.1225  0.2109
  157SAPE  H20R17556   1.514   3.829   9.899  0.6223  0.0544  0.5374
  157SAPE  H20S17557   1.683   3.775   9.927 -0.2951  2.5479 -0.5041
  157SAPE  H20T17558   1.548   3.684  10.000  2.3908 -1.4038  0.1705
  157SAPE   C3317559   2.655   3.185  10.306  0.8382 -0.0939 -0.2231
  157SAPE   H3X17560   2.589   3.254  10.362  0.3807  0.2192 -1.1245
  157SAPE   H3Y17561   2.591   3.103  10.268  0.5998 -0.1486  0.3030
  157SAPE   C3417562   2.715   3.260  10.184  0.1175 -0.2552 -0.0663
  157SAPE   H4X17563   2.792   3.192  10.141  0.8651 -0.5192  1.6404
  157SAPE   H4Y17564   2.768   3.350  10.222 -0.4500  0.7351 -1.5154
  157SAPE   C3517565   2.623   3.310  10.072  0.2307 -0.8262 -0.6969
  157SAPE   H5X17566   2.692   3.373  10.012  0.3304  2.3768  2.4286
  157SAPE   H5Y17567   2.551   3.382  10.118 -0.0376 -0.6525 -1.3770
  157SAPE   C3617568   2.546   3.205   9.998 -0.3691 -0.0177 -0.2554
  157SAPE   H6X17569   2.476   3.162  10.073 -1.9490  1.4303 -0.8140
  157SAPE   H6Y17570   2.619   3.129   9.962 -0.0527  0.0898  0.1559
  157SAPE   C3717571   2.466   3.265   9.883  0.4743 -0.4414 -0.3770
  157SAPE   H7X17572   2.382   3.323   9.925 -1.0902 -2.3298 -0.7600
  157SAPE   H7Y17573   2.415   3.186   9.823 -3.7627  0.2558  1.9901
  157SAPE   C3817574   2.547   3.354   9.784 -0.1778  0.1724 -0.2706
  157SAPE   H8X17575   2.584   3.449   9.828  0.4964 -0.6674  1.0483
  157SAPE   H8Y17576   2.473   3.389   9.709 -0.9182 -0.1610  0.2990
  157SAPE   C3917577   2.659   3.292   9.707 -0.2560 -0.1771 -0.7403
  157SAPE   H9X17578   2.720   3.222   9.769  2.6244 -0.3026 -3.4779
  157SAPE   H9Y17579   2.725   3.371   9.667 -0.5678  0.4752  0.0075
  157SAPE  C31017580   2.613   3.211   9.578  0.1081  0.3189 -0.6377
  157SAPE  H10X17581   2.512   3.172   9.603  0.9521 -0.8470  1.2103
  157SAPE  H10Y17582   2.680   3.122   9.580  2.0421  1.7009 -0.5344
  157SAPE  C31117583   2.616   3.288   9.445  0.3311 -0.0286  0.3604
  157SAPE  H11X17584   2.723   3.314   9.429 -0.1973  1.7362 -0.4565
  157SAPE  H11Y17585   2.574   3.390   9.445  0.7146  0.1433  1.9017
  157SAPE  C31217586   2.548   3.200   9.338  0.3570  0.0277 -0.4059
  157SAPE  H12X17587   2.439   3.196   9.360  0.3887 -0.5686 -0.3429
  157SAPE  H12Y17588   2.590   3.097   9.342 -0.0546 -0.2143 -1.7573
  157SAPE  C31317589   2.565   3.254   9.201  0.0510 -0.3680 -0.0692
  157SAPE  H13X17590   2.658   3.315   9.190 -0.1672  0.0138  0.1758
  157SAPE  H13Y17591   2.479   3.318   9.172  0.9320  1.1567  0.5644
  157SAPE  C31417592   2.567   3.143   9.103  0.3436 -0.1427 -0.2605
  157SAPE  H14X17593   2.481   3.078   9.131  0.0262  0.8219  1.0735
  157SAPE  H14Y17594   2.664   3.089   9.094  2.5018  3.2731  0.7097
  157SAPE  C31517595   2.542   3.197   8.965 -0.6222  0.1310  0.2257
  157SAPE  H15X17596   2.442   3.243   8.956 -0.3092  0.5774 -1.3796
  157SAPE  H15Y17597   2.530   3.115   8.890 -1.3202  1.1662 -0.8346
  157SAPE  C31617598   2.652   3.288   8.917 -0.2776  0.0748 -0.5320
  157SAPE  H16X17599   2.745   3.228   8.927 -1.0542 -1.3094 -1.3563
  157SAPE  H16Y17600   2.660   3.380   8.980  2.3398 -1.1336  1.0772
  157SAPE  C31717601   2.639   3.327   8.768  0.2303 -0.5479 -0.0097
  157SAPE  H17X17602   2.639   3.230   8.714 -0.5676 -1.9429  2.3327
  157SAPE  H17Y17603   2.730   3.384   8.737  0.5565 -0.8200  0.4315
  157SAPE  C31817604   2.511   3.399   8.741  0.0094  0.1913 -0.0189
  157SAPE  H18X17605   2.496   3.498   8.789  0.1085 -0.0887  0.6002
  157SAPE  H18Y17606   2.425   3.334   8.768  1.2389 -2.1064 -1.3308
  157SAPE  H18Z17607   2.504   3.416   8.632  0.7247 -0.4989 -0.1810
  158SAPE     N17608   1.475   4.550  10.838 -0.0481  0.1351 -0.0836
  158SAPE   HN117609   1.394   4.485  10.845  0.2572 -0.1583  0.8628
  158SAPE   HN217610   1.541   4.533  10.916 -1.0060  0.4539  0.8021
  158SAPE   HN317611   1.431   4.638  10.869 -0.8182  0.1664 -1.1884
  158SAPE   C1217612   1.543   4.553  10.707 -0.0822 -0.0128  0.6288
  158SAPE  H12A17613   1.457   4.556  10.637 -0.3079 -1.6192  0.7848
  158SAPE  H12B17614   1.597   4.457  10.693 -1.2134 -0.5100 -0.5217
  158SAPE   C1117615   1.626   4.683  10.675  0.1326  0.1179  0.4994
  158SAPE  H11A17616   1.678   4.668  10.578  0.3102  1.5423  0.3512
  158SAPE  H11B17617   1.699   4.702  10.756  1.0988  0.5054 -0.4318
  158SAPE     P17618   1.592   4.934  10.609 -0.2112 -0.1039 -0.1178
  158SAPE   O1317619   1.503   5.044  10.644 -0.0818  0.2571 -0.4847
  158SAPE   O1417620   1.733   4.939  10.651  0.4891  0.0136  0.2324
  158SAPE   O1217621   1.539   4.798  10.676  0.2592  0.0877  0.0547
  158SAPE   O1117622   1.594   4.910  10.460 -0.3839  0.0981  0.2689
  158SAPE    C117623   1.500   4.818  10.401 -0.6864 -0.1154 -0.7949
  158SAPE    HA17624   1.548   4.729  10.355  0.8547  1.4292 -2.3081
  158SAPE    HB17625   1.420   4.781  10.470 -2.0001  0.0595 -2.1621
  158SAPE    C217626   1.424   4.870  10.279  0.1914  0.2522  0.4523
  158SAPE    HS17627   1.368   4.782  10.241 -0.9292  0.9324  0.4862
  158SAPE   O2117628   1.518   4.915  10.174 -0.3218 -0.0161  0.0057
  158SAPE   C2117629   1.577   4.816  10.108  0.7319  0.2562  0.3397
  158SAPE   O2217630   1.542   4.699  10.106 -0.5620 -0.6379 -0.6409
  158SAPE   C2217631   1.693   4.879  10.037  0.2369 -0.2374 -0.2449
  158SAPE   H2R17632   1.659   4.912   9.937 -1.1286 -0.2691  0.1922
  158SAPE   H2S17633   1.739   4.959  10.098  0.2558 -0.9250  0.6635
  158SAPE    C317634   1.324   4.979  10.299  0.7286 -0.5067  0.2668
  158SAPE    HX17635   1.387   5.069  10.315 -0.0481 -0.1352  1.3311
  158SAPE    HY17636   1.277   4.963  10.398  2.5443 -2.3067  0.9054
  158SAPE   O3117637   1.232   5.003  10.189  0.0247  0.8183 -0.4787
  158SAPE   C3117638   1.141   4.913  10.170  0.2866 -1.0623  0.1443
  158SAPE   O3217639   1.117   4.813  10.233 -0.5590 -0.4410 -0.3452
  158SAPE   C3217640   1.069   4.956  10.036  0.9526  0.1091 -0.8516
  158SAPE   H2X17641   1.024   5.054  10.060 -3.0936 -1.2013 -2.2820
  158SAPE   H2Y17642   0.979   4.893  10.019  0.2578  0.9958 -0.5304
  158SAPE   C2317643   1.793   4.763  10.003 -0.2037 -0.1897 -0.4541
  158SAPE   H3R17644   1.735   4.689   9.944  1.0035 -1.4252 -0.1571
  158SAPE   H3S17645   1.820   4.729  10.106  0.4036  1.4918 -0.0192
  158SAPE   C2417646   1.897   4.822   9.920  0.1117  0.4207 -0.0318
  158SAPE   H4R17647   1.954   4.909   9.961  2.0218 -0.5616 -0.4883
  158SAPE   H4S17648   1.862   4.861   9.822  2.3986  1.0974 -0.6589
  158SAPE   C2517649   2.004   4.720   9.901 -0.7650  0.0873  0.3096
  158SAPE   H5R17650   2.092   4.733   9.965  1.0282 -2.2564 -1.4962
  158SAPE   C2617651   2.010   4.619   9.809  0.5450 -0.3580  0.6008
  158SAPE   H6R17652   2.087   4.540   9.817  0.6208 -0.2160  1.2757
  158SAPE   C2717653   1.905   4.590   9.705  0.8700  0.4623 -0.1540
  158SAPE   H7R17654   1.926   4.643   9.609  1.1947 -0.0805 -0.3891
  158SAPE   H7S17655   1.804   4.628   9.731 -0.9975 -3.9911  0.0848
  158SAPE   C2817656   1.882   4.440   9.694 -0.2480  0.8199  0.3040
  158SAPE   H8R17657   1.860   4.397   9.793 -0.2330 -0.2476 -0.1463
  158SAPE   C2917658   1.884   4.354   9.585 -0.1694 -0.3750  0.1772
  158SAPE   H9R17659   1.856   4.251   9.613  0.0075 -0.6553 -0.6468
  158SAPE  C21017660   1.922   4.383   9.440  0.1909 -0.0551 -0.8928
  158SAPE  H10R17661   1.912   4.494   9.431 -0.8704  0.0542  1.1308
  158SAPE  H10S17662   1.853   4.331   9.371 -1.2223  1.4286 -0.6747
  158SAPE  C21117663   2.072   4.340   9.422  0.7941 -1.0490 -0.3727
  158SAPE  H11R17664   2.146   4.325   9.502  1.5189  0.1787 -0.7999
  158SAPE  C21217665   2.113   4.314   9.297  0.7125 -0.0259 -1.0717
  158SAPE  H12R17666   2.216   4.276   9.288  1.0117  0.4521  0.1313
  158SAPE  C21317667   2.025   4.335   9.175  0.3438  0.2598 -0.3865
  158SAPE  H13R17668   2.001   4.444   9.175  1.0694  0.4316 -0.0994
  158SAPE  H13S17669   1.937   4.269   9.188  0.7446 -0.0169  1.2448
  158SAPE  C21417670   2.101   4.293   9.053 -0.0786 -0.2663  0.6142
  158SAPE  H14R17671   2.181   4.219   9.070  1.0369  1.2567  2.4152
  158SAPE  C21517672   2.072   4.338   8.934  0.3296 -0.4352 -0.4996
  158SAPE  H15R17673   2.127   4.293   8.850  3.3822  1.7745  0.1315
  158SAPE  C21617674   1.965   4.441   8.901 -0.8715  0.0168  0.2675
  158SAPE  H16R17675   1.919   4.486   8.991 -0.7829 -0.8947  0.7854
  158SAPE  H16S17676   1.881   4.396   8.843 -0.2285  0.6874 -1.2571
  158SAPE  C21717677   2.028   4.566   8.833  0.3170 -0.2759 -0.0996
  158SAPE  H17R17678   2.085   4.633   8.900  0.4037 -0.6718  0.2241
  158SAPE  H17S17679   1.941   4.634   8.818  0.1893 -0.0553  1.4873
  158SAPE  C21817680   2.104   4.541   8.700  0.3341  1.2778 -0.0073
  158SAPE  H18R17681   2.056   4.461   8.639  2.3026 -0.3826  0.4732
  158SAPE  H18S17682   2.202   4.493   8.721 -0.9164 -2.1797 -1.3031
  158SAPE  C21917683   2.110   4.663   8.603 -0.7765  0.0718 -0.2116
  158SAPE  H19R17684   2.012   4.682   8.555 -1.6717 -2.7187  0.3107
  158SAPE  H19S17685   2.193   4.634   8.535 -1.6983 -1.9696 -0.5416
  158SAPE  C22017686   2.168   4.783   8.680 -0.4411 -0.1767 -0.8023
  158SAPE  H20R17687   2.243   4.830   8.612  0.8822 -0.2012  0.5907
  158SAPE  H20S17688   2.232   4.753   8.765 -1.5416 -2.4806 -0.7167
  158SAPE  H20T17689   2.085   4.853   8.707 -2.3124 -2.3439 -0.6227
  158SAPE   C3317690   1.161   4.952   9.914  0.1312 -0.1411  0.8511
  158SAPE   H3X17691   1.242   5.029   9.914  0.1162 -0.1218  1.4385
  158SAPE   H3Y17692   1.100   4.994   9.831  2.6036  0.3024 -0.8582
  158SAPE   C3417693   1.209   4.804   9.891 -0.8219 -0.4722  0.1952
  158SAPE   H4X17694   1.122   4.749   9.850 -1.3996  0.9754 -0.5738
  158SAPE   H4Y17695   1.242   4.759   9.987 -0.9625  0.5404  0.7235
  158SAPE   C3517696   1.328   4.799   9.788 -0.4122  0.3876  0.0791
  158SAPE   H5X17697   1.402   4.873   9.826  0.1118 -1.0822  2.1069
  158SAPE   H5Y17698   1.295   4.831   9.687 -1.5818 -1.8988 -0.3396
  158SAPE   C3617699   1.394   4.660   9.774 -0.1052 -0.1955 -0.4784
  158SAPE   H6X17700   1.325   4.579   9.742 -0.8486  0.2013  0.0731
  158SAPE   H6Y17701   1.421   4.640   9.880 -0.3215 -1.0903 -0.5883
  158SAPE   C3717702   1.527   4.672   9.698 -0.1583  0.1469 -0.3173
  158SAPE   H7X17703   1.588   4.582   9.723  0.6800  0.9207  0.4881
  158SAPE   H7Y17704   1.580   4.760   9.740 -2.7344  1.5793  0.1264
  158SAPE   C3817705   1.511   4.679   9.547  0.5571 -0.6763 -0.2576
  158SAPE   H8X17706   1.459   4.774   9.524 -0.5039 -0.6427  1.9546
  158SAPE   H8Y17707   1.447   4.596   9.512 -0.7600  0.8767 -1.6539
  158SAPE   C3917708   1.646   4.681   9.468  0.3059  0.2890  0.2492
  158SAPE   H9X17709   1.690   4.582   9.492  0.4256  0.3439  0.2558
  158SAPE   H9Y17710   1.713   4.764   9.502 -0.0952  1.1223 -0.9166
  158SAPE  C31017711   1.617   4.698   9.320 -0.1043  0.3677 -0.1222
  158SAPE  H10X17712   1.558   4.792   9.306  0.2593  1.2628  3.5153
  158SAPE  H10Y17713   1.554   4.622   9.269 -1.1292  0.4974  0.9039
  158SAPE  C31117714   1.760   4.714   9.257 -0.1661 -0.2179  0.6381
  158SAPE  H11X17715   1.817   4.626   9.295  0.3722  0.2091  0.8237
  158SAPE  H11Y17716   1.798   4.806   9.306 -1.4060  0.4224  0.4524
  158SAPE  C31217717   1.768   4.728   9.104 -0.2892 -0.1067  0.1374
  158SAPE  H12X17718   1.715   4.644   9.053 -1.5093  0.2715  0.7486
  158SAPE  H12Y17719   1.874   4.733   9.070 -0.8202  1.4874 -1.4616
  158SAPE  C31317720   1.704   4.864   9.052  0.3597 -0.5972  1.0201
  158SAPE  H13X17721   1.738   4.950   9.113 -0.3484 -0.5185  1.3208
  158SAPE  H13Y17722   1.593   4.866   9.055  0.3527  1.3989  0.7531
  158SAPE  C31417723   1.750   4.894   8.906 -0.6301  0.0578 -0.0929
  158SAPE  H14X17724   1.734   4.800   8.849 -0.8417  0.3457 -0.5157
  158SAPE  H14Y17725   1.861   4.899   8.912 -0.4170 -3.4544  1.7080
  158SAPE  C31517726   1.676   5.012   8.845  0.2933  0.0637 -0.4445
  158SAPE  H15X17727   1.712   5.111   8.882  1.0594 -0.9018  1.5391
  158SAPE  H15Y17728   1.573   5.016   8.885  0.8836 -2.0133  1.4568
  158SAPE  C31617729   1.675   5.012   8.691 -0.0759 -0.1828 -0.7786
  158SAPE  H16X17730   1.643   4.909   8.666  2.0957 -1.6913  2.1796
  158SAPE  H16Y17731   1.782   5.030   8.664  0.3791  0.8243  1.4972
  158SAPE  C31717732   1.586   5.121   8.621 -0.3679 -0.0151  0.8248
  158SAPE  H17X17733   1.615   5.226   8.641 -2.8201  0.9277 -0.1475
  158SAPE  H17Y17734   1.486   5.116   8.670 -0.0339  0.7389  1.6166
  158SAPE  C31817735   1.588   5.101   8.467 -0.3854  0.0326 -0.1126
  158SAPE  H18X17736   1.556   4.998   8.441  0.3353 -0.2988  0.2712
  158SAPE  H18Y17737   1.687   5.132   8.428  0.0279 -0.5524  0.4505
  158SAPE  H18Z17738   1.511   5.165   8.418 -1.2076 -0.8727 -0.0364
  159SAPE     N17739   1.079   4.145   6.196  0.3882  0.0675 -0.1550
  159SAPE   HN117740   1.010   4.220   6.176 -0.7189 -0.3190  1.9533
  159SAPE   HN217741   1.045   4.054   6.158 -0.3372  0.0307  0.5540
  159SAPE   HN317742   1.076   4.126   6.298  1.3567  0.4555 -0.0485
  159SAPE   C1217743   1.220   4.190   6.164 -0.4962 -0.8436 -0.1392
  159SAPE  H12A17744   1.220   4.197   6.053  0.5442  1.1932 -0.0469
  159SAPE  H12B17745   1.294   4.115   6.200  0.0833  1.1470  3.2678
  159SAPE   C1117746   1.243   4.327   6.234 -0.3962  0.3215 -0.0702
  159SAPE  H11A17747   1.162   4.401   6.213 -0.9841  0.2990  1.9058
  159SAPE  H11B17748   1.330   4.375   6.185 -0.4501 -0.5057 -1.0008
  159SAPE     P17749   1.382   4.313   6.462 -0.0266 -0.0794 -0.5221
  159SAPE   O1317750   1.459   4.188   6.443  0.5817  0.3413 -0.3293
  159SAPE   O1417751   1.455   4.437   6.429  0.0435 -0.8190  0.9682
  159SAPE   O1217752   1.252   4.319   6.376 -0.6358 -0.2772  0.0737
  159SAPE   O1117753   1.332   4.322   6.613 -0.5323 -0.2041 -0.2965
  159SAPE    C117754   1.206   4.268   6.640  0.5607 -0.0482 -0.1105
  159SAPE    HA17755   1.129   4.338   6.602 -0.7016  0.3232  2.8330
  159SAPE    HB17756   1.181   4.169   6.598 -2.8474 -0.5390  2.5975
  159SAPE    C217757   1.183   4.261   6.795  0.3912 -0.1293  0.3237
  159SAPE    HS17758   1.083   4.214   6.807  1.4886 -2.2162  2.0164
  159SAPE   O2117759   1.190   4.394   6.859  0.5022  0.2115  0.4015
  159SAPE   C2117760   1.083   4.475   6.833  0.2128 -0.0247  0.4896
  159SAPE   O2217761   0.987   4.443   6.762  0.8951 -0.4221 -0.4956
  159SAPE   C2217762   1.107   4.618   6.888  0.7990 -0.2402  0.3080
  159SAPE   H2R17763   1.203   4.649   6.843  0.8509 -0.7867  0.0298
  159SAPE   H2S17764   1.033   4.685   6.838  0.9388  0.4792  1.0421
  159SAPE    C317765   1.281   4.167   6.866 -0.2447 -0.4572 -0.2462
  159SAPE    HX17766   1.356   4.232   6.916 -0.9864 -0.3610  0.7724
  159SAPE    HY17767   1.339   4.110   6.789  0.9563 -0.2502  0.4833
  159SAPE   O3117768   1.220   4.086   6.973  0.5177 -0.7127  0.3298
  159SAPE   C3117769   1.256   3.959   6.973  0.3724  0.4256 -0.1756
  159SAPE   O3217770   1.335   3.906   6.897  0.3767 -0.3249  0.1719
  159SAPE   C3217771   1.187   3.885   7.085 -0.3094  0.3708  0.5152
  159SAPE   H2X17772   1.208   3.776   7.084 -0.3004  0.3518 -1.9829
  159SAPE   H2Y17773   1.081   3.887   7.053  0.3048  0.3093 -1.6297
  159SAPE   C2317774   1.089   4.646   7.037  0.2997 -0.0395  0.5594
  159SAPE   H3R17775   1.189   4.640   7.085  0.3623  1.2355  0.6228
  159SAPE   H3S17776   1.025   4.570   7.087  0.2818  0.2193  0.9362
  159SAPE   C2417777   1.015   4.774   7.077  0.5935  0.0773 -0.0351
  159SAPE   H4R17778   1.065   4.854   7.018 -1.4599  1.0373 -0.5812
  159SAPE   H4S17779   1.042   4.797   7.182  2.6932 -0.7421 -0.3396
  159SAPE   C2517780   0.861   4.776   7.058  0.2853 -0.1318 -0.2436
  159SAPE   H5R17781   0.824   4.773   6.954  1.4876 -0.2412 -0.6826
  159SAPE   C2617782   0.768   4.774   7.152  0.6836  0.6047  0.3858
  159SAPE   H6R17783   0.664   4.776   7.115  1.2885  0.3263 -1.4244
  159SAPE   C2717784   0.801   4.782   7.300  0.1480 -0.9227  0.1618
  159SAPE   H7R17785   0.908   4.759   7.320  0.4285  0.0038 -0.2421
  159SAPE   H7S17786   0.757   4.696   7.355 -1.2191  0.0711  0.6674
  159SAPE   C2817787   0.757   4.905   7.373 -0.0274  0.5746 -0.3950
  159SAPE   H8R17788   0.717   4.989   7.314  0.2806  1.6048  0.8185
  159SAPE   C2917789   0.761   4.921   7.501 -0.3639  0.7188  0.0762
  159SAPE   H9R17790   0.754   5.021   7.547  0.5644  2.5250 -3.3924
  159SAPE  C21017791   0.811   4.806   7.597 -0.2119 -0.1659 -0.0772
  159SAPE  H10R17792   0.911   4.828   7.640 -0.2695 -0.9290  0.4722
  159SAPE  H10S17793   0.823   4.707   7.548  2.5745 -0.6226  1.3450
  159SAPE  C21117794   0.701   4.794   7.702 -0.5487  0.5179  0.3031
  159SAPE  H11R17795   0.627   4.714   7.690 -1.6490  1.6743 -1.0113
  159SAPE  C21217796   0.705   4.868   7.814  0.1367  0.1189 -0.5966
  159SAPE  H12R17797   0.619   4.861   7.881  0.4658 -2.8755 -0.3244
  159SAPE  C21317798   0.810   4.972   7.865 -0.2090  0.1471 -0.2920
  159SAPE  H13R17799   0.773   4.992   7.968  0.4210 -4.0980  0.9485
  159SAPE  H13S17800   0.806   5.065   7.804  2.0312  1.1356  0.9440
  159SAPE  C21417801   0.952   4.929   7.872 -0.2307  0.2567 -0.5045
  159SAPE  H14R17802   1.009   4.949   7.780 -0.0819  0.6866 -0.3195
  159SAPE  C21517803   1.006   4.863   7.976 -0.2030  0.0900 -0.5932
  159SAPE  H15R17804   1.111   4.828   7.972  0.0084  0.5609  0.4445
  159SAPE  C21617805   0.939   4.818   8.102  0.1093  0.4024  0.1531
  159SAPE  H16R17806   0.967   4.714   8.125  0.6100  0.4490 -0.2467
  159SAPE  H16S17807   0.829   4.820   8.084 -0.3471  0.7848  2.6481
  159SAPE  C21717808   0.957   4.905   8.231 -0.5149 -0.5524 -0.1456
  159SAPE  H17R17809   0.886   4.868   8.308  2.7763 -2.5018  2.2435
  159SAPE  H17S17810   0.942   5.012   8.207  2.0111  0.0850  0.7363
  159SAPE  C21817811   1.093   4.869   8.311  0.8736  0.2131  0.0067
  159SAPE  H18R17812   1.173   4.879   8.235  0.4084 -2.5769 -0.9645
  159SAPE  H18S17813   1.089   4.763   8.341 -1.0387  0.4726  0.8324
  159SAPE  C21917814   1.133   4.964   8.423  0.0463 -0.9864 -0.1826
  159SAPE  H19R17815   1.076   4.955   8.518 -0.9362  1.5082 -0.4602
  159SAPE  H19S17816   1.108   5.069   8.397 -0.3455 -1.0733 -0.1616
  159SAPE  C22017817   1.289   4.959   8.445  0.2650 -0.6701  0.1038
  159SAPE  H20R17818   1.330   5.043   8.504 -1.1193 -1.2469  1.9800
  159SAPE  H20S17819   1.328   4.970   8.341 -2.4254  1.6820 -0.7614
  159SAPE  H20T17820   1.324   4.860   8.481 -0.5744 -0.8892  0.3362
  159SAPE   C3317821   1.207   3.961   7.223 -0.2851 -0.6410  0.7451
  159SAPE   H3X17822   1.211   4.071   7.208 -0.5642 -0.9630 -2.3687
  159SAPE   H3Y17823   1.313   3.943   7.251  0.2441 -0.9061 -1.2620
  159SAPE   C3417824   1.115   3.935   7.335 -0.0837 -0.1107  0.0601
  159SAPE   H4X17825   1.116   3.830   7.370  4.0815 -1.0752 -2.1896
  159SAPE   H4Y17826   1.013   3.962   7.301 -0.0474 -1.9544 -1.7288
  159SAPE   C3517827   1.132   4.032   7.455 -1.4192 -0.5465  1.0086
  159SAPE   H5X17828   1.105   4.133   7.418  0.9804 -0.4778 -0.8079
  159SAPE   H5Y17829   1.240   4.027   7.480 -0.8100 -2.2700 -1.5562
  159SAPE   C3617830   1.058   4.004   7.585  0.5827  0.2383  0.2528
  159SAPE   H6X17831   1.030   3.897   7.579  1.3915  0.0287  0.1471
  159SAPE   H6Y17832   0.963   4.059   7.602  1.3103  1.4441  0.5270
  159SAPE   C3717833   1.136   4.024   7.710  0.8717  0.4421 -0.4474
  159SAPE   H7X17834   1.166   4.131   7.711  0.0605  0.6964 -1.5710
  159SAPE   H7Y17835   1.225   3.957   7.718  0.4295 -0.2239 -0.9918
  159SAPE   C3817836   1.043   3.983   7.825  0.2631  0.6838  0.5629
  159SAPE   H8X17837   1.044   3.872   7.824  1.0912  0.6365 -1.8548
  159SAPE   H8Y17838   0.938   4.017   7.814  0.1035 -0.5954 -3.6545
  159SAPE   C3917839   1.093   4.020   7.963 -0.4485 -0.5327 -0.2569
  159SAPE   H9X17840   1.203   4.020   7.969 -0.4343 -0.1368 -0.4346
  159SAPE   H9Y17841   1.051   3.960   8.046  0.8750 -2.1005 -0.6807
  159SAPE  C31017842   1.042   4.163   7.995 -0.1592 -0.0261  0.9058
  159SAPE  H10X17843   0.932   4.160   7.975 -0.3599 -1.4316  2.0745
  159SAPE  H10Y17844   1.088   4.234   7.923 -1.1948 -1.0857 -0.8872
  159SAPE  C31117845   1.056   4.207   8.140 -0.1458  0.5147  0.0039
  159SAPE  H11X17846   0.985   4.154   8.207 -0.3746  0.1510 -0.5220
  159SAPE  H11Y17847   1.030   4.315   8.144 -0.7041  0.5037 -2.2450
  159SAPE  C31217848   1.194   4.177   8.203 -0.6611  0.0763 -0.2526
  159SAPE  H12X17849   1.279   4.215   8.142 -0.8052  1.3023  0.2843
  159SAPE  H12Y17850   1.207   4.067   8.211 -0.7588 -0.0385 -1.4564
  159SAPE  C31317851   1.203   4.250   8.341  0.1087 -0.4201  0.4618
  159SAPE  H13X17852   1.110   4.230   8.399 -0.0575 -0.0578  0.3198
  159SAPE  H13Y17853   1.223   4.358   8.326  3.6708 -0.8708  1.0739
  159SAPE  C31417854   1.331   4.199   8.416 -0.3232  0.0770  0.1764
  159SAPE  H14X17855   1.418   4.219   8.349  0.7162  0.1499  1.5205
  159SAPE  H14Y17856   1.313   4.090   8.406  0.3811 -0.2295  1.9249
  159SAPE  C31517857   1.361   4.234   8.556  0.5850 -0.9389  0.4282
  159SAPE  H15X17858   1.450   4.177   8.591  2.0366  0.3202 -1.0125
  159SAPE  H15Y17859   1.267   4.223   8.614  0.5307 -1.1271  0.3052
  159SAPE  C31617860   1.407   4.379   8.571  0.3600  0.7170  0.0902
  159SAPE  H16X17861   1.318   4.437   8.538  1.4277  0.8792 -2.8178
  159SAPE  H16Y17862   1.482   4.388   8.490 -0.0287  0.6756 -0.2804
  159SAPE  C31717863   1.456   4.417   8.706  0.2650  1.1538 -0.2713
  159SAPE  H17X17864   1.548   4.355   8.719 -0.4602 -0.1172 -1.0395
  159SAPE  H17Y17865   1.379   4.380   8.777  0.6406  0.9337  0.0279
  159SAPE  C31817866   1.483   4.566   8.731  0.6885  0.4510  0.4216
  159SAPE  H18X17867   1.568   4.591   8.665  0.3441 -1.4960 -0.8510
  159SAPE  H18Y17868   1.523   4.589   8.832  2.0106  2.0773 -0.4222
  159SAPE  H18Z17869   1.397   4.632   8.709  1.0921  0.8123 -0.0897
  160SAPE     N17870   6.088   5.982   6.187  0.2954 -0.4210  0.1903
  160SAPE   HN117871   6.036   6.071   6.181 -1.1359 -1.2024  0.5246
  160SAPE   HN217872   6.181   5.981   6.140  0.9380  0.2470  1.3793
  160SAPE   HN317873   6.027   5.903   6.158 -1.6749  1.1713 -0.2244
  160SAPE   C1217874   6.117   5.962   6.337  0.1441 -0.2473  0.0153
  160SAPE  H12A17875   6.198   6.027   6.377 -0.5078 -0.3996  1.6817
  160SAPE  H12B17876   6.143   5.856   6.352  0.4097  0.0433  1.8617
  160SAPE   C1117877   5.991   6.002   6.417 -0.3607 -0.4338  0.1861
  160SAPE  H11A17878   5.967   6.109   6.397 -0.7624  0.1593  3.3630
  160SAPE  H11B17879   6.014   5.989   6.525  0.8421 -0.6877 -0.0880
  160SAPE     P17880   5.821   5.803   6.457  0.1396  0.2272 -0.1473
  160SAPE   O1317881   5.713   5.851   6.535  0.4473 -0.6273  0.4477
  160SAPE   O1417882   5.786   5.697   6.363  0.4380  0.2358 -0.5608
  160SAPE   O1217883   5.880   5.923   6.374 -0.2716 -0.2381  0.5149
  160SAPE   O1117884   5.941   5.755   6.549  0.3153 -0.2741  0.7243
  160SAPE    C117885   5.957   5.609   6.567 -0.6299  0.3818  0.4186
  160SAPE    HA17886   5.976   5.556   6.471  2.3520 -0.8493  1.5574
  160SAPE    HB17887   6.052   5.606   6.625  0.0809  1.8307 -0.6014
  160SAPE    C217888   5.844   5.534   6.643 -0.9378 -0.0867 -0.4793
  160SAPE    HS17889   5.749   5.547   6.587 -1.8681 -2.2768  0.4690
  160SAPE   O2117890   5.831   5.596   6.778  0.0278  0.1061  0.1316
  160SAPE   C2117891   5.717   5.572   6.836 -0.1591  0.1931  0.6092
  160SAPE   O2217892   5.630   5.500   6.792 -0.1935  0.3312  0.3938
  160SAPE   C2217893   5.712   5.634   6.975 -0.8622  0.3467  1.0656
  160SAPE   H2R17894   5.798   5.602   7.037  0.2522  1.3973  0.1162
  160SAPE   H2S17895   5.715   5.743   6.952  0.2346 -0.3091 -2.5946
  160SAPE    C317896   5.875   5.381   6.659 -0.2321  0.0149  0.0593
  160SAPE    HX17897   5.857   5.334   6.560  1.2854 -0.1069 -0.1855
  160SAPE    HY17898   5.801   5.336   6.728 -0.3219  0.2305  0.1059
  160SAPE   O3117899   6.012   5.371   6.692 -0.3403 -0.4400  0.4014
  160SAPE   C3117900   6.051   5.362   6.820  0.1642 -0.1503  0.3773
  160SAPE   O3217901   5.978   5.355   6.919  0.6224 -0.8847  0.4999
  160SAPE   C3217902   6.200   5.357   6.822 -0.1674 -0.3896 -0.0296
  160SAPE   H2X17903   6.243   5.419   6.741 -0.7191  1.3195  0.9321
  160SAPE   H2Y17904   6.236   5.253   6.806  0.2069 -0.5598  1.6747
  160SAPE   C2317905   5.592   5.593   7.054  0.0404  0.3305 -0.5393
  160SAPE   H3R17906   5.600   5.485   7.082  1.7380  0.7694  0.8739
  160SAPE   H3S17907   5.494   5.613   7.006 -1.3076 -0.4854  1.6947
  160SAPE   C2417908   5.581   5.666   7.192  0.1378  0.4221  0.2712
  160SAPE   H4R17909   5.547   5.771   7.183  0.7047  0.6062  0.2127
  160SAPE   H4S17910   5.685   5.669   7.231  0.4615 -1.5969 -0.3155
  160SAPE   C2517911   5.504   5.587   7.290  0.1121  0.6266 -0.1818
  160SAPE   H5R17912   5.460   5.495   7.250  0.1648  0.0639  1.0100
  160SAPE   C2617913   5.472   5.641   7.414  0.2992  0.9891 -0.4250
  160SAPE   H6R17914   5.402   5.582   7.476  1.2550 -0.6660 -0.8611
  160SAPE   C2717915   5.518   5.775   7.466  0.5194  0.5095  0.3583
  160SAPE   H7R17916   5.534   5.847   7.383  1.0916 -0.6026 -0.5165
  160SAPE   H7S17917   5.625   5.764   7.493  1.2619  0.7822 -2.2025
  160SAPE   C2817918   5.452   5.824   7.598 -1.3232  0.1971  0.1497
  160SAPE   H8R17919   5.366   5.892   7.587 -1.3288  0.1470 -0.1289
  160SAPE   C2917920   5.497   5.783   7.725  0.6421 -0.2358  0.1234
  160SAPE   H9R17921   5.434   5.815   7.809  0.6560  0.3468 -0.0815
  160SAPE  C21017922   5.607   5.683   7.758  0.0367  0.0201 -0.2917
  160SAPE  H10R17923   5.676   5.668   7.671  0.6855  0.2196  0.1784
  160SAPE  H10S17924   5.556   5.590   7.788  0.8814 -0.1645  0.6326
  160SAPE  C21117925   5.693   5.745   7.865  0.0733  0.2693  0.4089
  160SAPE  H11R17926   5.739   5.835   7.822  2.7227 -0.6487  1.1051
  160SAPE  C21217927   5.718   5.703   7.988 -0.3098  0.1289  0.5114
  160SAPE  H12R17928   5.786   5.764   8.049 -1.2383 -0.0182  1.7254
  160SAPE  C21317929   5.655   5.586   8.061  0.5535  0.6725 -0.1927
  160SAPE  H13R17930   5.734   5.511   8.086  0.7134  0.8415 -0.1858
  160SAPE  H13S17931   5.588   5.530   7.993  1.5843  0.1056 -0.7673
  160SAPE  C21417932   5.576   5.640   8.179 -0.0561  0.6767 -1.0827
  160SAPE  H14R17933   5.521   5.734   8.164 -2.4811 -0.4781 -0.0350
  160SAPE  C21517934   5.553   5.575   8.298  0.1049 -0.2774  0.3141
  160SAPE  H15R17935   5.490   5.633   8.366 -1.5030 -0.1477 -1.2023
  160SAPE  C21617936   5.608   5.451   8.351 -0.1854  0.0069 -0.0469
  160SAPE  H16R17937   5.657   5.397   8.268  0.2424  0.6769 -0.2375
  160SAPE  H16S17938   5.523   5.382   8.373 -2.1171  1.6436 -1.9517
  160SAPE  C21717939   5.702   5.477   8.462 -0.4936  0.5980 -0.4976
  160SAPE  H17R17940   5.733   5.373   8.487 -2.4469 -0.2899 -1.5376
  160SAPE  H17S17941   5.635   5.514   8.543  1.2965  1.1203  0.8327
  160SAPE  C21817942   5.823   5.574   8.445 -0.3056 -0.2534  0.2725
  160SAPE  H18R17943   5.782   5.676   8.436  0.2642  0.0675  1.1539
  160SAPE  H18S17944   5.864   5.562   8.342 -2.7368  3.2174 -1.2867
  160SAPE  C21917945   5.933   5.549   8.548  0.4666  0.3939 -0.2700
  160SAPE  H19R17946   5.970   5.446   8.529  0.3113 -0.2686  2.5136
  160SAPE  H19S17947   5.880   5.553   8.645 -0.6552 -0.1144 -0.8529
  160SAPE  C22017948   6.042   5.651   8.561 -0.4222  0.2281  0.0117
  160SAPE  H20R17949   6.001   5.753   8.550 -2.2256 -0.7250 -3.8091
  160SAPE  H20S17950   6.125   5.642   8.487 -0.5335 -1.6720  0.0482
  160SAPE  H20T17951   6.086   5.644   8.663 -1.4083  0.9653  0.5082
  160SAPE   C3317952   6.260   5.395   6.955 -0.8677 -0.1214 -0.3126
  160SAPE   H3X17953   6.193   5.374   7.041 -0.5612  0.0830 -0.0240
  160SAPE   H3Y17954   6.267   5.506   6.953 -2.3060 -0.0177 -1.1195
  160SAPE   C3417955   6.401   5.349   6.980 -0.1683 -0.0713 -0.2437
  160SAPE   H4X17956   6.460   5.360   6.887  0.0191 -3.2003 -0.6083
  160SAPE   H4Y17957   6.405   5.241   7.006  0.4735 -0.1679 -0.7159
  160SAPE   C3517958   6.462   5.422   7.100  0.1946 -0.0211 -1.0891
  160SAPE   H5X17959   6.466   5.529   7.073  1.7864  0.3197  0.3313
  160SAPE   H5Y17960   6.563   5.377   7.115 -0.3606 -0.8492  0.3268
  160SAPE   C3617961   6.395   5.384   7.234 -0.1825  0.7105  0.6015
  160SAPE   H6X17962   6.413   5.276   7.253  0.4863  0.3806 -1.6826
  160SAPE   H6Y17963   6.284   5.397   7.227 -0.1754 -0.1808 -2.6367
  160SAPE   C3717964   6.464   5.466   7.348  0.6243  0.2855  0.4525
  160SAPE   H7X17965   6.455   5.576   7.336  1.8986  0.1773 -2.3463
  160SAPE   H7Y17966   6.571   5.436   7.344  0.7573  0.6560  1.1185
  160SAPE   C3817967   6.409   5.427   7.484  0.9545  0.2877  0.4200
  160SAPE   H8X17968   6.440   5.325   7.513 -2.4411 -0.8053  0.6394
  160SAPE   H8Y17969   6.298   5.436   7.489  0.4578  0.3810 -4.8157
  160SAPE   C3917970   6.465   5.511   7.596 -0.5516 -0.1309  0.5449
  160SAPE   H9X17971   6.417   5.612   7.595  0.4008  0.3342  0.0572
  160SAPE   H9Y17972   6.572   5.540   7.587 -0.8563  1.0703  0.5513
  160SAPE  C31017973   6.457   5.453   7.736  0.4691 -0.1830  0.1181
  160SAPE  H10X17974   6.526   5.366   7.739  1.2881  0.4924  2.0200
  160SAPE  H10Y17975   6.352   5.430   7.764 -0.3728 -0.6436 -2.9845
  160SAPE  C31117976   6.512   5.544   7.842 -0.0060 -0.0217  0.1698
  160SAPE  H11X17977   6.459   5.641   7.837  2.5010  1.4066 -0.6652
  160SAPE  H11Y17978   6.622   5.563   7.836  0.4496 -1.3235  2.8143
  160SAPE  C31217979   6.480   5.499   7.992 -0.1054 -0.2727 -0.9035
  160SAPE  H12X17980   6.495   5.390   8.003 -0.9052 -0.3715 -0.7265
  160SAPE  H12Y17981   6.374   5.531   7.997  0.4007  1.3268  1.3614
  160SAPE  C31317982   6.546   5.584   8.091 -0.2100  0.7291 -0.9016
  160SAPE  H13X17983   6.541   5.694   8.074 -2.0750  0.8866  0.4005
  160SAPE  H13Y17984   6.656   5.567   8.083 -0.3136 -0.9086  0.6120
  160SAPE  C31417985   6.493   5.561   8.238 -1.2571 -0.3852 -0.3213
  160SAPE  H14X17986   6.496   5.452   8.260  4.3344 -0.5178 -0.2424
  160SAPE  H14Y17987   6.390   5.602   8.238 -0.8697  0.6240  0.7855
  160SAPE  C31517988   6.565   5.634   8.352  0.5186  0.0824 -0.0198
  160SAPE  H15X17989   6.554   5.742   8.331  1.3177  0.3631  0.9422
  160SAPE  H15Y17990   6.673   5.610   8.346  0.7044  1.1777 -2.4060
  160SAPE  C31617991   6.503   5.607   8.486  0.3766  0.3639 -0.8423
  160SAPE  H16X17992   6.488   5.499   8.505 -2.8946  1.0976  1.5912
  160SAPE  H16Y17993   6.403   5.654   8.481  0.4544  0.4093 -2.7430
  160SAPE  C31717994   6.581   5.675   8.593  0.0495  0.4486  0.1238
  160SAPE  H17X17995   6.558   5.784   8.590 -0.8895  0.2998  1.1014
  160SAPE  H17Y17996   6.689   5.654   8.582 -0.3822 -1.7530 -0.2700
  160SAPE  C31817997   6.546   5.622   8.736 -0.1231 -0.5880  0.1996
  160SAPE  H18X17998   6.441   5.641   8.765  0.2083  1.8859 -0.0224
  160SAPE  H18Y17999   6.618   5.659   8.812  0.3988 -2.7882  0.8557
  160SAPE  H18Z18000   6.545   5.511   8.728 -2.2172 -0.8389  2.4738
  161SAPE     N18001   0.750   3.708   6.311  0.3529 -0.2006 -0.2741
  161SAPE   HN118002   0.811   3.766   6.250 -0.0004  2.3084  1.6045
  161SAPE   HN218003   0.680   3.658   6.253 -0.4944  1.4130 -0.7176
  161SAPE   HN318004   0.695   3.781   6.361 -1.2073  0.1309 -2.3275
  161SAPE   C1218005   0.854   3.626   6.377  1.0336  0.5019  0.6196
  161SAPE  H12A18006   0.870   3.543   6.306  1.8308 -0.8531  2.3105
  161SAPE  H12B18007   0.804   3.582   6.466  1.1909  0.6749  0.7943
  161SAPE   C1118008   0.982   3.706   6.411 -0.3452  0.1421  0.3729
  161SAPE  H11A18009   1.046   3.736   6.326 -0.7068 -2.0229 -0.7187
  161SAPE  H11B18010   1.060   3.648   6.464  1.0630  0.1139 -1.6361
  161SAPE     P18011   1.050   3.917   6.541 -0.0529 -0.3179 -0.0930
  161SAPE   O1318012   1.182   3.853   6.560  0.5615 -0.0875 -0.5193
  161SAPE   O1418013   1.035   4.026   6.438 -0.4163  0.0553 -0.3161
  161SAPE   O1218014   0.948   3.812   6.500  0.2282  0.1748 -0.2871
  161SAPE   O1118015   1.007   3.979   6.684  0.3689  0.2268 -0.2052
  161SAPE    C118016   0.875   4.031   6.708  0.4165 -0.1071 -0.6564
  161SAPE    HA18017   0.881   4.141   6.696  1.8864  0.2365  2.3239
  161SAPE    HB18018   0.807   3.993   6.629 -0.0467  1.3387 -0.9666
  161SAPE    C218019   0.813   3.989   6.844  0.2861 -0.0150 -0.4381
  161SAPE    HS18020   0.704   4.012   6.835  0.6766  3.1766  1.6860
  161SAPE   O2118021   0.855   4.064   6.956 -0.0142 -0.2347 -0.4582
  161SAPE   C2118022   0.827   4.189   6.973  0.0692 -1.1963 -0.3287
  161SAPE   O2218023   0.759   4.260   6.905  0.1903 -0.3481  0.5051
  161SAPE   C2218024   0.899   4.224   7.105 -0.0565 -0.9084 -0.0024
  161SAPE   H2R18025   0.904   4.133   7.168  0.9471 -1.5561 -0.9795
  161SAPE   H2S18026   0.998   4.259   7.067 -1.2996  0.0414 -2.5670
  161SAPE    C318027   0.843   3.841   6.866  0.0738 -0.3588  0.6778
  161SAPE    HX18028   0.953   3.835   6.884  0.1960 -0.9927 -0.2160
  161SAPE    HY18029   0.818   3.798   6.767  0.8092 -1.7836  1.0812
  161SAPE   O3118030   0.770   3.776   6.971  0.4878 -0.7397  0.0039
  161SAPE   C3118031   0.816   3.648   6.988  0.0943 -0.1751  0.0828
  161SAPE   O3218032   0.904   3.596   6.920  0.2805  0.0693 -0.5285
  161SAPE   C3218033   0.743   3.581   7.100 -0.6711 -0.6658 -0.3209
  161SAPE   H2X18034   0.748   3.472   7.082 -0.7309 -0.6753 -0.2789
  161SAPE   H2Y18035   0.638   3.616   7.089 -0.7826 -0.7348  0.4892
  161SAPE   C2318036   0.827   4.344   7.178  0.0461 -0.2164  0.0222
  161SAPE   H3R18037   0.717   4.329   7.179  0.0189 -0.0061  0.4693
  161SAPE   H3S18038   0.850   4.437   7.123  0.6913 -0.2566  0.2134
  161SAPE   C2418039   0.879   4.363   7.318 -0.1391 -0.1007  0.2868
  161SAPE   H4R18040   0.862   4.263   7.365  0.4932 -1.0026 -1.3183
  161SAPE   H4S18041   0.823   4.438   7.377  1.4521 -0.8599  2.9232
  161SAPE   C2518042   1.023   4.403   7.317  0.1178 -0.4219 -0.8747
  161SAPE   H5R18043   1.066   4.406   7.216 -1.7506 -0.9659 -1.7468
  161SAPE   C2618044   1.102   4.418   7.424 -0.2627 -0.1130 -0.2840
  161SAPE   H6R18045   1.210   4.431   7.405  0.0475 -1.5922  0.3660
  161SAPE   C2718046   1.057   4.397   7.565  0.0498 -0.7964 -0.6137
  161SAPE   H7R18047   1.143   4.356   7.623  0.2940  1.5139  0.8125
  161SAPE   H7S18048   0.965   4.336   7.580 -1.0097  0.6333 -1.1040
  161SAPE   C2818049   1.034   4.533   7.635 -0.0837 -0.4852  0.2210
  161SAPE   H8R18050   0.965   4.592   7.572  1.5272 -0.1154 -1.2915
  161SAPE   C2918051   1.075   4.586   7.750  0.1455 -0.7226 -0.8143
  161SAPE   H9R18052   1.040   4.690   7.762 -0.4286 -0.7687 -1.9239
  161SAPE  C21018053   1.167   4.529   7.854  0.1509 -0.1130  0.2440
  161SAPE  H10R18054   1.202   4.427   7.829  0.3510  0.3641 -1.5987
  161SAPE  H10S18055   1.115   4.521   7.952  0.3130 -0.4022  0.3057
  161SAPE  C21118056   1.274   4.633   7.876 -0.0699  0.0697  0.2885
  161SAPE  H11R18057   1.293   4.707   7.797  0.1203  0.4503  0.6843
  161SAPE  C21218058   1.353   4.645   7.988 -0.0217  0.5869 -0.2828
  161SAPE  H12R18059   1.427   4.727   7.992 -0.5707  1.1681 -1.3882
  161SAPE  C21318060   1.339   4.558   8.101  0.5721  0.3209 -0.2907
  161SAPE  H13R18061   1.380   4.458   8.078 -2.2333 -0.8462 -0.6879
  161SAPE  H13S18062   1.234   4.531   8.126  1.5710 -2.5231  1.2966
  161SAPE  C21418063   1.378   4.614   8.241  0.1241  0.0656  0.3324
  161SAPE  H14R18064   1.291   4.627   8.308  0.9027  0.9729  1.1965
  161SAPE  C21518065   1.503   4.627   8.280  0.8031 -0.2881 -0.4772
  161SAPE  H15R18066   1.517   4.659   8.385  1.5488  0.2228 -0.7197
  161SAPE  C21618067   1.624   4.604   8.201 -0.7822 -0.6090  1.0312
  161SAPE  H16R18068   1.607   4.633   8.095 -0.2414  0.3526  1.1973
  161SAPE  H16S18069   1.646   4.495   8.205  1.1740 -0.2375  1.2226
  161SAPE  C21718070   1.749   4.685   8.252  0.9034 -0.0236 -0.3108
  161SAPE  H17R18071   1.799   4.625   8.330  0.6698  0.4016  0.1717
  161SAPE  H17S18072   1.728   4.783   8.301  1.6741  0.0133 -0.0292
  161SAPE  C21818073   1.853   4.714   8.143  0.2145  0.0816 -0.7813
  161SAPE  H18R18074   1.933   4.783   8.177  0.1189 -0.1750 -0.0192
  161SAPE  H18S18075   1.798   4.771   8.065 -0.1794  1.4896  0.4627
  161SAPE  C21918076   1.904   4.581   8.089 -0.6236 -0.0749  0.0476
  161SAPE  H19R18077   1.817   4.533   8.039 -1.7847  3.2305 -1.3790
  161SAPE  H19S18078   1.951   4.522   8.170  2.1991  1.1369 -0.5797
  161SAPE  C22018079   2.015   4.605   7.988 -0.5826  0.1828  0.5148
  161SAPE  H20R18080   1.981   4.659   7.897 -1.7064 -2.2026 -0.5727
  161SAPE  H20S18081   2.064   4.507   7.969  0.2682  0.4327  1.3278
  161SAPE  H20T18082   2.093   4.669   8.036  0.7282 -0.2949 -0.8942
  161SAPE   C3318083   0.802   3.620   7.236  0.8549  0.4193 -0.5419
  161SAPE   H3X18084   0.912   3.611   7.228  1.1969  3.0315  0.1674
  161SAPE   H3Y18085   0.762   3.553   7.316 -1.2660  2.1334 -0.0511
  161SAPE   C3418086   0.752   3.757   7.288 -0.4624 -0.1189 -0.5349
  161SAPE   H4X18087   0.645   3.781   7.267  0.5529  2.9752 -2.9411
  161SAPE   H4Y18088   0.808   3.829   7.224  0.1480 -1.7361 -1.8670
  161SAPE   C3518089   0.788   3.783   7.434 -0.1032 -0.3342  0.7776
  161SAPE   H5X18090   0.787   3.891   7.459 -0.5266  0.0238 -0.6598
  161SAPE   H5Y18091   0.889   3.743   7.457  1.5032  1.9662 -1.6138
  161SAPE   C3618092   0.688   3.728   7.530 -0.2393  0.3136 -0.3014
  161SAPE   H6X18093   0.686   3.617   7.521  0.5107 -0.0713  2.9679
  161SAPE   H6Y18094   0.587   3.766   7.502 -1.0175  0.1221  2.0141
  161SAPE   C3718095   0.728   3.770   7.664 -0.5195  0.1685  0.0389
  161SAPE   H7X18096   0.720   3.880   7.674 -0.2739  0.0987  1.1101
  161SAPE   H7Y18097   0.837   3.750   7.668 -0.3718  1.0577  1.0425
  161SAPE   C3818098   0.653   3.703   7.775  0.8368  0.1071  0.0568
  161SAPE   H8X18099   0.654   3.592   7.768  1.7522  0.1243 -0.1951
  161SAPE   H8Y18100   0.544   3.726   7.778  0.8990  0.3086  3.0938
  161SAPE   C3918101   0.712   3.745   7.916  0.6833  0.9547 -0.2487
  161SAPE   H9X18102   0.734   3.854   7.914 -0.1215  1.1259 -0.3252
  161SAPE   H9Y18103   0.806   3.691   7.939  0.8920  1.6169  0.5012
  161SAPE  C31018104   0.606   3.708   8.028 -0.6017  0.2518  0.4358
  161SAPE  H10X18105   0.586   3.600   8.015 -0.1285  0.2770 -0.5849
  161SAPE  H10Y18106   0.503   3.746   8.017 -2.0373 -3.4477 -0.2899
  161SAPE  C31118107   0.652   3.722   8.172  0.6438 -0.0737 -0.8723
  161SAPE  H11X18108   0.749   3.671   8.189  0.4370  0.4693  2.7898
  161SAPE  H11Y18109   0.592   3.657   8.240  0.0655 -1.7312 -2.8504
  161SAPE  C31218110   0.676   3.867   8.219 -1.1233  0.2752 -0.3793
  161SAPE  H12X18111   0.580   3.922   8.224 -1.1928  0.3523 -2.0750
  161SAPE  H12Y18112   0.749   3.927   8.160 -0.2808 -1.1059 -0.7914
  161SAPE  C31318113   0.735   3.869   8.362 -0.5056  0.3643  0.2236
  161SAPE  H13X18114   0.834   3.819   8.373 -0.0581  0.9523 -1.0234
  161SAPE  H13Y18115   0.670   3.804   8.423 -0.2211 -0.6160 -0.5087
  161SAPE  C31418116   0.747   4.006   8.414 -0.0271 -0.1089  0.3298
  161SAPE  H14X18117   0.639   4.036   8.418 -0.6421 -1.4852 -2.8353
  161SAPE  H14Y18118   0.795   4.073   8.340 -1.1264  2.1167  1.5103
  161SAPE  C31518119   0.820   4.029   8.550 -0.2768 -0.0406 -0.2092
  161SAPE  H15X18120   0.826   4.139   8.569  0.2327  0.0385 -0.7837
  161SAPE  H15Y18121   0.923   3.990   8.536 -0.5758 -1.2761  0.8490
  161SAPE  C31618122   0.739   3.959   8.655  0.3032  0.4824 -0.6606
  161SAPE  H16X18123   0.729   3.851   8.631  0.5389  0.1055  0.8341
  161SAPE  H16Y18124   0.643   4.015   8.656 -0.2464 -0.4307 -1.1522
  161SAPE  C31718125   0.808   3.959   8.793 -0.7374  0.1235  0.4326
  161SAPE  H17X18126   0.906   3.907   8.796  0.1123  1.6120 -0.1140
  161SAPE  H17Y18127   0.741   3.914   8.870 -1.2532  1.2449  0.6590
  161SAPE  C31818128   0.843   4.104   8.844  0.3121  0.3763  0.6014
  161SAPE  H18X18129   0.925   4.150   8.786  0.3764 -1.2127 -0.6414
  161SAPE  H18Y18130   0.870   4.115   8.951 -0.5752  1.3936  0.7352
  161SAPE  H18Z18131   0.748   4.158   8.822  1.1814  2.8640  2.5501
  162SAPE     N18132   4.916   0.150   6.195 -0.4648 -0.4540  0.1712
  162SAPE   HN118133   4.886   0.095   6.278  1.7066 -1.5854  0.2902
  162SAPE   HN218134   5.012   0.183   6.218 -0.8741  0.1845  1.0185
  162SAPE   HN318135   4.863   0.238   6.181 -1.3907 -1.0816 -0.4049
  162SAPE   C1218136   4.925   0.071   6.070 -0.2644  0.2598  0.1565
  162SAPE  H12A18137   4.954   0.147   5.994  0.1575 -0.7029 -0.6770
  162SAPE  H12B18138   4.824   0.033   6.042  0.3936 -0.5410 -1.2859
  162SAPE   C1118139   5.024  -0.039   6.091  0.3439  0.0407 -0.7820
  162SAPE  H11A18140   5.128   0.001   6.081  2.0433 -3.8120 -0.3622
  162SAPE  H11B18141   5.005  -0.101   6.001 -0.3033  0.7739 -1.1606
  162SAPE     P18142   5.089  -0.242   6.248 -0.0391  0.3745  0.2774
  162SAPE   O1318143   5.019  -0.317   6.350  0.3600 -0.1195 -0.3029
  162SAPE   O1418144   5.121  -0.306   6.116 -0.3544 -0.4920  0.2557
  162SAPE   O1218145   5.011  -0.106   6.222  0.0416  0.2557 -0.0882
  162SAPE   O1118146   5.231  -0.203   6.312 -0.0212 -0.1003 -0.2768
  162SAPE    C118147   5.248  -0.089   6.396  0.4626  0.1739 -0.0016
  162SAPE    HA18148   5.332  -0.030   6.353  3.3955 -2.6737  1.2897
  162SAPE    HB18149   5.152  -0.038   6.413 -0.4922 -1.6545  0.3710
  162SAPE    C218150   5.292  -0.125   6.535 -0.7181  0.7991 -0.7782
  162SAPE    HS18151   5.385  -0.186   6.524 -1.1809 -0.3637  1.1223
  162SAPE   O2118152   5.186  -0.200   6.599  0.1230 -0.2776 -0.0019
  162SAPE   C2118153   5.215  -0.323   6.643 -0.0483  0.4604 -0.3463
  162SAPE   O2218154   5.317  -0.384   6.636  0.1392  0.0922  0.0336
  162SAPE   C2218155   5.093  -0.369   6.708  0.1973  0.2756 -0.7076
  162SAPE   H2R18156   5.043  -0.288   6.764 -1.5020 -2.0967  1.4752
  162SAPE   H2S18157   5.024  -0.413   6.633  0.9475  2.9313 -3.1284
  162SAPE    C318158   5.339  -0.011   6.625  0.5141  0.1059 -0.8089
  162SAPE    HX18159   5.254   0.061   6.623  0.6150  0.2864  0.4290
  162SAPE    HY18160   5.424   0.046   6.582  1.9490 -2.7843 -2.0417
  162SAPE   O3118161   5.368  -0.044   6.762  0.4598  0.2873  0.0291
  162SAPE   C3118162   5.481  -0.104   6.784  0.5920 -0.2725 -0.3423
  162SAPE   O3218163   5.568  -0.114   6.700  0.5323 -0.3398 -0.2230
  162SAPE   C3218164   5.489  -0.139   6.929  0.5018  0.4926 -0.1008
  162SAPE   H2X18165   5.496  -0.050   6.995 -1.6914 -0.3704  1.4327
  162SAPE   H2Y18166   5.578  -0.197   6.961  0.5864  0.6363 -0.0734
  162SAPE   C2318167   5.115  -0.483   6.809 -0.8402  0.2682 -0.0627
  162SAPE   H3R18168   5.164  -0.457   6.905 -2.8789  1.8648  0.6129
  162SAPE   H3S18169   5.186  -0.550   6.756  0.3054  2.0238 -0.8221
  162SAPE   C2418170   4.989  -0.578   6.842 -0.3727  0.5305  0.2315
  162SAPE   H4R18171   5.023  -0.653   6.917  1.5341  2.4116  1.3557
  162SAPE   H4S18172   4.950  -0.630   6.751 -1.6104 -0.6174  1.3753
  162SAPE   C2518173   4.884  -0.487   6.896 -0.5661  0.7822  0.1740
  162SAPE   H5R18174   4.814  -0.449   6.820  0.7397  2.7937 -0.0946
  162SAPE   C2618175   4.874  -0.438   7.024  0.2097  0.1684 -0.1153
  162SAPE   H6R18176   4.790  -0.368   7.036  1.0783  1.8365 -2.7586
  162SAPE   C2718177   4.969  -0.455   7.138 -0.6854  0.5123 -0.4708
  162SAPE   H7R18178   4.947  -0.384   7.220 -3.0915 -1.4279  0.6627
  162SAPE   H7S18179   5.071  -0.426   7.102 -0.4086  0.4306  0.2318
  162SAPE   C2818180   4.982  -0.594   7.201  1.0143 -0.2823 -0.2230
  162SAPE   H8R18181   4.945  -0.681   7.144  3.0565 -0.2161 -1.7414
  162SAPE   C2918182   5.044  -0.616   7.322 -0.6425  0.3778 -0.3226
  162SAPE   H9R18183   5.056  -0.717   7.363  1.9064  0.3165 -1.0117
  162SAPE  C21018184   5.111  -0.513   7.411  0.1457 -0.2136  0.3837
  162SAPE  H10R18185   5.137  -0.423   7.351  0.7849 -1.0338 -0.6071
  162SAPE  H10S18186   5.205  -0.555   7.453 -1.0217 -0.2647  3.1348
  162SAPE  C21118187   5.031  -0.469   7.532 -0.0862  0.3391 -0.3371
  162SAPE  H11R18188   4.930  -0.433   7.511 -0.5044 -0.3075  0.4912
  162SAPE  C21218189   5.073  -0.475   7.664  0.1117  0.6262 -0.0723
  162SAPE  H12R18190   5.003  -0.448   7.744 -2.1442 -0.2580 -1.6371
  162SAPE  C21318191   5.212  -0.517   7.718 -0.1235 -0.4242  0.3978
  162SAPE  H13R18192   5.250  -0.426   7.768 -1.9461  0.4801  0.2131
  162SAPE  H13S18193   5.286  -0.546   7.640  1.2603 -0.5478  1.7075
  162SAPE  C21418194   5.198  -0.622   7.820 -0.1042 -0.0669 -0.2462
  162SAPE  H14R18195   5.160  -0.716   7.777 -1.3687 -0.6820  1.9900
  162SAPE  C21518196   5.193  -0.606   7.955 -0.0322  0.1258  0.3756
  162SAPE  H15R18197   5.202  -0.697   8.016 -2.5119 -0.1918  0.3658
  162SAPE  C21618198   5.212  -0.480   8.028  0.0262 -0.9614 -0.4868
  162SAPE  H16R18199   5.134  -0.409   7.992  0.7113 -0.8494 -1.8081
  162SAPE  H16S18200   5.313  -0.436   8.020 -0.7256  2.4554  4.7028
  162SAPE  C21718201   5.208  -0.488   8.181 -0.7314  0.3344 -0.2048
  162SAPE  H17R18202   5.303  -0.535   8.213 -0.8367 -0.0866 -0.5127
  162SAPE  H17S18203   5.117  -0.549   8.194  0.6742 -2.2948 -1.8660
  162SAPE  C21818204   5.199  -0.344   8.241  0.1576 -0.1089 -0.2906
  162SAPE  H18R18205   5.101  -0.306   8.203  0.2339  0.1499 -0.2322
  162SAPE  H18S18206   5.268  -0.268   8.199  0.5151  0.8932  1.9482
  162SAPE  C21918207   5.212  -0.360   8.394 -0.2779 -0.4032 -0.0867
  162SAPE  H19R18208   5.117  -0.409   8.425  1.0338 -2.1531  1.3909
  162SAPE  H19S18209   5.210  -0.256   8.434 -0.4269 -1.0025  1.5471
  162SAPE  C22018210   5.325  -0.453   8.457  1.4629  0.7613 -0.0819
  162SAPE  H20R18211   5.344  -0.423   8.562 -0.6359  0.1263  0.5238
  162SAPE  H20S18212   5.418  -0.433   8.399  0.2186  2.4503 -1.6331
  162SAPE  H20T18213   5.291  -0.558   8.450  0.3822  0.8349  2.7294
  162SAPE   C3318214   5.359  -0.208   6.992  0.0024 -0.0101 -0.2937
  162SAPE   H3X18215   5.365  -0.315   6.960  3.0082 -0.0325  0.0516
  162SAPE   H3Y18216   5.265  -0.174   6.944  1.0513  2.4271 -0.7759
  162SAPE   C3418217   5.343  -0.197   7.144 -0.1967  0.1620 -0.0093
  162SAPE   H4X18218   5.270  -0.278   7.167  1.2288 -1.5694 -1.3242
  162SAPE   H4Y18219   5.291  -0.103   7.172  2.9122  2.2147 -0.6537
  162SAPE   C3518220   5.466  -0.192   7.230  0.1149  0.0763 -0.3614
  162SAPE   H5X18221   5.548  -0.132   7.188  2.0689 -1.7253  0.6859
  162SAPE   H5Y18222   5.511  -0.294   7.239 -2.6910 -1.2277  0.1497
  162SAPE   C3618223   5.443  -0.128   7.367 -0.8480 -0.4149  0.5917
  162SAPE   H6X18224   5.398  -0.027   7.356 -0.9940 -0.5677 -0.2441
  162SAPE   H6Y18225   5.538  -0.125   7.425 -0.2356  0.1435 -0.4243
  162SAPE   C3718226   5.351  -0.215   7.457  0.1284  0.7403 -0.6551
  162SAPE   H7X18227   5.393  -0.317   7.449 -0.1398  0.6827 -1.4167
  162SAPE   H7Y18228   5.248  -0.215   7.414 -1.1522 -1.5956  2.0929
  162SAPE   C3818229   5.335  -0.178   7.605  0.1974  0.4079  0.3482
  162SAPE   H8X18230   5.249  -0.237   7.642  1.3333 -1.9064 -0.4557
  162SAPE   H8Y18231   5.317  -0.069   7.611  1.7683  0.6124  2.5553
  162SAPE   C3918232   5.468  -0.193   7.683  0.4302  0.0422  0.1458
  162SAPE   H9X18233   5.538  -0.111   7.655 -0.2960  0.1129 -1.5576
  162SAPE   H9Y18234   5.512  -0.292   7.657  0.4068 -0.2070  1.0346
  162SAPE  C31018235   5.445  -0.170   7.833 -0.0853 -0.2484  0.3517
  162SAPE  H10X18236   5.364  -0.237   7.870 -1.1880  1.2537  0.7162
  162SAPE  H10Y18237   5.396  -0.072   7.850 -0.7543 -0.0323 -2.4272
  162SAPE  C31118238   5.571  -0.188   7.917  0.0080  0.5413 -0.3955
  162SAPE  H11X18239   5.643  -0.108   7.890 -0.4972  1.6571  1.3628
  162SAPE  H11Y18240   5.621  -0.285   7.897 -0.0472  0.4617 -0.1597
  162SAPE  C31218241   5.523  -0.189   8.062  0.7889  0.2155  0.2469
  162SAPE  H12X18242   5.500  -0.295   8.082  1.9115  0.1083  1.0817
  162SAPE  H12Y18243   5.437  -0.120   8.068  1.9256  1.8141 -0.8960
  162SAPE  C31318244   5.626  -0.149   8.161 -0.0183 -0.0495  0.3697
  162SAPE  H13X18245   5.646  -0.040   8.152  2.9890 -0.3125  2.3181
  162SAPE  H13Y18246   5.725  -0.194   8.135  0.3325  0.9738 -0.0989
  162SAPE  C31418247   5.586  -0.188   8.306  0.1516 -0.1808  0.2606
  162SAPE  H14X18248   5.593  -0.298   8.319 -1.1945 -0.3825 -0.6047
  162SAPE  H14Y18249   5.480  -0.156   8.316  0.3235  0.3258  0.5319
  162SAPE  C31518250   5.665  -0.110   8.405  0.5386  0.2640 -0.1955
  162SAPE  H15X18251   5.645  -0.001   8.401 -1.9679 -0.1891 -2.0412
  162SAPE  H15Y18252   5.768  -0.121   8.365  0.0403  0.3601 -1.5463
  162SAPE  C31618253   5.650  -0.162   8.549  0.7323  0.1458  0.2200
  162SAPE  H16X18254   5.734  -0.121   8.609  1.0058 -0.9521  0.6006
  162SAPE  H16Y18255   5.660  -0.272   8.548  1.4540  0.1993  0.5928
  162SAPE  C31718256   5.507  -0.128   8.609 -0.6203  0.5755  0.1834
  162SAPE  H17X18257   5.427  -0.157   8.537 -1.4978  1.8794  0.5877
  162SAPE  H17Y18258   5.510  -0.017   8.613 -0.4274  0.5207  2.2389
  162SAPE  C31818259   5.487  -0.181   8.747 -0.3810 -0.1700 -0.5029
  162SAPE  H18X18260   5.433  -0.278   8.745  0.3214 -0.6155  0.7465
  162SAPE  H18Y18261   5.405  -0.119   8.788  1.1146  1.1988  0.5445
  162SAPE  H18Z18262   5.585  -0.177   8.800 -0.9829  1.6778  0.5602
  163SAPE     N18263   3.390   0.129   6.425 -0.3913 -0.1788 -0.7669
  163SAPE   HN118264   3.478   0.161   6.470  0.1660 -1.5037 -0.8684
  163SAPE   HN218265   3.365   0.197   6.351  0.2165 -1.1810 -1.9279
  163SAPE   HN318266   3.324   0.135   6.505 -0.0806 -1.0595 -0.4357
  163SAPE   C1218267   3.390  -0.017   6.384 -0.2424  0.0216 -0.2114
  163SAPE  H12A18268   3.461  -0.025   6.298 -0.0110  3.8863 -0.5975
  163SAPE  H12B18269   3.287  -0.055   6.374 -0.3331 -0.4457  2.0547
  163SAPE   C1118270   3.446  -0.097   6.503 -0.1723  0.5827 -0.9323
  163SAPE  H11A18271   3.464  -0.202   6.474 -1.9002 -0.5620  1.8060
  163SAPE  H11B18272   3.373  -0.111   6.586  3.8486 -0.7381  2.7433
  163SAPE     P18273   3.706  -0.033   6.490  0.4094  0.1789 -0.2864
  163SAPE   O1318274   3.746  -0.174   6.472  0.4457  0.2460  0.0264
  163SAPE   O1418275   3.700   0.043   6.366  0.2447  0.6146 -0.5369
  163SAPE   O1218276   3.566  -0.029   6.549  0.3288  0.0710  0.4162
  163SAPE   O1118277   3.806   0.033   6.591 -0.9872  0.4559 -0.0881
  163SAPE    C118278   3.774   0.136   6.687  0.2671 -0.3923  0.1275
  163SAPE    HA18279   3.796   0.234   6.639 -0.4693  0.1057  0.7871
  163SAPE    HB18280   3.664   0.134   6.699  0.0353  1.0977 -1.4166
  163SAPE    C218281   3.838   0.125   6.827  0.2157 -0.3401  0.6480
  163SAPE    HS18282   3.811   0.215   6.886  2.2427  0.3490  0.5969
  163SAPE   O2118283   3.977   0.132   6.804 -0.1781 -0.3287 -0.6203
  163SAPE   C2118284   4.050   0.193   6.900  0.0682  0.1871  0.1109
  163SAPE   O2218285   4.003   0.232   7.006 -0.0660 -0.5609  0.4763
  163SAPE   C2218286   4.204   0.181   6.868  0.7492  0.1269  0.1629
  163SAPE   H2R18287   4.225   0.078   6.834 -0.8246  0.3123 -1.5406
  163SAPE   H2S18288   4.217   0.255   6.786  1.0020 -1.0241 -0.8710
  163SAPE    C318289   3.789  -0.006   6.902 -0.0215 -0.2656  0.0926
  163SAPE    HX18290   3.802  -0.087   6.827 -1.7755 -0.7315  0.2475
  163SAPE    HY18291   3.681  -0.009   6.929 -0.1783 -0.2075 -0.5041
  163SAPE   O3118292   3.866  -0.031   7.020 -0.0052  0.1531  0.4864
  163SAPE   C3118293   3.817   0.029   7.126 -0.7879  0.5106 -0.6952
  163SAPE   O3218294   3.723   0.101   7.132 -0.0555  0.2180  0.2877
  163SAPE   C3218295   3.911  -0.008   7.242  0.2620 -0.2041  0.7006
  163SAPE   H2X18296   4.005   0.049   7.222 -1.5635  2.1900 -1.9536
  163SAPE   H2Y18297   3.933  -0.116   7.247 -0.0400 -0.2869  0.3120
  163SAPE   C2318298   4.300   0.218   6.981 -0.2700 -0.0766 -0.2141
  163SAPE   H3R18299   4.277   0.318   7.025 -2.3355  0.2210 -1.8352
  163SAPE   H3S18300   4.400   0.234   6.936  0.2214  0.0606  0.8740
  163SAPE   C2418301   4.291   0.109   7.091 -0.8563 -0.3172  0.2158
  163SAPE   H4R18302   4.283   0.009   7.044 -1.8059  0.1581 -0.6492
  163SAPE   H4S18303   4.194   0.125   7.143 -0.6357 -1.2653  0.9491
  163SAPE   C2518304   4.414   0.120   7.180 -0.2081 -0.5283  0.3015
  163SAPE   H5R18305   4.508   0.138   7.126 -1.3482 -2.2735 -2.4992
  163SAPE   C2618306   4.422   0.124   7.315 -1.1167  0.1017  0.4385
  163SAPE   H6R18307   4.519   0.145   7.362 -0.0909 -0.5814 -1.2711
  163SAPE   C2718308   4.313   0.119   7.426  0.7981  0.4438  0.1166
  163SAPE   H7R18309   4.343   0.049   7.507  0.3916 -1.7013 -1.4796
  163SAPE   H7S18310   4.221   0.081   7.377  1.5940  0.0597 -1.1409
  163SAPE   C2818311   4.276   0.254   7.479 -0.1125  0.0765 -0.5423
  163SAPE   H8R18312   4.240   0.319   7.398 -2.5662 -0.8091 -0.2331
  163SAPE   C2918313   4.272   0.297   7.608  0.4002  0.1564 -0.2843
  163SAPE   H9R18314   4.250   0.405   7.619 -0.2680  0.0136 -0.1582
  163SAPE  C21018315   4.315   0.220   7.734  0.5439  0.2782  0.1688
  163SAPE  H10R18316   4.276   0.117   7.718 -3.2159  1.7493 -1.3935
  163SAPE  H10S18317   4.254   0.250   7.821 -2.8292 -0.6818 -1.6745
  163SAPE  C21118318   4.460   0.225   7.769  0.0418  0.2255  1.1834
  163SAPE  H11R18319   4.521   0.243   7.679  0.2184  0.9852  1.4442
  163SAPE  C21218320   4.527   0.212   7.894  0.7600  0.4262  0.6807
  163SAPE  H12R18321   4.637   0.213   7.902  0.7393 -1.6042  1.8820
  163SAPE  C21318322   4.460   0.190   8.030  0.9091 -0.4206  0.0579
  163SAPE  H13R18323   4.535   0.141   8.096  2.3239  0.4401 -0.8620
  163SAPE  H13S18324   4.386   0.109   8.014 -1.1490  1.1950  0.9661
  163SAPE  C21418325   4.402   0.319   8.089  0.0324 -0.2899 -0.6890
  163SAPE  H14R18326   4.396   0.407   8.023  1.0869  1.2103  1.1181
  163SAPE  C21518327   4.365   0.337   8.217 -0.1891 -0.0465 -0.4348
  163SAPE  H15R18328   4.316   0.426   8.258  1.1706  0.1768  0.7608
  163SAPE  C21618329   4.365   0.231   8.327 -1.4720  0.7250 -0.1965
  163SAPE  H16R18330   4.444   0.263   8.397  0.2375 -1.5380 -0.9950
  163SAPE  H16S18331   4.403   0.138   8.282 -0.5410  2.0508 -2.3109
  163SAPE  C21718332   4.230   0.206   8.391  0.2233 -0.1197  0.0788
  163SAPE  H17R18333   4.166   0.148   8.322  0.7055  0.7752 -1.1503
  163SAPE  H17S18334   4.184   0.302   8.424 -0.0656  0.1750 -1.1529
  163SAPE  C21818335   4.247   0.116   8.514  0.1801  0.1545 -0.8149
  163SAPE  H18R18336   4.297   0.170   8.597  4.1382  1.4739 -3.6936
  163SAPE  H18S18337   4.305   0.027   8.481 -1.6151 -0.3422 -2.8604
  163SAPE  C21918338   4.111   0.053   8.573 -0.1955 -0.0157  0.1003
  163SAPE  H19R18339   4.139  -0.021   8.651 -0.1857 -2.7340 -2.3252
  163SAPE  H19S18340   4.057  -0.010   8.500  2.2637 -0.1468 -1.7367
  163SAPE  C22018341   4.020   0.161   8.623  0.7626 -0.2585  0.2798
  163SAPE  H20R18342   3.970   0.223   8.546  0.0292  1.0999  1.7951
  163SAPE  H20S18343   4.080   0.229   8.688 -0.7801  0.3745  1.0936
  163SAPE  H20T18344   3.934   0.118   8.677 -0.3510  2.6426  1.0360
  163SAPE   C3318345   3.854   0.042   7.380  0.2247 -0.1590 -0.5249
  163SAPE   H3X18346   3.754  -0.003   7.397 -1.1949  1.6890 -3.2167
  163SAPE   H3Y18347   3.836   0.152   7.378 -1.3606 -0.3840 -0.0896
  163SAPE   C3418348   3.939   0.001   7.507 -0.8136 -0.4651 -0.1048
  163SAPE   H4X18349   4.048   0.005   7.486 -1.1982  0.2107 -2.1198
  163SAPE   H4Y18350   3.913  -0.103   7.534  1.2956 -0.5003  2.1377
  163SAPE   C3518351   3.919   0.098   7.634 -0.1950  0.1613 -0.4317
  163SAPE   H5X18352   3.814   0.135   7.627 -0.6070 -1.0943 -1.3619
  163SAPE   H5Y18353   3.984   0.186   7.611 -0.8128  1.9409  3.7221
  163SAPE   C3618354   3.937   0.038   7.777 -0.1105  0.6231 -0.4699
  163SAPE   H6X18355   4.039  -0.006   7.780 -0.3827 -0.0037  0.0930
  163SAPE   H6Y18356   3.865  -0.044   7.799  1.1951  0.0574  2.2125
  163SAPE   C3718357   3.925   0.139   7.895 -0.9085 -0.6010 -0.2219
  163SAPE   H7X18358   3.829   0.194   7.890  1.1311  3.1002 -2.6363
  163SAPE   H7Y18359   4.001   0.218   7.877 -0.7669 -1.1206 -2.1712
  163SAPE   C3818360   3.951   0.092   8.043  0.1785  0.0423  0.5055
  163SAPE   H8X18361   3.953   0.182   8.108  0.5659  1.0930 -0.9212
  163SAPE   H8Y18362   4.044   0.032   8.045 -1.3280 -2.4858 -0.5227
  163SAPE   C3918363   3.835   0.007   8.087  0.1542  0.3796  0.0816
  163SAPE   H9X18364   3.839  -0.074   8.011 -0.4329  1.0473 -0.6762
  163SAPE   H9Y18365   3.738   0.060   8.092 -1.7140 -2.9499  1.5849
  163SAPE  C31018366   3.867  -0.051   8.219  0.2748 -1.1017  0.7643
  163SAPE  H10X18367   3.866   0.016   8.307  0.0783 -0.7873  0.5233
  163SAPE  H10Y18368   3.967  -0.098   8.205  0.5746  0.1721 -2.0707
  163SAPE  C31118369   3.765  -0.160   8.260  0.0984 -0.1315 -0.6574
  163SAPE  H11X18370   3.754  -0.238   8.181  0.4616 -0.9837  0.1172
  163SAPE  H11Y18371   3.666  -0.110   8.270  0.4906  0.6502 -0.6282
  163SAPE  C31218372   3.798  -0.239   8.392  0.1450 -0.5686  0.9941
  163SAPE  H12X18373   3.856  -0.182   8.467 -2.0380  0.8389  1.6995
  163SAPE  H12Y18374   3.869  -0.322   8.372  0.4440 -0.1849  0.4331
  163SAPE  C31318375   3.670  -0.297   8.464  0.3625 -0.8338  0.2378
  163SAPE  H13X18376   3.600  -0.351   8.396 -1.3762 -1.1236  2.1499
  163SAPE  H13Y18377   3.613  -0.212   8.508 -0.1720 -0.6264 -0.8294
  163SAPE  C31418378   3.708  -0.402   8.577 -0.5298  0.4434  0.7872
  163SAPE  H14X18379   3.731  -0.497   8.523 -3.1006 -0.2340  0.7721
  163SAPE  H14Y18380   3.621  -0.417   8.643 -0.2759  2.2315  1.5696
  163SAPE  C31518381   3.829  -0.355   8.661  1.0615 -0.1303  0.5064
  163SAPE  H15X18382   3.922  -0.334   8.604 -0.0087 -2.1341 -2.1795
  163SAPE  H15Y18383   3.858  -0.441   8.725  0.9611 -2.6686 -2.6060
  163SAPE  C31618384   3.787  -0.231   8.736 -0.6457 -1.0214  0.2507
  163SAPE  H16X18385   3.687  -0.243   8.783 -0.5381 -0.3124  0.6692
  163SAPE  H16Y18386   3.771  -0.152   8.660 -0.0811 -2.6207 -1.6178
  163SAPE  C31718387   3.892  -0.183   8.845  0.2407 -0.5334 -0.6983
  163SAPE  H17X18388   3.867  -0.078   8.869 -0.7886 -0.8583 -0.2730
  163SAPE  H17Y18389   3.992  -0.171   8.798  1.0512 -0.7115  0.8964
  163SAPE  C31818390   3.887  -0.262   8.979  0.2351  0.7687  0.8511
  163SAPE  H18X18391   3.980  -0.242   9.037  0.3179  2.8832  0.0503
  163SAPE  H18Y18392   3.876  -0.372   8.961  0.1545  0.8688  0.2716
  163SAPE  H18Z18393   3.791  -0.232   9.027 -2.3990 -2.3117 -1.9670
  164SAPE     N18394   5.982   2.361   6.025  0.1764  0.5689 -0.1684
  164SAPE   HN118395   5.933   2.421   5.955  2.7259  1.4085 -1.3603
  164SAPE   HN218396   6.032   2.283   5.977 -0.3882  0.8745 -1.2923
  164SAPE   HN318397   5.906   2.316   6.079  0.4454 -2.1313 -1.8475
  164SAPE   C1218398   6.070   2.434   6.118  0.7049  1.1794  1.1860
  164SAPE  H12A18399   6.148   2.484   6.056 -1.0778  1.4765 -0.9661
  164SAPE  H12B18400   6.113   2.358   6.186  0.4492  0.3189  0.4111
  164SAPE   C1118401   5.980   2.525   6.188  0.0954 -0.4762 -0.5724
  164SAPE  H11A18402   6.048   2.573   6.262 -0.3417 -0.3677 -0.2406
  164SAPE  H11B18403   5.905   2.476   6.254 -0.0313 -0.1535 -0.4722
  164SAPE     P18404   5.963   2.770   6.084  0.1848  0.2255 -0.4364
  164SAPE   O1318405   6.111   2.788   6.088  0.0869  0.0457 -0.8822
  164SAPE   O1418406   5.888   2.824   5.971 -0.3275 -0.1470 -0.3732
  164SAPE   O1218407   5.929   2.619   6.092  0.2866  0.5208  0.1227
  164SAPE   O1118408   5.897   2.836   6.209 -0.0143 -0.1820 -0.1140
  164SAPE    C118409   5.966   2.861   6.329  0.2767  0.6467 -0.3042
  164SAPE    HA18410   6.016   2.767   6.363  0.7921 -0.1874 -3.0670
  164SAPE    HB18411   6.038   2.939   6.296 -1.4135  1.0766 -3.3195
  164SAPE    C218412   5.891   2.933   6.442  1.0028  0.1571 -0.6797
  164SAPE    HS18413   5.969   2.960   6.516  0.1808  1.4363 -0.2410
  164SAPE   O2118414   5.798   2.840   6.496  0.1176  0.2942 -0.9565
  164SAPE   C2118415   5.842   2.732   6.573  0.0531 -0.5966  0.2252
  164SAPE   O2218416   5.953   2.721   6.612 -0.7424 -0.1870  0.2133
  164SAPE   C2218417   5.719   2.641   6.591  0.3068  0.0844 -0.5080
  164SAPE   H2R18418   5.627   2.702   6.573  0.2695 -0.1986 -1.3057
  164SAPE   H2S18419   5.729   2.562   6.514  1.1455 -1.2912  0.9595
  164SAPE    C318420   5.827   3.069   6.380  0.6443  0.3923 -0.0250
  164SAPE    HX18421   5.758   3.042   6.297 -0.1538  2.8652 -0.2299
  164SAPE    HY18422   5.915   3.126   6.344  0.2389  0.7163 -0.5139
  164SAPE   O3118423   5.765   3.149   6.483  0.0905 -0.0552 -0.6164
  164SAPE   C3118424   5.650   3.132   6.548 -0.7242  0.5306 -0.1727
  164SAPE   O3218425   5.573   3.040   6.527 -0.0552  0.0055 -0.2663
  164SAPE   C3218426   5.629   3.244   6.649 -0.4807 -0.0761 -0.3910
  164SAPE   H2X18427   5.523   3.270   6.629 -0.6840  2.0171  2.7803
  164SAPE   H2Y18428   5.702   3.324   6.622  1.1638 -1.0431  1.0038
  164SAPE   C2318429   5.716   2.564   6.723  0.2978 -0.5338 -0.0950
  164SAPE   H3R18430   5.820   2.526   6.720  1.1097  1.5726 -0.4171
  164SAPE   H3S18431   5.646   2.478   6.719  2.1761 -2.1192 -4.4121
  164SAPE   C2418432   5.691   2.645   6.847  0.1036 -0.7507  0.3053
  164SAPE   H4R18433   5.763   2.729   6.852 -0.0737 -0.3941 -2.1269
  164SAPE   H4S18434   5.705   2.583   6.939 -0.8239  0.7966  1.5427
  164SAPE   C2518435   5.546   2.685   6.851  0.2588 -0.4462 -0.6104
  164SAPE   H5R18436   5.496   2.690   6.753 -1.4162  0.7145  0.2412
  164SAPE   C2618437   5.468   2.721   6.957 -0.4544  0.6825  0.0027
  164SAPE   H6R18438   5.366   2.752   6.931  0.4762  2.2983 -1.9999
  164SAPE   C2718439   5.511   2.727   7.102  0.5217 -0.6523  0.0901
  164SAPE   H7R18440   5.604   2.788   7.102 -0.0406  0.2574  1.5865
  164SAPE   H7S18441   5.543   2.622   7.122  1.9691 -0.5650 -1.5484
  164SAPE   C2818442   5.412   2.779   7.209  0.7445  0.6760 -0.3144
  164SAPE   H8R18443   5.305   2.760   7.193  1.4607 -2.3707 -2.4249
  164SAPE   C2918444   5.452   2.823   7.330  0.2392 -0.0352  0.1056
  164SAPE   H9R18445   5.378   2.859   7.403  0.6449 -1.2281  1.1514
  164SAPE  C21018446   5.598   2.820   7.376  0.3738 -1.1680  0.4012
  164SAPE  H10R18447   5.659   2.854   7.289  1.9440 -2.1741  1.0642
  164SAPE  H10S18448   5.640   2.717   7.374 -1.1027 -1.8249  1.5790
  164SAPE  C21118449   5.641   2.896   7.501  0.3758 -0.7595  0.1677
  164SAPE  H11R18450   5.614   2.853   7.599  0.3230  0.1059  0.5440
  164SAPE  C21218451   5.695   3.020   7.497  0.1347  0.2978 -0.0443
  164SAPE  H12R18452   5.731   3.070   7.588  1.2129 -1.0075  0.2898
  164SAPE  C21318453   5.735   3.097   7.374  0.4626 -0.7078  0.1133
  164SAPE  H13R18454   5.727   3.207   7.392  1.4606 -0.4394 -0.9729
  164SAPE  H13S18455   5.665   3.068   7.293 -1.7383  2.6267  0.5818
  164SAPE  C21418456   5.878   3.094   7.310 -0.1113 -0.2360 -0.5794
  164SAPE  H14R18457   5.886   3.046   7.211  0.9541  0.9907 -1.1203
  164SAPE  C21518458   5.989   3.152   7.356  0.1663  1.0011 -0.2649
  164SAPE  H15R18459   6.079   3.142   7.293  0.7514 -1.0497  0.7948
  164SAPE  C21618460   6.005   3.227   7.486 -0.0475 -0.3005 -0.0950
  164SAPE  H16R18461   5.907   3.233   7.538 -0.1248  0.2878 -0.3057
  164SAPE  H16S18462   6.035   3.332   7.469 -1.4836  0.0623 -0.5870
  164SAPE  C21718463   6.117   3.169   7.578  0.4696  0.2743  0.2055
  164SAPE  H17R18464   6.210   3.169   7.516 -1.6474  2.4981 -3.3273
  164SAPE  H17S18465   6.095   3.062   7.593  0.5954  0.2572  0.2727
  164SAPE  C21818466   6.121   3.252   7.702 -0.5525 -0.2094  0.2599
  164SAPE  H18R18467   6.117   3.362   7.689 -0.4402  0.0040  1.8654
  164SAPE  H18S18468   6.226   3.233   7.732 -0.5580  0.6410  0.8602
  164SAPE  C21918469   6.025   3.210   7.810 -0.1841  0.2970 -0.7309
  164SAPE  H19R18470   6.047   3.104   7.836  0.2795  0.5183 -0.2008
  164SAPE  H19S18471   5.926   3.237   7.768 -0.9424 -0.1136  0.7408
  164SAPE  C22018472   6.047   3.280   7.941 -0.2586  0.2429  0.6534
  164SAPE  H20R18473   5.961   3.271   8.011 -0.8612  0.3927 -0.0505
  164SAPE  H20S18474   6.074   3.387   7.926  0.6474 -0.1130 -0.4015
  164SAPE  H20T18475   6.131   3.224   7.988 -0.9204 -2.6456 -1.3456
  164SAPE   C3318476   5.650   3.190   6.793  0.0261 -0.4929 -0.2743
  164SAPE   H3X18477   5.738   3.125   6.807  0.0332 -0.3927  0.1783
  164SAPE   H3Y18478   5.569   3.124   6.831  0.0456 -0.0246  0.6110
  164SAPE   C3418479   5.662   3.319   6.879  0.3758  0.2294 -0.0849
  164SAPE   H4X18480   5.565   3.373   6.877 -1.2187 -2.4474 -1.7758
  164SAPE   H4Y18481   5.728   3.395   6.832  0.1795  1.1871  1.1368
  164SAPE   C3518482   5.701   3.297   7.022 -0.3071 -0.2282 -0.2002
  164SAPE   H5X18483   5.780   3.220   7.039 -0.3656 -0.3237 -0.3615
  164SAPE   H5Y18484   5.613   3.249   7.071  0.6869 -0.8955  0.9996
  164SAPE   C3618485   5.753   3.422   7.098  0.1886  1.0817 -0.1773
  164SAPE   H6X18486   5.837   3.464   7.039  0.0023  0.8527 -0.6163
  164SAPE   H6Y18487   5.796   3.389   7.195  1.4217  1.1018 -0.7026
  164SAPE   C3718488   5.654   3.527   7.135  0.5122 -0.3212 -0.0597
  164SAPE   H7X18489   5.581   3.482   7.206 -0.4266  0.8342 -0.2711
  164SAPE   H7Y18490   5.605   3.545   7.037  1.9058  2.2265 -0.3736
  164SAPE   C3818491   5.707   3.660   7.186 -0.1533 -0.2899 -0.2045
  164SAPE   H8X18492   5.633   3.743   7.191  1.2358  0.9842 -0.0555
  164SAPE   H8Y18493   5.767   3.705   7.104 -2.5324  1.7070 -0.9742
  164SAPE   C3918494   5.782   3.664   7.319  0.2068  0.2513  0.9273
  164SAPE   H9X18495   5.797   3.770   7.348  2.9415  0.0078  0.6660
  164SAPE   H9Y18496   5.884   3.625   7.300  0.1120  0.8507 -0.9579
  164SAPE  C31018497   5.727   3.581   7.436 -0.0971 -0.1050  0.3728
  164SAPE  H10X18498   5.745   3.473   7.415  0.8137 -0.2607  1.8510
  164SAPE  H10Y18499   5.616   3.590   7.439 -0.1649 -0.1597 -1.1933
  164SAPE  C31118500   5.784   3.612   7.575 -0.6423  0.7247 -0.6392
  164SAPE  H11X18501   5.760   3.714   7.612  1.4681  1.5073 -1.2820
  164SAPE  H11Y18502   5.893   3.594   7.573  0.1290  4.5877 -0.7682
  164SAPE  C31218503   5.709   3.531   7.687 -0.4916  0.5281  0.1910
  164SAPE  H12X18504   5.711   3.423   7.660 -0.2354  0.3743  0.8063
  164SAPE  H12Y18505   5.600   3.548   7.686 -0.4059  1.0774 -0.5382
  164SAPE  C31318506   5.769   3.554   7.821 -0.1821  0.3782 -0.3610
  164SAPE  H13X18507   5.878   3.533   7.811 -0.3428 -0.4920 -0.4247
  164SAPE  H13Y18508   5.720   3.476   7.884  2.9512 -1.1265  0.4565
  164SAPE  C31418509   5.759   3.696   7.876 -0.3101 -0.1658 -0.2628
  164SAPE  H14X18510   5.649   3.716   7.873 -0.4279 -0.8013 -2.5433
  164SAPE  H14Y18511   5.806   3.764   7.802 -4.2561  1.7497 -1.3349
  164SAPE  C31518512   5.822   3.711   8.014  0.2874 -0.2856 -0.2531
  164SAPE  H15X18513   5.786   3.812   8.046 -1.1433 -1.9116  3.9131
  164SAPE  H15Y18514   5.930   3.692   8.028  0.2705 -1.1985 -1.2248
  164SAPE  C31618515   5.759   3.624   8.125  0.4836 -0.0622 -0.6157
  164SAPE  H16X18516   5.793   3.521   8.107  0.1913 -0.2349 -0.2061
  164SAPE  H16Y18517   5.648   3.632   8.126  0.5443  1.0455 -1.1777
  164SAPE  C31718518   5.815   3.650   8.262  1.0357 -0.5450  0.0457
  164SAPE  H17X18519   5.926   3.653   8.259  1.1106 -2.2343 -0.0801
  164SAPE  H17Y18520   5.776   3.564   8.321  1.0412 -2.1980 -2.2406
  164SAPE  C31818521   5.765   3.779   8.337  0.1297  0.4699  1.0166
  164SAPE  H18X18522   5.792   3.778   8.445  1.8850  3.6363  0.7202
  164SAPE  H18Y18523   5.655   3.765   8.335  0.1648  0.1352 -0.9712
  164SAPE  H18Z18524   5.807   3.871   8.290  0.1565  0.2944  0.6933
  165SAPE     N18525   2.795   6.145   6.323  0.4462  0.2414 -0.1980
  165SAPE   HN118526   2.869   6.097   6.269  0.1032  1.3502 -1.7258
  165SAPE   HN218527   2.709   6.144   6.266 -0.0345  0.2855  0.5120
  165SAPE   HN318528   2.831   6.243   6.331  0.3782  0.2405  0.1441
  165SAPE   C1218529   2.778   6.093   6.468 -0.6412 -0.2757 -0.6668
  165SAPE  H12A18530   2.685   6.137   6.510  1.2547  2.7335  0.7429
  165SAPE  H12B18531   2.869   6.127   6.521 -0.6826 -2.4014  0.8825
  165SAPE   C1118532   2.763   5.942   6.459 -0.6623  0.1332  0.2550
  165SAPE  H11A18533   2.748   5.914   6.566 -2.2278 -0.7723 -0.1648
  165SAPE  H11B18534   2.862   5.898   6.435 -0.1041 -0.9046  3.8162
  165SAPE     P18535   2.632   5.757   6.318 -0.0712 -0.1850  0.7871
  165SAPE   O1318536   2.560   5.781   6.190  0.8010  0.4275  0.1981
  165SAPE   O1418537   2.763   5.685   6.313 -0.0235  0.1455 -0.4098
  165SAPE   O1218538   2.645   5.902   6.384 -0.3217  0.1584  0.8580
  165SAPE   O1118539   2.535   5.682   6.416  0.1968  0.2021 -0.1160
  165SAPE    C118540   2.539   5.715   6.557 -0.3939  0.1890  0.5510
  165SAPE    HA18541   2.637   5.682   6.596 -0.7356  1.5771  2.7527
  165SAPE    HB18542   2.527   5.820   6.593  0.8154  0.3375  0.5628
  165SAPE    C218543   2.440   5.626   6.645 -0.6513  0.3054 -0.2668
  165SAPE    HS18544   2.462   5.522   6.614 -2.4785 -0.5032  0.9562
  165SAPE   O2118545   2.305   5.657   6.619 -0.0137 -0.5771  0.2661
  165SAPE   C2118546   2.218   5.559   6.649  0.5419 -0.0636  0.1581
  165SAPE   O2218547   2.243   5.456   6.712  0.0117 -0.3744 -0.0173
  165SAPE   C2218548   2.083   5.601   6.597 -0.1343  0.0547  0.5832
  165SAPE   H2R18549   2.095   5.598   6.487 -0.2722  0.6387  0.5447
  165SAPE   H2S18550   2.010   5.523   6.630  0.8114 -0.3315  1.8474
  165SAPE    C318551   2.471   5.641   6.800  0.2487  0.8094  0.3945
  165SAPE    HX18552   2.401   5.573   6.853  1.8025 -0.9451  0.2998
  165SAPE    HY18553   2.446   5.742   6.838 -2.0157  0.6504 -0.4957
  165SAPE   O3118554   2.603   5.611   6.845  0.1860 -0.2530 -0.0150
  165SAPE   C3118555   2.649   5.485   6.852 -0.2456  0.0317  0.2967
  165SAPE   O3218556   2.582   5.385   6.824 -0.0812  0.6948  0.3637
  165SAPE   C3218557   2.795   5.476   6.913 -0.3398 -0.1855  0.3006
  165SAPE   H2X18558   2.824   5.583   6.923 -0.3647 -0.0937 -0.5067
  165SAPE   H2Y18559   2.860   5.435   6.833 -1.3609 -1.4451  0.0873
  165SAPE   C2318560   2.034   5.746   6.626  0.1576 -0.2539 -0.6728
  165SAPE   H3R18561   1.930   5.747   6.588 -0.4717 -1.8015  0.8683
  165SAPE   H3S18562   2.105   5.816   6.576  0.9998 -1.7041 -1.5754
  165SAPE   C2418563   2.030   5.789   6.777 -0.2497  0.0685 -0.3726
  165SAPE   H4R18564   2.117   5.739   6.825  0.5246 -0.5878 -2.3689
  165SAPE   H4S18565   1.942   5.754   6.836 -0.1988  0.8732  0.1922
  165SAPE   C2518566   2.043   5.940   6.792 -0.8637 -0.5485 -0.5774
  165SAPE   H5R18567   1.958   5.994   6.748 -1.3075 -0.1960  0.6676
  165SAPE   C2618568   2.145   6.003   6.863  0.5208 -0.8990 -0.1418
  165SAPE   H6R18569   2.138   6.109   6.892 -1.4228 -0.6601 -1.2729
  165SAPE   C2718570   2.256   5.934   6.933 -0.2601  0.3450  0.5210
  165SAPE   H7R18571   2.333   5.891   6.867 -1.1176 -3.2529  1.6276
  165SAPE   H7S18572   2.217   5.838   6.973 -0.1354  0.0768 -0.0029
  165SAPE   C2818573   2.319   6.005   7.052 -0.2407 -0.6280  1.0023
  165SAPE   H8R18574   2.253   6.052   7.126  0.0952  0.1364  0.8327
  165SAPE   C2918575   2.448   6.037   7.057 -0.4578  0.4810  0.1135
  165SAPE   H9R18576   2.485   6.070   7.155 -0.9151 -0.8064  0.7523
  165SAPE  C21018577   2.558   6.009   6.957  0.7290  0.7170  0.6399
  165SAPE  H10R18578   2.520   6.024   6.854  1.9350  0.6231  0.1589
  165SAPE  H10S18579   2.568   5.899   6.965  0.2081  0.3869 -2.0988
  165SAPE  C21118580   2.687   6.084   6.969  0.2207 -0.0870  0.8763
  165SAPE  H11R18581   2.698   6.171   6.902  0.0290  0.0491  1.0197
  165SAPE  C21218582   2.786   6.050   7.049  0.3092  0.4109 -0.0225
  165SAPE  H12R18583   2.878   6.108   7.035  1.0820 -0.2283  1.9854
  165SAPE  C21318584   2.798   5.934   7.149 -0.4695 -0.2424 -0.5844
  165SAPE  H13R18585   2.797   5.835   7.098 -3.5243 -1.1405  1.0137
  165SAPE  H13S18586   2.712   5.936   7.219  0.0914 -0.5382  0.1193
  165SAPE  C21418587   2.928   5.938   7.224  0.8535  0.2653  0.2316
  165SAPE  H14R18588   3.010   5.879   7.181  0.9617 -0.4670  1.3838
  165SAPE  C21518589   2.947   5.990   7.350 -0.0228  0.7176 -0.0046
  165SAPE  H15R18590   3.044   5.971   7.399  0.9667  0.8317 -1.8312
  165SAPE  C21618591   2.841   6.055   7.435  0.4283  0.3343  0.1061
  165SAPE  H16R18592   2.747   6.082   7.383  0.3535 -2.1390 -1.1718
  165SAPE  H16S18593   2.875   6.152   7.476 -0.9954  0.8678  0.0907
  165SAPE  C21718594   2.803   5.967   7.553  0.9143  0.2910  0.3805
  165SAPE  H17R18595   2.772   5.864   7.525 -1.4180  0.5393  1.8098
  165SAPE  H17S18596   2.717   6.021   7.599  1.7849  2.1956 -0.1513
  165SAPE  C21818597   2.912   5.964   7.660  0.2742 -0.2683 -0.0704
  165SAPE  H18R18598   2.933   6.066   7.700 -0.3489  0.4863 -1.5947
  165SAPE  H18S18599   3.003   5.926   7.609 -0.2500 -2.3056  0.4175
  165SAPE  C21918600   2.876   5.874   7.787  0.4360 -0.2891 -0.5998
  165SAPE  H19R18601   2.974   5.883   7.838  0.5255  0.3080 -0.8686
  165SAPE  H19S18602   2.859   5.769   7.753  1.8099 -0.1021 -1.9822
  165SAPE  C22018603   2.766   5.936   7.872 -0.2525  0.0810  0.1631
  165SAPE  H20R18604   2.800   6.042   7.883  0.8756 -0.3689  1.2316
  165SAPE  H20S18605   2.752   5.894   7.973 -0.2388  3.2728  1.6260
  165SAPE  H20T18606   2.667   5.947   7.822 -0.7628  2.0113  1.4694
  165SAPE   C3318607   2.803   5.393   7.036  0.2750 -0.2216  0.2034
  165SAPE   H3X18608   2.907   5.380   7.073 -0.2687 -1.6413  1.3251
  165SAPE   H3Y18609   2.756   5.293   7.024  2.2566 -0.9806 -1.8407
  165SAPE   C3418610   2.729   5.455   7.155 -0.6397 -0.0545  0.3736
  165SAPE   H4X18611   2.621   5.429   7.145  0.1073 -2.6339 -2.4893
  165SAPE   H4Y18612   2.743   5.565   7.150  1.4674 -0.3211 -0.7169
  165SAPE   C3518613   2.802   5.404   7.284 -0.3364 -0.4167 -0.4778
  165SAPE   H5X18614   2.890   5.468   7.308 -1.3954 -0.0887  2.9552
  165SAPE   H5Y18615   2.844   5.302   7.266  2.4632  0.6606 -0.6483
  165SAPE   C3618616   2.721   5.419   7.415 -0.1136 -0.4197  0.5444
  165SAPE   H6X18617   2.620   5.373   7.405  0.5440 -1.6022 -1.2381
  165SAPE   H6Y18618   2.710   5.528   7.435 -2.8236 -0.4236 -0.4042
  165SAPE   C3718619   2.793   5.352   7.538  0.4238 -0.0319 -0.4697
  165SAPE   H7X18620   2.900   5.381   7.527  0.2540  0.5277 -0.6609
  165SAPE   H7Y18621   2.782   5.241   7.532  1.1742 -0.2505  1.4079
  165SAPE   C3818622   2.728   5.389   7.677 -0.4714 -0.5052  0.0768
  165SAPE   H8X18623   2.741   5.305   7.749  1.0204 -1.2934 -1.0477
  165SAPE   H8Y18624   2.617   5.392   7.676 -0.5171  2.8562 -2.2845
  165SAPE   C3918625   2.790   5.509   7.740 -0.6162 -0.6212 -0.0047
  165SAPE   H9X18626   2.753   5.605   7.698  2.9599  0.3906 -1.1956
  165SAPE   H9Y18627   2.900   5.511   7.727 -0.5162  1.5548  0.7458
  165SAPE  C31018628   2.765   5.506   7.885 -0.1848  0.0295  0.4821
  165SAPE  H10X18629   2.664   5.472   7.914  0.4430 -0.6747  1.9330
  165SAPE  H10Y18630   2.783   5.611   7.916  2.1576 -0.1373 -0.0869
  165SAPE  C31118631   2.878   5.423   7.953 -0.0189  0.2473 -0.6017
  165SAPE  H11X18632   2.975   5.476   7.940 -0.2672  0.8225 -0.1413
  165SAPE  H11Y18633   2.906   5.329   7.900 -1.3244 -1.1377  1.0283
  165SAPE  C31218634   2.854   5.406   8.103  0.0617  0.4695  0.0338
  165SAPE  H12X18635   2.759   5.348   8.107 -0.1301  0.7119 -0.7395
  165SAPE  H12Y18636   2.831   5.502   8.153 -0.9830 -0.1451  0.7745
  165SAPE  C31318637   2.972   5.343   8.181  0.1709 -0.6221  0.2205
  165SAPE  H13X18638   2.945   5.343   8.289  1.4875 -0.4861  0.5660
  165SAPE  H13Y18639   3.061   5.409   8.172  1.9274 -2.7044  1.3869
  165SAPE  C31418640   3.027   5.205   8.136  0.4972 -0.7872  0.1100
  165SAPE  H14X18641   3.075   5.212   8.036  0.6447 -0.0668  0.2260
  165SAPE  H14Y18642   2.942   5.135   8.124 -0.5413  0.6060 -1.1540
  165SAPE  C31518643   3.133   5.148   8.230 -0.1382  0.1217  0.2169
  165SAPE  H15X18644   3.220   5.218   8.230  0.7106 -0.8510  1.8454
  165SAPE  H15Y18645   3.166   5.048   8.195 -0.0055  0.5478 -0.8885
  165SAPE  C31618646   3.078   5.149   8.375 -0.1749  0.2983  0.9166
  165SAPE  H16X18647   2.979   5.099   8.369 -0.1357  0.1960  1.1109
  165SAPE  H16Y18648   3.068   5.254   8.409 -1.1552  1.3596 -2.2890
  165SAPE  C31718649   3.163   5.065   8.473 -0.1895 -0.1865  0.3051
  165SAPE  H17X18650   3.252   5.125   8.502 -0.3020 -0.0570  0.3855
  165SAPE  H17Y18651   3.195   4.974   8.418  1.8201  2.0944 -2.6126
  165SAPE  C31818652   3.076   5.020   8.593 -0.0976 -0.2261  0.2817
  165SAPE  H18X18653   3.018   5.108   8.629  0.2391 -0.7647  2.3056
  165SAPE  H18Y18654   3.137   4.982   8.678  0.5749  0.6689  0.2111
  165SAPE  H18Z18655   3.005   4.936   8.574 -0.0604 -0.4510  1.0895
  166SAPE     N18656   6.646   0.983   6.277  0.5257  0.0923  0.5350
  166SAPE   HN118657   6.581   0.918   6.228  0.5606  1.5898 -1.6425
  166SAPE   HN218658   6.600   1.071   6.308 -0.8600 -0.2656 -0.4257
  166SAPE   HN318659   6.725   1.016   6.219  1.5722 -0.0123  1.8595
  166SAPE   C1218660   6.701   0.895   6.382 -1.0112 -0.7571  0.3535
  166SAPE  H12A18661   6.753   0.964   6.452 -0.8935  0.7116 -1.1185
  166SAPE  H12B18662   6.764   0.828   6.319 -0.5913 -0.3541  0.3341
  166SAPE   C1118663   6.600   0.809   6.458 -0.0224 -0.0824  0.3287
  166SAPE  H11A18664   6.535   0.869   6.524 -1.1869  0.5713 -1.3501
  166SAPE  H11B18665   6.654   0.740   6.527  1.5047 -1.2859 -1.9391
  166SAPE     P18666   6.558   0.583   6.324 -0.0389 -0.2729 -0.3001
  166SAPE   O1318667   6.472   0.543   6.215 -0.1222  0.2827  0.4820
  166SAPE   O1418668   6.709   0.567   6.299 -0.3881 -0.3799 -0.1780
  166SAPE   O1218669   6.525   0.733   6.361  0.3446 -0.2400 -0.3454
  166SAPE   O1118670   6.520   0.493   6.449 -0.3535 -0.5924  0.6191
  166SAPE    C118671   6.396   0.521   6.513 -0.2002 -0.1757  0.1500
  166SAPE    HA18672   6.397   0.621   6.562 -1.8959  0.3516 -0.7711
  166SAPE    HB18673   6.307   0.532   6.447 -0.7208  1.3520  1.0469
  166SAPE    C218674   6.368   0.407   6.611  0.9634 -0.3021 -0.2181
  166SAPE    HS18675   6.287   0.436   6.681 -0.1131 -0.6526 -1.2720
  166SAPE   O2118676   6.472   0.380   6.694  0.0773 -0.6477 -0.1105
  166SAPE   C2118677   6.520   0.481   6.772 -0.4242  0.0278 -0.3517
  166SAPE   O2218678   6.466   0.590   6.800  0.0383  0.5031  0.3704
  166SAPE   C2218679   6.655   0.435   6.842 -0.5224  0.1833 -0.5277
  166SAPE   H2R18680   6.631   0.331   6.872  0.6892 -0.3447 -1.3457
  166SAPE   H2S18681   6.736   0.433   6.766 -0.3324  2.2965 -0.4327
  166SAPE    C318682   6.317   0.280   6.534  0.2741  0.8440  0.1108
  166SAPE    HX18683   6.389   0.214   6.481 -1.0241 -0.9831  0.5283
  166SAPE    HY18684   6.255   0.331   6.457 -2.7791  3.0820  3.6857
  166SAPE   O3118685   6.229   0.205   6.626  0.0256  0.2770 -0.3969
  166SAPE   C3118686   6.228   0.070   6.616  0.2946 -0.0977  0.5567
  166SAPE   O3218687   6.305  -0.002   6.554  0.5715 -0.0988 -0.2408
  166SAPE   C3218688   6.097   0.022   6.686 -0.1106 -0.2672 -0.2319
  166SAPE   H2X18689   6.042  -0.033   6.607 -0.6979 -0.9568  0.6331
  166SAPE   H2Y18690   6.041   0.115   6.711 -0.3705 -0.3869 -0.3700
  166SAPE   C2318691   6.709   0.519   6.960  0.4631  0.2218 -0.0432
  166SAPE   H3R18692   6.646   0.608   6.983  0.3154 -0.4151  2.2242
  166SAPE   H3S18693   6.814   0.551   6.943 -0.1518  0.9531 -3.0307
  166SAPE   C2418694   6.708   0.444   7.090  0.3347 -0.0085  0.3521
  166SAPE   H4R18695   6.787   0.366   7.084  0.2610 -0.3105  2.4043
  166SAPE   H4S18696   6.618   0.381   7.102  1.5088 -1.9184 -0.4932
  166SAPE   C2518697   6.747   0.536   7.201 -0.5193 -0.6477 -0.4632
  166SAPE   H5R18698   6.763   0.639   7.168  0.9472 -0.5878  0.3235
  166SAPE   C2618699   6.737   0.513   7.333 -0.2603  0.3163 -0.6148
  166SAPE   H6R18700   6.768   0.600   7.393  2.2651  0.0160 -1.3458
  166SAPE   C2718701   6.688   0.389   7.403 -0.2593  0.2076 -0.2774
  166SAPE   H7R18702   6.688   0.304   7.331  0.4821  0.2923 -0.3942
  166SAPE   H7S18703   6.579   0.397   7.417  0.1765  0.8527  3.8913
  166SAPE   C2818704   6.740   0.343   7.534  0.4510  0.2262  0.6083
  166SAPE   H8R18705   6.808   0.257   7.527 -0.2277 -0.3784  1.4420
  166SAPE   C2918706   6.701   0.381   7.658 -0.1995  0.6297  0.3459
  166SAPE   H9R18707   6.764   0.347   7.742  1.1196  0.0332 -0.8476
  166SAPE  C21018708   6.602   0.481   7.702  0.2657 -0.2910  0.2526
  166SAPE  H10R18709   6.537   0.517   7.620  1.9949 -1.8243 -1.9136
  166SAPE  H10S18710   6.649   0.576   7.735 -2.3675  0.5429  1.9474
  166SAPE  C21118711   6.497   0.428   7.807  0.5919  0.6608  0.2469
  166SAPE  H11R18712   6.414   0.367   7.768 -2.4434  4.1748  0.5668
  166SAPE  C21218713   6.494   0.459   7.938 -0.0969  0.6644 -0.0143
  166SAPE  H12R18714   6.411   0.418   7.997  0.4417  0.9464  0.9589
  166SAPE  C21318715   6.600   0.544   8.010 -0.3565 -0.2567  0.0198
  166SAPE  H13R18716   6.681   0.584   7.945  0.3164 -0.7083  0.5618
  166SAPE  H13S18717   6.659   0.480   8.079 -0.5397  0.9242  1.3239
  166SAPE  C21418718   6.546   0.658   8.089  0.1034 -0.5367 -0.5655
  166SAPE  H14R18719   6.467   0.718   8.043 -1.1322 -0.8941  0.9831
  166SAPE  C21518720   6.564   0.680   8.219 -0.3122 -0.1338 -0.2377
  166SAPE  H15R18721   6.521   0.770   8.265  2.1411 -0.5837  3.3849
  166SAPE  C21618722   6.657   0.603   8.311 -0.4854  0.1320 -0.3105
  166SAPE  H16R18723   6.752   0.579   8.259  0.1214  2.7531 -0.5351
  166SAPE  H16S18724   6.608   0.506   8.335  1.2506 -0.4311  1.2477
  166SAPE  C21718725   6.688   0.657   8.455 -0.2889 -0.3027 -0.2469
  166SAPE  H17R18726   6.738   0.586   8.525  0.5232  2.5755  2.3011
  166SAPE  H17S18727   6.591   0.685   8.501 -0.1935  0.2733 -0.3970
  166SAPE  C21818728   6.788   0.779   8.462  0.3630  1.0835 -0.5382
  166SAPE  H18R18729   6.776   0.842   8.552  0.7224  0.2307  0.1139
  166SAPE  H18S18730   6.762   0.850   8.380  0.0131 -0.4343 -1.8023
  166SAPE  C21918731   6.934   0.743   8.444  0.8582  0.3969  0.0283
  166SAPE  H19R18732   6.939   0.684   8.350  0.2006 -0.4665  0.5116
  166SAPE  H19S18733   6.970   0.673   8.523 -0.0501  0.8066  0.8215
  166SAPE  C22018734   7.040   0.858   8.441  0.0524 -0.1252 -0.0396
  166SAPE  H20R18735   7.030   0.916   8.535 -0.3803 -1.4895  0.8003
  166SAPE  H20S18736   7.023   0.920   8.351  2.3372 -0.7680 -0.9917
  166SAPE  H20T18737   7.142   0.816   8.427  0.4476  1.4870 -2.6415
  166SAPE   C3318738   6.126  -0.050   6.821  0.7617 -0.5557 -0.3003
  166SAPE   H3X18739   6.189  -0.140   6.804  0.6024 -1.6060  3.7614
  166SAPE   H3Y18740   6.029  -0.090   6.854 -0.1246 -0.8760 -3.0243
  166SAPE   C3418741   6.186   0.037   6.934 -0.0138 -0.5146  0.5951
  166SAPE   H4X18742   6.121   0.127   6.928  0.2126 -0.3523  0.6002
  166SAPE   H4Y18743   6.291   0.055   6.905 -0.4603  0.3211 -0.5652
  166SAPE   C3518744   6.180  -0.012   7.075 -0.2138  0.0342  0.2091
  166SAPE   H5X18745   6.226  -0.112   7.086 -0.4174 -0.0845 -0.0257
  166SAPE   H5Y18746   6.075  -0.022   7.112 -0.0907 -2.9240 -0.0412
  166SAPE   C3618747   6.245   0.085   7.171 -0.0681 -0.0066 -0.4377
  166SAPE   H6X18748   6.231   0.191   7.140 -3.2058 -0.4598 -0.8899
  166SAPE   H6Y18749   6.353   0.061   7.154 -0.2156 -1.3940  0.3815
  166SAPE   C3718750   6.215   0.044   7.311 -0.4379 -0.2991  0.4846
  166SAPE   H7X18751   6.203  -0.065   7.329  0.3575 -0.6962 -1.1991
  166SAPE   H7Y18752   6.112   0.080   7.328  0.0031  1.4389 -0.2879
  166SAPE   C3818753   6.312   0.106   7.417  0.9543 -0.3996  0.0438
  166SAPE   H8X18754   6.319   0.216   7.405 -1.8690  0.0990  1.9429
  166SAPE   H8Y18755   6.409   0.055   7.401  1.4992 -0.0438  1.9540
  166SAPE   C3918756   6.272   0.070   7.562  0.2881  0.1457  0.4877
  166SAPE   H9X18757   6.218  -0.027   7.564 -0.6987  0.5538 -1.9340
  166SAPE   H9Y18758   6.204   0.147   7.603  1.0676  1.1530 -0.0401
  166SAPE  C31018759   6.400   0.078   7.653  0.2672  1.1354  0.5490
  166SAPE  H10X18760   6.459   0.169   7.629  3.0862 -0.3543  1.4185
  166SAPE  H10Y18761   6.463  -0.005   7.616 -0.3541  0.7122  0.4157
  166SAPE  C31118762   6.360   0.068   7.803 -0.1104  0.1054 -0.3915
  166SAPE  H11X18763   6.302  -0.027   7.808 -0.6876  0.5061  0.7077
  166SAPE  H11Y18764   6.290   0.149   7.831 -0.5161 -0.2333 -0.4111
  166SAPE  C31218765   6.479   0.067   7.895 -0.4538 -0.1132 -0.4864
  166SAPE  H12X18766   6.546   0.148   7.857 -0.6291  0.3498  0.1811
  166SAPE  H12Y18767   6.544  -0.022   7.886 -0.7338 -0.3072 -0.5808
  166SAPE  C31318768   6.437   0.099   8.041  0.1674 -0.0605  0.5841
  166SAPE  H13X18769   6.373   0.014   8.075 -1.5737  0.8315 -0.3126
  166SAPE  H13Y18770   6.369   0.187   8.047 -1.0930 -0.9558  0.0794
  166SAPE  C31418771   6.553   0.113   8.140 -0.5681 -0.1964 -0.5842
  166SAPE  H14X18772   6.638   0.172   8.101 -1.0156  0.5550 -0.4555
  166SAPE  H14Y18773   6.586   0.009   8.160 -0.4215 -0.1942 -0.8134
  166SAPE  C31518774   6.518   0.190   8.270  0.2258  0.1305 -0.2946
  166SAPE  H15X18775   6.427   0.149   8.319  1.3356 -0.2844  1.5020
  166SAPE  H15Y18776   6.498   0.293   8.235  0.6600 -0.5373 -2.7611
  166SAPE  C31618777   6.633   0.197   8.381 -0.0739 -0.2494 -0.3318
  166SAPE  H16X18778   6.607   0.267   8.463 -0.1830 -0.9464  0.2352
  166SAPE  H16Y18779   6.720   0.228   8.320 -1.2129  0.1454 -1.8064
  166SAPE  C31718780   6.654   0.068   8.457 -0.5559 -0.0253 -0.6951
  166SAPE  H17X18781   6.702  -0.003   8.385  0.8097 -1.7345  1.7659
  166SAPE  H17Y18782   6.556   0.029   8.490 -0.8122  1.6958  0.6633
  166SAPE  C31818783   6.750   0.083   8.580  0.2269 -0.4925  0.0699
  166SAPE  H18X18784   6.844   0.124   8.539 -0.3092  2.4172  1.4752
  166SAPE  H18Y18785   6.765  -0.016   8.627  1.8504 -2.1462 -3.5470
  166SAPE  H18Z18786   6.700   0.150   8.654 -1.1198 -0.4768 -0.8073
  167SAPE     N18787   0.914   6.232   5.897 -0.4866  0.4366  0.0851
  167SAPE   HN118788   0.969   6.159   5.848 -2.2389 -0.6377 -0.3655
  167SAPE   HN218789   0.868   6.293   5.826  1.8619  3.2802  0.7835
  167SAPE   HN318790   0.977   6.298   5.947 -0.2017  0.3883 -0.2011
  167SAPE   C1218791   0.802   6.177   5.980  0.5444  0.4480  0.3393
  167SAPE  H12A18792   0.840   6.088   6.035  1.8630  2.0176  2.1196
  167SAPE  H12B18793   0.729   6.137   5.906  1.4809 -1.6082  0.4438
  167SAPE   C1118794   0.755   6.282   6.081 -0.3728 -0.4393  0.1626
  167SAPE  H11A18795   0.719   6.218   6.164  1.6543 -1.2925  0.4506
  167SAPE  H11B18796   0.667   6.341   6.046 -2.1073 -2.8497  0.2305
  167SAPE     P18797   0.869   6.439   6.246  0.2779 -0.3871 -0.4012
  167SAPE   O1318798   1.000   6.420   6.310 -0.0324 -0.0919  0.1484
  167SAPE   O1418799   0.836   6.582   6.218  0.2407 -0.3490  0.1613
  167SAPE   O1218800   0.870   6.360   6.112 -0.6868 -0.2201 -0.0638
  167SAPE   O1118801   0.757   6.360   6.324 -0.4796 -0.6079 -0.3300
  167SAPE    C118802   0.790   6.245   6.411 -0.0147  0.4731  0.1230
  167SAPE    HA18803   0.857   6.174   6.358 -2.9050 -2.1548 -0.3199
  167SAPE    HB18804   0.832   6.288   6.504  0.0283 -1.4367  1.0283
  167SAPE    C218805   0.671   6.146   6.450  0.5433  0.2002 -0.2742
  167SAPE    HS18806   0.639   6.102   6.354 -2.9258 -0.0321  0.8291
  167SAPE   O2118807   0.560   6.222   6.498 -0.6895  0.1037 -0.2486
  167SAPE   C2118808   0.440   6.172   6.483  0.0221 -0.2749 -0.5061
  167SAPE   O2218809   0.413   6.065   6.436  0.0189 -0.1241  0.1141
  167SAPE   C2218810   0.340   6.285   6.516 -0.3366 -0.1192 -0.3920
  167SAPE   H2R18811   0.380   6.356   6.592 -0.1280 -0.6427  0.0032
  167SAPE   H2S18812   0.326   6.346   6.425  1.1810  0.9680  0.0558
  167SAPE    C318813   0.714   6.030   6.543 -0.1131 -0.2153  0.2270
  167SAPE    HX18814   0.809   5.987   6.505 -0.1957  0.0414 -0.2808
  167SAPE    HY18815   0.637   5.950   6.548 -2.0553  1.3165 -2.5770
  167SAPE   O3118816   0.751   6.078   6.679  0.1585 -0.0315 -0.1686
  167SAPE   C3118817   0.669   6.049   6.783  0.3385  0.3358  0.0317
  167SAPE   O3218818   0.563   5.997   6.776 -0.6351  0.0143 -0.1322
  167SAPE   C3218819   0.734   6.066   6.915  0.6097  0.5729 -0.4424
  167SAPE   H2X18820   0.760   6.174   6.910 -0.8798  0.9405 -0.5600
  167SAPE   H2Y18821   0.827   6.005   6.909  0.5960  0.5993 -1.0065
  167SAPE   C2318822   0.201   6.252   6.568  0.5525  0.1552  0.1074
  167SAPE   H3R18823   0.214   6.191   6.660  0.5605  0.4433  0.3008
  167SAPE   H3S18824   0.170   6.190   6.481  0.8109 -0.3390  0.3681
  167SAPE   C2418825   0.109   6.382   6.578 -0.5415 -0.0504  0.4949
  167SAPE   H4R18826   0.012   6.358   6.628 -0.2786  0.6158  1.3568
  167SAPE   H4S18827   0.096   6.408   6.471  0.3526  0.1337  0.4238
  167SAPE   C2518828   0.173   6.498   6.655 -0.2028 -0.0409  0.2572
  167SAPE   H5R18829   0.197   6.593   6.605 -0.8262 -0.3184 -0.6064
  167SAPE   C2618830   0.207   6.495   6.786  0.4739 -0.0012  0.6463
  167SAPE   H6R18831   0.220   6.592   6.835 -1.5444  1.4463 -1.4758
  167SAPE   C2718832   0.201   6.380   6.888 -0.6942 -0.2269 -0.5050
  167SAPE   H7R18833   0.255   6.421   6.976 -0.3825 -1.9914  0.1618
  167SAPE   H7S18834   0.271   6.301   6.853 -2.3707 -1.9756 -0.0420
  167SAPE   C2818835   0.060   6.328   6.913  0.2925 -0.5296 -0.5860
  167SAPE   H8R18836  -0.017   6.345   6.837 -1.1133  0.1716  0.9372
  167SAPE   C2918837   0.026   6.259   7.021  0.1159  0.7964 -0.0839
  167SAPE   H9R18838  -0.074   6.213   7.024 -0.2615  1.6537  1.2063
  167SAPE  C21018839   0.119   6.216   7.135 -0.0233 -0.0904  0.2856
  167SAPE  H10R18840   0.223   6.185   7.111  0.1266 -0.0938  0.9406
  167SAPE  H10S18841   0.074   6.125   7.181 -2.9739  1.7609  1.3407
  167SAPE  C21118842   0.129   6.321   7.236  0.4406 -0.2700 -0.0569
  167SAPE  H11R18843   0.108   6.423   7.200  0.7619 -0.7401 -1.6906
  167SAPE  C21218844   0.163   6.310   7.365  0.7848  0.5471 -0.6425
  167SAPE  H12R18845   0.169   6.389   7.441 -0.8081 -1.3974  1.6587
  167SAPE  C21318846   0.183   6.174   7.437  0.3873  0.8493 -0.0076
  167SAPE  H13R18847   0.188   6.091   7.363 -0.6987  0.1873  0.6325
  167SAPE  H13S18848   0.093   6.155   7.499 -0.8827  1.4700 -1.5774
  167SAPE  C21418849   0.306   6.186   7.525  0.0482  0.1411 -0.1972
  167SAPE  H14R18850   0.396   6.222   7.473  0.0645 -1.5911 -1.4197
  167SAPE  C21518851   0.310   6.176   7.656  0.4997 -0.7729  0.1117
  167SAPE  H15R18852   0.409   6.161   7.704 -0.0384 -1.4497  1.0517
  167SAPE  C21618853   0.189   6.159   7.742 -0.0503  0.1328 -0.4289
  167SAPE  H16R18854   0.159   6.055   7.770 -0.5222  0.3095 -0.2612
  167SAPE  H16S18855   0.106   6.212   7.692  1.3686  1.8976 -1.0091
  167SAPE  C21718856   0.207   6.238   7.878  0.7488  0.0669  0.2565
  167SAPE  H17R18857   0.106   6.254   7.921 -0.6506 -1.7943 -2.0701
  167SAPE  H17S18858   0.228   6.343   7.846 -0.7437  0.1995 -0.3538
  167SAPE  C21818859   0.321   6.190   7.973  0.1196  0.1481 -1.0044
  167SAPE  H18R18860   0.410   6.186   7.907  0.9272  2.8416 -0.2096
  167SAPE  H18S18861   0.296   6.088   8.009  1.9923 -0.4827 -1.3950
  167SAPE  C21918862   0.354   6.293   8.078  0.1682 -0.6880 -0.0367
  167SAPE  H19R18863   0.277   6.298   8.158  1.1538  1.2895  0.8481
  167SAPE  H19S18864   0.365   6.389   8.025  1.8570 -1.2166 -0.7265
  167SAPE  C22018865   0.491   6.256   8.146 -0.1210 -0.5252  0.0531
  167SAPE  H20R18866   0.530   6.332   8.217  3.0989 -1.7802 -0.2122
  167SAPE  H20S18867   0.568   6.255   8.065 -0.5038 -1.2880 -0.3183
  167SAPE  H20T18868   0.485   6.157   8.196 -0.8954 -1.0542 -1.0258
  167SAPE   C3318869   0.654   6.041   7.052  0.3028 -0.0397  0.1286
  167SAPE   H3X18870   0.658   5.931   7.061 -3.4580 -0.3375 -0.4236
  167SAPE   H3Y18871   0.547   6.070   7.043  0.3033  0.0443  0.3652
  167SAPE   C3418872   0.725   6.107   7.172  0.5724 -0.3251 -0.6520
  167SAPE   H4X18873   0.740   6.213   7.143 -1.7905  0.1979 -0.1110
  167SAPE   H4Y18874   0.822   6.051   7.172  0.8788  0.2026 -1.1458
  167SAPE   C3518875   0.653   6.084   7.312 -0.6819 -0.8092  0.0853
  167SAPE   H5X18876   0.554   6.133   7.310 -1.3745 -2.1387  0.5737
  167SAPE   H5Y18877   0.713   6.133   7.392 -0.5496  0.8204 -0.9678
  167SAPE   C3618878   0.645   5.942   7.363  0.3712  0.3525 -0.0811
  167SAPE   H6X18879   0.747   5.907   7.387  0.7608  1.4459 -0.0757
  167SAPE   H6Y18880   0.596   5.884   7.283  1.3748  0.7810 -1.0304
  167SAPE   C3718881   0.575   5.918   7.502  0.2297  0.8323 -0.1402
  167SAPE   H7X18882   0.543   5.811   7.502  2.3264  0.1691 -0.1136
  167SAPE   H7Y18883   0.482   5.979   7.507  0.7930  1.6466  0.6633
  167SAPE   C3818884   0.647   5.954   7.632  0.0943 -0.6890 -0.6200
  167SAPE   H8X18885   0.642   6.065   7.646 -0.6962 -0.7236 -0.5692
  167SAPE   H8Y18886   0.752   5.919   7.637  0.3549  0.0777 -0.5667
  167SAPE   C3918887   0.579   5.906   7.760  0.3095  0.7391 -0.4211
  167SAPE   H9X18888   0.567   5.797   7.743 -1.0204  1.1228 -2.3239
  167SAPE   H9Y18889   0.472   5.931   7.777  0.1064 -1.5289  2.2279
  167SAPE  C31018890   0.644   5.955   7.894 -0.0181  0.6671 -0.8801
  167SAPE  H10X18891   0.569   5.920   7.967 -1.1739  0.3945 -2.1584
  167SAPE  H10Y18892   0.649   6.066   7.892 -0.8978  0.7696  1.0288
  167SAPE  C31118893   0.777   5.891   7.925 -0.0285  0.2018 -0.1314
  167SAPE  H11X18894   0.837   5.883   7.832  0.4037 -0.0177  0.1586
  167SAPE  H11Y18895   0.773   5.785   7.959  4.7522 -0.5212 -1.0972
  167SAPE  C31218896   0.859   5.971   8.033  0.4937 -0.3162  0.4434
  167SAPE  H12X18897   0.789   5.972   8.119 -1.8829 -0.5901 -1.3792
  167SAPE  H12Y18898   0.861   6.074   7.993  2.1204  0.4573  2.3516
  167SAPE  C31318899   0.992   5.912   8.062 -0.2384 -1.0007  0.1123
  167SAPE  H13X18900   1.046   5.869   7.975 -0.8272 -2.1577  0.3114
  167SAPE  H13Y18901   0.985   5.819   8.122 -0.7807 -0.4423  0.9437
  167SAPE  C31418902   1.086   6.007   8.133 -0.4219  0.3306  0.1993
  167SAPE  H14X18903   1.029   6.059   8.213 -1.1976 -1.1610  0.6449
  167SAPE  H14Y18904   1.136   6.082   8.067  0.8982  0.3108  1.1538
  167SAPE  C31518905   1.205   5.939   8.206  0.6730 -0.3510 -0.2152
  167SAPE  H15X18906   1.271   5.886   8.133  0.3983  0.2932 -0.9459
  167SAPE  H15Y18907   1.157   5.871   8.280 -1.3873  2.4922  1.2565
  167SAPE  C31618908   1.299   6.048   8.271 -0.0845  0.1405  0.6271
  167SAPE  H16X18909   1.258   6.114   8.351  2.4216  0.6046  1.6163
  167SAPE  H16Y18910   1.316   6.116   8.186 -1.6695 -1.3431 -0.9550
  167SAPE  C31718911   1.434   5.988   8.318 -0.0235  0.2135 -0.5772
  167SAPE  H17X18912   1.505   6.072   8.332 -1.1065  0.8539  1.5641
  167SAPE  H17Y18913   1.474   5.919   8.241 -0.7177 -0.8722  0.0074
  167SAPE  C31818914   1.422   5.910   8.445  0.5704 -0.2322 -0.2165
  167SAPE  H18X18915   1.375   5.965   8.529  1.2412 -0.6923  0.4699
  167SAPE  H18Y18916   1.522   5.884   8.486  0.8529 -0.0718 -0.7876
  167SAPE  H18Z18917   1.354   5.824   8.427  1.0160 -0.0791 -3.1224
  168SAPE     N18918   3.785   4.739   6.237  0.0344 -0.0274 -0.3597
  168SAPE   HN118919   3.797   4.641   6.203 -2.3550 -1.7345  3.0803
  168SAPE   HN218920   3.702   4.730   6.299  0.8536  0.4146  0.8256
  168SAPE   HN318921   3.767   4.812   6.165  1.5354  2.5430  1.6998
  168SAPE   C1218922   3.914   4.758   6.306 -0.0092 -0.2638 -0.1986
  168SAPE  H12A18923   3.993   4.782   6.231  0.3471  0.3462  0.3690
  168SAPE  H12B18924   3.945   4.664   6.357  0.4219  0.1530  0.3098
  168SAPE   C1118925   3.899   4.865   6.420  0.2813 -0.4769  0.3251
  168SAPE  H11A18926   3.998   4.883   6.467 -0.4320  1.5354  1.2007
  168SAPE  H11B18927   3.826   4.831   6.496 -0.0475  1.0208  0.7170
  168SAPE     P18928   3.817   5.111   6.468  0.0724 -0.2130 -0.2724
  168SAPE   O1318929   3.921   5.119   6.572  0.0185  0.0007  0.2447
  168SAPE   O1418930   3.805   5.233   6.385  0.0454  0.5598 -0.0032
  168SAPE   O1218931   3.856   4.996   6.371 -0.1207 -0.3239 -0.0487
  168SAPE   O1118932   3.675   5.079   6.523 -0.3431  0.2141 -0.1052
  168SAPE    C118933   3.641   5.024   6.650 -0.1943  0.6819  0.2094
  168SAPE    HA18934   3.532   5.004   6.648 -0.4371  1.8818  0.9938
  168SAPE    HB18935   3.693   4.928   6.673 -0.2566  1.1039  2.2651
  168SAPE    C218936   3.655   5.130   6.765 -0.4419  0.0737  0.1086
  168SAPE    HS18937   3.763   5.146   6.786 -0.2911 -2.9357  2.1089
  168SAPE   O2118938   3.583   5.088   6.886 -0.0249 -0.2186 -0.5532
  168SAPE   C2118939   3.643   5.015   6.967 -0.5410  0.3070  0.4193
  168SAPE   O2218940   3.761   4.974   6.958 -0.1986 -0.0083  0.2781
  168SAPE   C2218941   3.557   4.971   7.080  0.8635 -0.2278 -0.3580
  168SAPE   H2R18942   3.522   5.058   7.139 -0.1642  0.4793 -1.9603
  168SAPE   H2S18943   3.477   4.912   7.031 -0.5093  1.2037  0.0737
  168SAPE    C318944   3.601   5.274   6.724  0.2885 -0.6225 -0.1249
  168SAPE    HX18945   3.498   5.260   6.686 -1.1074  0.4144  2.9424
  168SAPE    HY18946   3.664   5.309   6.640 -0.0926  0.0997 -0.1135
  168SAPE   O3118947   3.593   5.369   6.839 -0.1173  0.2774 -0.3728
  168SAPE   C3118948   3.714   5.429   6.868  0.4870  0.7629 -0.4947
  168SAPE   O3218949   3.811   5.432   6.794  0.0684 -0.2764 -0.3789
  168SAPE   C3218950   3.702   5.478   7.016 -0.6600 -0.2537  0.3085
  168SAPE   H2X18951   3.638   5.403   7.068 -2.5277 -0.0145 -1.5174
  168SAPE   H2Y18952   3.664   5.582   7.021 -1.2281 -0.4008 -0.7321
  168SAPE   C2318953   3.625   4.888   7.192  0.3707  0.3696  0.4379
  168SAPE   H3R18954   3.708   4.944   7.240  1.3252 -2.2852  2.1338
  168SAPE   H3S18955   3.672   4.795   7.154  0.5106  0.0377  1.3792
  168SAPE   C2418956   3.534   4.853   7.311  0.1097 -0.3262 -0.2311
  168SAPE   H4R18957   3.457   4.793   7.257 -0.1276 -0.7641  0.5593
  168SAPE   H4S18958   3.482   4.935   7.364  1.1170 -0.8616  1.7117
  168SAPE   C2518959   3.612   4.762   7.407 -0.1569 -0.3036  0.2392
  168SAPE   H5R18960   3.682   4.706   7.344  0.8725 -0.4334  1.4550
  168SAPE   C2618961   3.610   4.750   7.542 -0.1402 -0.3824 -0.0994
  168SAPE   H6R18962   3.693   4.690   7.583  1.2135  1.7600  0.4442
  168SAPE   C2718963   3.523   4.825   7.638  0.2170  0.9745 -0.3555
  168SAPE   H7R18964   3.427   4.770   7.645  0.3973  0.7814  0.8015
  168SAPE   H7S18965   3.496   4.929   7.609  0.5201  1.7412  1.8728
  168SAPE   C2818966   3.573   4.830   7.787 -0.7292  0.4052  0.8342
  168SAPE   H8R18967   3.661   4.895   7.801  0.0619 -0.9179  2.2749
  168SAPE   C2918968   3.514   4.787   7.900  0.3121 -0.2535  0.0847
  168SAPE   H9R18969   3.562   4.800   7.998 -0.4515  2.8878  0.1470
  168SAPE  C21018970   3.384   4.710   7.912 -0.6217  0.0004 -0.4695
  168SAPE  H10R18971   3.297   4.752   7.858 -0.9813 -2.4202 -1.9485
  168SAPE  H10S18972   3.363   4.712   8.021  0.5222  4.1546 -0.1442
  168SAPE  C21118973   3.419   4.559   7.879  0.6949 -0.1300  0.0326
  168SAPE  H11R18974   3.404   4.540   7.772 -4.2930  0.5361  0.3815
  168SAPE  C21218975   3.469   4.462   7.962 -0.5342  0.0472 -0.0917
  168SAPE  H12R18976   3.500   4.364   7.923 -0.0402  0.3220 -0.3988
  168SAPE  C21318977   3.509   4.489   8.107  0.1354  0.1753 -0.1256
  168SAPE  H13R18978   3.452   4.414   8.165 -0.2066  1.5070  1.3258
  168SAPE  H13S18979   3.480   4.586   8.153 -2.2882 -0.9589  0.8986
  168SAPE  C21418980   3.657   4.479   8.128 -1.1983  0.3088 -0.1611
  168SAPE  H14R18981   3.726   4.501   8.046  0.1031  3.9842  1.7045
  168SAPE  C21518982   3.713   4.481   8.250 -0.5682  0.1772  1.0485
  168SAPE  H15R18983   3.822   4.490   8.241 -0.6883  0.8605  0.1162
  168SAPE  C21618984   3.646   4.498   8.382 -0.4211  0.1156  0.1219
  168SAPE  H16R18985   3.693   4.433   8.459 -0.2887 -1.4668 -1.2323
  168SAPE  H16S18986   3.537   4.481   8.381 -0.6506  1.4707 -0.0110
  168SAPE  C21718987   3.683   4.642   8.435  0.5701  0.2901  0.0070
  168SAPE  H17R18988   3.659   4.716   8.356  0.2354  0.1806  0.0066
  168SAPE  H17S18989   3.791   4.648   8.461  0.8379 -0.8311 -0.7754
  168SAPE  C21818990   3.603   4.667   8.562  0.7384 -0.5186 -0.2408
  168SAPE  H18R18991   3.637   4.763   8.606  1.7289 -0.9784  0.0412
  168SAPE  H18S18992   3.606   4.583   8.635  0.8654 -0.1192  0.2240
  168SAPE  C21918993   3.451   4.696   8.533  0.9190  0.7038  0.2576
  168SAPE  H19R18994   3.412   4.604   8.485  0.2860  1.7052 -1.2157
  168SAPE  H19S18995   3.443   4.762   8.444  0.8492 -0.0240 -0.2776
  168SAPE  C22018996   3.362   4.733   8.646 -0.7633  0.5213  0.4761
  168SAPE  H20R18997   3.260   4.742   8.603  0.9135  1.4656 -3.8145
  168SAPE  H20S18998   3.388   4.834   8.686  0.3259  0.3096  0.3312
  168SAPE  H20T18999   3.374   4.654   8.723 -0.0910  1.3072  1.2026
  168SAPE   C3319000   3.844   5.478   7.085  0.2605  0.4752 -0.6454
  168SAPE   H3X19001   3.920   5.529   7.023  1.3944 -1.8036 -1.1981
  168SAPE   H3Y19002   3.868   5.371   7.099 -2.7667  0.0255  2.4408
  168SAPE   C3419003   3.843   5.530   7.228 -0.0560 -0.5665 -0.1463
  168SAPE   H4X19004   3.834   5.640   7.227 -1.8881 -0.6713  0.0588
  168SAPE   H4Y19005   3.941   5.511   7.276 -1.2236 -0.9704  2.2936
  168SAPE   C3519006   3.730   5.480   7.320 -0.2229  0.1163 -0.3642
  168SAPE   H5X19007   3.633   5.487   7.266  0.6747 -1.6236 -2.3942
  168SAPE   H5Y19008   3.718   5.543   7.410  1.0554  0.9310 -0.7259
  168SAPE   C3619009   3.752   5.334   7.363  0.7349 -0.4976 -0.8355
  168SAPE   H6X19010   3.846   5.325   7.423 -0.3764  1.8437  1.4697
  168SAPE   H6Y19011   3.744   5.269   7.274 -1.6560 -1.7548  0.2190
  168SAPE   C3719012   3.633   5.275   7.448 -0.1329  0.8371  0.5185
  168SAPE   H7X19013   3.638   5.165   7.464  1.3601  0.8607  0.3767
  168SAPE   H7Y19014   3.539   5.292   7.392 -1.5086 -1.8358  1.7949
  168SAPE   C3819015   3.638   5.325   7.587  0.8154 -0.1289 -0.0334
  168SAPE   H8X19016   3.550   5.275   7.634  1.2849  0.1353  1.1750
  168SAPE   H8Y19017   3.637   5.436   7.597  1.2456 -0.2598  1.8268
  168SAPE   C3919018   3.755   5.272   7.674  0.4777  0.5458  0.7104
  168SAPE   H9X19019   3.832   5.348   7.649  1.1084  0.3195  1.9501
  168SAPE   H9Y19020   3.779   5.172   7.633  1.3390  1.4192 -1.0487
  168SAPE  C31019021   3.728   5.255   7.820 -0.3374  0.0557  0.7262
  168SAPE  H10X19022   3.626   5.213   7.832  0.6853 -3.2599 -0.9427
  168SAPE  H10Y19023   3.743   5.358   7.857  3.0954  0.1046 -0.4078
  168SAPE  C31119024   3.839   5.173   7.888  0.3370  0.0396 -0.0570
  168SAPE  H11X19025   3.936   5.212   7.852  0.2453  3.0092  2.4762
  168SAPE  H11Y19026   3.825   5.070   7.849 -1.4288 -0.3410  1.4195
  168SAPE  C31219027   3.831   5.169   8.041 -0.4951  0.1364 -0.2337
  168SAPE  H12X19028   3.855   5.273   8.073  2.3279 -1.5418  3.9263
  168SAPE  H12Y19029   3.914   5.103   8.074  0.1435  0.4855 -1.0852
  168SAPE  C31319030   3.699   5.116   8.091 -0.6293 -0.7112 -0.8464
  168SAPE  H13X19031   3.707   5.005   8.096  0.0007 -0.6642 -0.7507
  168SAPE  H13Y19032   3.617   5.144   8.021  0.5591 -0.3542 -2.1289
  168SAPE  C31419033   3.670   5.180   8.234 -0.1267  0.2560  0.3083
  168SAPE  H14X19034   3.585   5.251   8.235  0.7105  1.2790  1.0051
  168SAPE  H14Y19035   3.760   5.228   8.278 -0.0419  0.9927 -0.6271
  168SAPE  C31519036   3.640   5.056   8.326 -0.3280 -0.6235  0.7406
  168SAPE  H15X19037   3.721   4.981   8.335  0.2948 -0.2915 -1.5287
  168SAPE  H15Y19038   3.570   5.008   8.255  0.7092  0.9624 -1.4964
  168SAPE  C31619039   3.582   5.089   8.457 -0.0641 -0.3953 -0.3124
  168SAPE  H16X19040   3.554   4.996   8.511  0.0373 -0.3632 -0.2026
  168SAPE  H16Y19041   3.486   5.144   8.446  0.4001  0.9760  1.9007
  168SAPE  C31719042   3.658   5.182   8.553  0.2121  0.6489  0.2599
  168SAPE  H17X19043   3.615   5.165   8.654 -0.1219 -0.1121 -0.0044
  168SAPE  H17Y19044   3.651   5.286   8.513 -0.2157  0.5100 -0.0362
  168SAPE  C31819045   3.809   5.160   8.576  0.2133  0.0832 -0.0479
  168SAPE  H18X19046   3.863   5.194   8.486  1.3865  0.4939  0.7896
  168SAPE  H18Y19047   3.842   5.056   8.594  0.8638 -0.4755 -3.7116
  168SAPE  H18Z19048   3.853   5.224   8.655  0.0756 -0.1256  0.2010
  169SAPE     N19049   3.130   4.111   6.253 -0.0128  0.3526  0.4156
  169SAPE   HN119050   3.098   4.210   6.257 -0.1078  0.3651 -0.3817
  169SAPE   HN219051   3.233   4.115   6.239  0.2598 -2.3318  1.1082
  169SAPE   HN319052   3.086   4.060   6.173  0.4603 -0.2324  0.5175
  169SAPE   C1219053   3.116   4.033   6.385  0.8512 -0.1800 -0.5815
  169SAPE  H12A19054   3.143   4.115   6.456 -0.6958 -0.1481  0.0109
  169SAPE  H12B19055   3.190   3.951   6.394  1.8238  0.1133 -4.2877
  169SAPE   C1119056   2.975   3.980   6.398 -0.0708 -0.9316  0.2472
  169SAPE  H11A19057   2.897   4.055   6.371  0.4963 -0.5637 -0.3880
  169SAPE  H11B19058   2.957   3.938   6.499 -1.2145  0.4073  0.6369
  169SAPE     P19059   2.837   3.779   6.297  0.0664 -0.0874 -0.1564
  169SAPE   O1319060   2.737   3.819   6.198 -0.2298  0.0587  0.4198
  169SAPE   O1419061   2.900   3.650   6.288 -0.3129  0.2167  1.0534
  169SAPE   O1219062   2.965   3.875   6.294 -0.4464 -0.3533 -0.4821
  169SAPE   O1119063   2.771   3.806   6.440 -0.0142 -0.8438 -0.6720
  169SAPE    C119064   2.777   3.699   6.537 -0.2905  0.4181  0.3340
  169SAPE    HA19065   2.719   3.618   6.489  0.2105  1.6249 -2.5895
  169SAPE    HB19066   2.880   3.669   6.565  0.4988  1.0445 -1.6643
  169SAPE    C219067   2.712   3.741   6.667  0.0527 -0.0954 -0.8240
  169SAPE    HS19068   2.609   3.772   6.638 -0.4534  0.7432  1.6415
  169SAPE   O2119069   2.791   3.849   6.726 -0.0521  0.1877 -0.7365
  169SAPE   C2119070   2.735   3.921   6.821  0.0697  0.5294  0.4093
  169SAPE   O2219071   2.618   3.920   6.843  0.0958  0.0668  0.5761
  169SAPE   C2219072   2.837   3.985   6.910 -0.2963 -0.1327  0.1328
  169SAPE   H2R19073   2.942   3.964   6.879 -0.6338 -2.5115  0.4073
  169SAPE   H2S19074   2.826   4.094   6.891 -0.9002 -0.0044  1.1404
  169SAPE    C319075   2.690   3.619   6.763  0.1304  0.4171 -0.3851
  169SAPE    HX19076   2.785   3.569   6.791 -0.7188 -1.2315 -0.3435
  169SAPE    HY19077   2.635   3.529   6.727  2.0514 -2.0425  2.3154
  169SAPE   O3119078   2.628   3.658   6.886 -0.4337 -0.2308  0.1825
  169SAPE   C3119079   2.498   3.667   6.888 -0.4878 -0.2195 -0.0890
  169SAPE   O3219080   2.425   3.642   6.798 -0.1297  0.5002 -0.1536
  169SAPE   C3219081   2.446   3.682   7.030 -0.0828 -0.2550 -0.0038
  169SAPE   H2X19082   2.335   3.693   7.026  0.0623  1.5806 -3.3805
  169SAPE   H2Y19083   2.469   3.788   7.055  2.2634 -0.0891 -2.4100
  169SAPE   C2319084   2.802   3.966   7.060  0.3295 -0.6336 -0.0599
  169SAPE   H3R19085   2.700   3.994   7.092  0.0324 -1.5167 -0.2208
  169SAPE   H3S19086   2.877   4.033   7.108 -0.6504  0.1348  0.4169
  169SAPE   C2419087   2.825   3.833   7.119 -0.2163 -0.2218 -0.4294
  169SAPE   H4R19088   2.834   3.761   7.034  1.0507 -0.5810 -0.0225
  169SAPE   H4S19089   2.736   3.795   7.174  2.5845 -1.5607  3.6642
  169SAPE   C2519090   2.948   3.812   7.208 -0.0177 -0.2126  0.1296
  169SAPE   H5R19091   3.044   3.826   7.157  1.6521 -0.3155  3.0596
  169SAPE   C2619092   2.959   3.804   7.338 -0.0085  0.3850  0.1247
  169SAPE   H6R19093   3.057   3.789   7.386  0.7192 -0.7254 -1.6157
  169SAPE   C2719094   2.835   3.811   7.423  0.3160 -0.5079  0.4297
  169SAPE   H7R19095   2.780   3.716   7.439  0.0026 -0.4538 -0.2593
  169SAPE   H7S19096   2.761   3.874   7.368  1.1607 -1.3102 -1.7546
  169SAPE   C2819097   2.865   3.877   7.557 -0.2297 -0.2751  0.2046
  169SAPE   H8R19098   2.836   3.983   7.555 -2.3445 -0.7522  1.8707
  169SAPE   C2919099   2.916   3.826   7.676 -0.6368  0.1602  0.4436
  169SAPE   H9R19100   2.916   3.888   7.766  2.6787 -0.1494  0.7791
  169SAPE  C21019101   2.948   3.682   7.714 -0.2758  0.0318  0.2004
  169SAPE  H10R19102   3.057   3.676   7.732 -0.3651  0.4779  0.9535
  169SAPE  H10S19103   2.936   3.618   7.624 -2.7583 -2.0333  1.8644
  169SAPE  C21119104   2.870   3.635   7.834 -1.3803  0.0700  0.5061
  169SAPE  H11R19105   2.770   3.600   7.805 -0.9763  0.3553 -1.3407
  169SAPE  C21219106   2.917   3.617   7.960  0.1133  0.4586 -0.3987
  169SAPE  H12R19107   2.855   3.585   8.045  0.8537 -2.2136 -0.7530
  169SAPE  C21319108   3.061   3.640   8.012 -0.5950  0.0185 -0.2689
  169SAPE  H13R19109   3.122   3.659   7.922 -1.1418 -1.1533 -0.9035
  169SAPE  H13S19110   3.105   3.545   8.049 -1.5764 -0.2394  0.2966
  169SAPE  C21419111   3.080   3.755   8.114  0.2632  0.0725 -0.8998
  169SAPE  H14R19112   3.001   3.830   8.134  0.7495  0.3251  0.1719
  169SAPE  C21519113   3.197   3.770   8.178  0.2150  0.0867  0.3818
  169SAPE  H15R19114   3.196   3.843   8.260  0.4964 -0.0613  0.5168
  169SAPE  C21619115   3.320   3.679   8.163  0.1757 -0.2091 -0.1842
  169SAPE  H16R19116   3.392   3.726   8.092 -0.4123  0.3962 -0.3843
  169SAPE  H16S19117   3.293   3.582   8.115  0.0133  0.8199 -2.3153
  169SAPE  C21719118   3.395   3.654   8.295  0.1097  0.1038  0.2350
  169SAPE  H17R19119   3.332   3.598   8.367 -3.3036  0.9314 -1.8930
  169SAPE  H17S19120   3.423   3.757   8.326 -0.7267 -0.1090  1.8131
  169SAPE  C21819121   3.518   3.571   8.276 -0.2003  0.0588 -0.5236
  169SAPE  H18R19122   3.597   3.638   8.236  0.5050 -0.9074 -0.7828
  169SAPE  H18S19123   3.510   3.485   8.206  1.3689  0.2399 -0.9696
  169SAPE  C21919124   3.564   3.528   8.420  0.4575 -0.0183  0.3046
  169SAPE  H19R19125   3.483   3.473   8.473  0.9138 -2.1025 -1.0586
  169SAPE  H19S19126   3.581   3.617   8.484 -0.2185  1.1785 -1.1065
  169SAPE  C22019127   3.701   3.461   8.434  0.7135 -0.2157  0.4085
  169SAPE  H20R19128   3.773   3.523   8.376 -1.3867  2.4760  0.4784
  169SAPE  H20S19129   3.711   3.354   8.407  1.8897 -0.1640  0.5731
  169SAPE  H20T19130   3.743   3.491   8.533  0.5626  3.0999 -0.3905
  169SAPE   C3319131   2.518   3.598   7.141  0.5635 -0.0920  0.3890
  169SAPE   H3X19132   2.621   3.638   7.137  0.6592 -0.4490 -1.3027
  169SAPE   H3Y19133   2.520   3.489   7.119 -0.6429 -0.3970  1.6090
  169SAPE   C3419134   2.443   3.619   7.278 -0.5081  0.0125 -0.0571
  169SAPE   H4X19135   2.334   3.606   7.265  0.0470 -3.4599 -2.6014
  169SAPE   H4Y19136   2.476   3.714   7.325 -0.4516 -0.5710  1.1225
  169SAPE   C3519137   2.488   3.513   7.381 -0.0920 -0.0586  0.2668
  169SAPE   H5X19138   2.597   3.521   7.399  0.3097 -0.0824 -1.8921
  169SAPE   H5Y19139   2.476   3.414   7.332 -1.5179  1.2018 -2.1389
  169SAPE   C3619140   2.416   3.512   7.520 -0.6730 -1.1926  0.2131
  169SAPE   H6X19141   2.391   3.407   7.546  2.3335 -1.9223  0.5013
  169SAPE   H6Y19142   2.321   3.569   7.505 -0.0152 -0.5798 -2.0363
  169SAPE   C3719143   2.506   3.584   7.623 -0.1757  0.1688 -0.1864
  169SAPE   H7X19144   2.514   3.692   7.599 -0.1501  0.0510 -0.7202
  169SAPE   H7Y19145   2.607   3.541   7.609 -0.4572  0.0346 -2.0835
  169SAPE   C3819146   2.457   3.559   7.767 -0.5852 -0.5309  0.4528
  169SAPE   H8X19147   2.511   3.628   7.835  0.4838 -2.5578  1.7734
  169SAPE   H8Y19148   2.489   3.460   7.807 -0.0203 -1.3961 -1.9520
  169SAPE   C3919149   2.310   3.574   7.790 -0.7121  0.0966 -0.1963
  169SAPE   H9X19150   2.251   3.485   7.758  0.5090 -0.9376  0.3348
  169SAPE   H9Y19151   2.274   3.664   7.737 -1.2739 -0.0799 -0.1261
  169SAPE  C31019152   2.274   3.618   7.934  0.2184  0.0508  0.8245
  169SAPE  H10X19153   2.180   3.677   7.931 -0.9303 -1.7426  0.4204
  169SAPE  H10Y19154   2.351   3.682   7.983 -0.3964 -0.2806  2.2831
  169SAPE  C31119155   2.250   3.493   8.030 -0.6310  0.0370  0.6033
  169SAPE  H11X19156   2.340   3.429   8.036  0.1640  1.2152  1.8620
  169SAPE  H11Y19157   2.173   3.426   7.984 -1.9569  2.6302 -1.2358
  169SAPE  C31219158   2.220   3.524   8.174  0.2834 -0.1267  0.0542
  169SAPE  H12X19159   2.127   3.584   8.181  1.7216  2.3077 -0.4331
  169SAPE  H12Y19160   2.305   3.579   8.219  0.8722  0.6601 -1.9214
  169SAPE  C31319161   2.203   3.402   8.255  0.3181  0.7394 -1.3021
  169SAPE  H13X19162   2.292   3.336   8.249 -0.4209 -0.7600  1.9220
  169SAPE  H13Y19163   2.115   3.341   8.226  1.9214 -2.9730  0.9539
  169SAPE  C31419164   2.165   3.442   8.399 -1.0658  0.2592 -0.1752
  169SAPE  H14X19165   2.066   3.492   8.411 -1.0986  0.1705 -0.0779
  169SAPE  H14Y19166   2.236   3.520   8.433 -1.8307 -0.2418  2.8648
  169SAPE  C31519167   2.155   3.330   8.500  0.2291 -0.1737  0.6593
  169SAPE  H15X19168   2.127   3.372   8.599 -1.3773  0.8921 -0.2036
  169SAPE  H15Y19169   2.256   3.284   8.499 -0.0585 -0.8288  0.1041
  169SAPE  C31619170   2.046   3.236   8.451 -0.0316 -0.0359  0.0579
  169SAPE  H16X19171   2.052   3.192   8.349  0.6329  0.0990  0.0305
  169SAPE  H16Y19172   1.953   3.296   8.462  0.2202  0.6398 -1.2716
  169SAPE  C31719173   2.025   3.117   8.541  0.1355  0.0617  0.4968
  169SAPE  H17X19174   2.018   3.137   8.650 -2.3174 -1.6880  0.7551
  169SAPE  H17Y19175   2.112   3.050   8.524 -0.2994 -1.2184  2.8447
  169SAPE  C31819176   1.895   3.045   8.516  0.6408 -0.1576  0.0836
  169SAPE  H18X19177   1.808   3.111   8.537  1.4026  0.8223  0.2424
  169SAPE  H18Y19178   1.892   2.954   8.579  0.5467 -1.3417 -1.5670
  169SAPE  H18Z19179   1.905   3.022   8.408  2.6223  0.3696  0.1165
  170SAPE     N19180   1.359   0.931   5.862 -0.6855  0.2027 -0.6927
  170SAPE   HN119181   1.369   0.951   5.761  3.4873 -1.9918 -0.8976
  170SAPE   HN219182   1.454   0.899   5.890 -1.3899 -1.3876  0.0154
  170SAPE   HN319183   1.287   0.858   5.878 -1.3206  1.2407  1.6323
  170SAPE   C1219184   1.322   1.043   5.951  0.8215 -0.1331  0.2063
  170SAPE  H12A19185   1.218   1.066   5.921  1.2884 -1.9187 -3.3332
  170SAPE  H12B19186   1.376   1.136   5.923 -0.0476 -0.1004 -1.4948
  170SAPE   C1119187   1.314   1.003   6.104  0.3110  0.3714  0.1288
  170SAPE  H11A19188   1.303   1.078   6.185 -0.2561 -0.9105  1.2809
  170SAPE  H11B19189   1.414   0.963   6.133 -0.6576 -1.0101  1.7577
  170SAPE     P19190   1.079   0.931   6.173  0.1987  0.4873 -0.1239
  170SAPE   O1319191   1.022   1.052   6.098  0.1781 -0.4023 -0.8693
  170SAPE   O1419192   0.991   0.813   6.179 -0.2013 -0.0642 -0.2427
  170SAPE   O1219193   1.218   0.894   6.113 -0.6616  0.2240  0.0395
  170SAPE   O1119194   1.114   0.968   6.323 -0.2994  0.9422  0.5403
  170SAPE    C119195   1.066   1.077   6.394 -0.2773 -0.1461 -0.0912
  170SAPE    HA19196   1.132   1.166   6.386 -2.1767  1.2429 -1.1704
  170SAPE    HB19197   0.972   1.117   6.351  0.4030 -0.3438 -1.8399
  170SAPE    C219198   1.056   1.035   6.546  0.0319  0.3628 -0.2885
  170SAPE    HS19199   1.141   0.968   6.571 -0.7716 -0.9010 -0.8636
  170SAPE   O2119200   0.930   0.969   6.553  0.2889 -0.2372 -0.1945
  170SAPE   C2119201   0.934   0.839   6.562 -0.0750 -0.2433 -1.5995
  170SAPE   O2219202   1.028   0.770   6.601  0.4429  0.2589 -0.3168
  170SAPE   C2219203   0.799   0.769   6.551  0.0284  0.1322 -0.5053
  170SAPE   H2R19204   0.761   0.759   6.447  0.0463 -3.9884 -0.3073
  170SAPE   H2S19205   0.817   0.663   6.582  0.2121  0.7205  1.5623
  170SAPE    C319206   1.053   1.158   6.639  0.6838 -0.0332 -0.3516
  170SAPE    HX19207   0.994   1.238   6.590  1.5332  0.5285 -0.4867
  170SAPE    HY19208   1.156   1.200   6.643 -0.0717  1.8291  0.7912
  170SAPE   O3119209   1.016   1.124   6.777 -0.2625 -0.1268 -0.4038
  170SAPE   C3119210   1.026   1.231   6.854  0.5548 -0.0499  0.3316
  170SAPE   O3219211   1.044   1.343   6.817 -0.1629 -0.0341  0.0832
  170SAPE   C3219212   1.021   1.184   7.000 -0.1943 -0.5687  0.6638
  170SAPE   H2X19213   1.120   1.141   7.027 -0.1268 -0.2727  0.8993
  170SAPE   H2Y19214   0.942   1.106   7.008  1.4313 -2.5169 -1.1637
  170SAPE   C2319215   0.691   0.830   6.647 -0.7022  0.0021 -0.7531
  170SAPE   H3R19216   0.599   0.770   6.630  0.4428 -2.3835  0.8704
  170SAPE   H3S19217   0.667   0.937   6.629  1.4782  0.7890  0.5183
  170SAPE   C2419218   0.724   0.819   6.796  0.5584 -0.4983 -0.7790
  170SAPE   H4R19219   0.651   0.889   6.842 -1.2607 -3.6023  1.5036
  170SAPE   H4S19220   0.829   0.854   6.804  1.4129 -1.9919 -3.9982
  170SAPE   C2519221   0.710   0.682   6.854  0.4364  0.0880 -0.6637
  170SAPE   H5R19222   0.768   0.607   6.800 -1.6327 -0.4604 -2.2493
  170SAPE   C2619223   0.634   0.641   6.956  0.3430 -0.2616  0.0201
  170SAPE   H6R19224   0.643   0.533   6.979  1.0897 -0.7452 -2.2599
  170SAPE   C2719225   0.537   0.731   7.027 -0.3397  0.0972 -0.3847
  170SAPE   H7R19226   0.475   0.787   6.954  0.1335  1.2265  0.0531
  170SAPE   H7S19227   0.587   0.812   7.085  0.4633 -0.1255 -0.7494
  170SAPE   C2819228   0.436   0.653   7.105 -0.5589 -1.2333 -0.2002
  170SAPE   H8R19229   0.375   0.588   7.041 -0.7147 -0.7884 -0.5123
  170SAPE   C2919230   0.413   0.650   7.234 -1.0018 -0.0889  0.2644
  170SAPE   H9R19231   0.339   0.579   7.274  1.3652 -2.1412  1.2609
  170SAPE  C21019232   0.493   0.735   7.330 -0.5516  0.3444 -1.0441
  170SAPE  H10R19233   0.426   0.818   7.361  0.3909  0.3300  1.2171
  170SAPE  H10S19234   0.580   0.785   7.282 -0.8233 -0.6990 -2.6915
  170SAPE  C21119235   0.527   0.669   7.462 -0.6300  1.0453  0.0760
  170SAPE  H11R19236   0.632   0.645   7.484 -0.6279  0.8582 -0.1284
  170SAPE  C21219237   0.450   0.640   7.573 -0.4519  0.0513 -0.9210
  170SAPE  H12R19238   0.485   0.588   7.663 -1.1762  1.7378  0.3916
  170SAPE  C21319239   0.300   0.676   7.579  0.2391  0.1357  0.2216
  170SAPE  H13R19240   0.265   0.627   7.486  1.1751 -0.7075  0.3029
  170SAPE  H13S19241   0.287   0.786   7.568 -1.3470  0.0499  1.0041
  170SAPE  C21419242   0.216   0.613   7.687  0.3433 -0.1268  0.3454
  170SAPE  H14R19243   0.180   0.512   7.664  1.6787 -0.2994 -1.2010
  170SAPE  C21519244   0.185   0.669   7.801  0.5324 -0.6716  0.7246
  170SAPE  H15R19245   0.123   0.615   7.874  2.7091 -2.5536  1.2993
  170SAPE  C21619246   0.228   0.796   7.856  0.4981 -0.1985 -0.7211
  170SAPE  H16R19247   0.135   0.857   7.858  0.2343 -0.4116 -3.2841
  170SAPE  H16S19248   0.300   0.853   7.792  0.9715  2.7007  2.1204
  170SAPE  C21719249   0.295   0.785   7.992  0.0425  0.4016  0.4030
  170SAPE  H17R19250   0.219   0.753   8.066  0.9139  0.7522  1.4699
  170SAPE  H17S19251   0.312   0.893   8.013  1.2225  0.0325  1.4761
  170SAPE  C21819252   0.431   0.720   7.989 -0.2721 -0.5571 -0.0691
  170SAPE  H18R19253   0.487   0.763   7.904  0.6331 -0.6257  0.4752
  170SAPE  H18S19254   0.423   0.613   7.963  3.2522 -0.9892  0.2301
  170SAPE  C21919255   0.509   0.723   8.121 -0.4821 -0.0950 -0.2182
  170SAPE  H19R19256   0.499   0.827   8.159 -0.1771 -0.2999  0.4379
  170SAPE  H19S19257   0.619   0.709   8.112 -0.3968 -0.1073  0.7855
  170SAPE  C22019258   0.460   0.618   8.223 -0.2653  0.4388 -0.2347
  170SAPE  H20R19259   0.351   0.619   8.248 -0.1232 -1.2729  0.6368
  170SAPE  H20S19260   0.516   0.624   8.319  1.4397  1.7228 -1.2540
  170SAPE  H20T19261   0.476   0.520   8.175  2.1753  0.9566 -0.5937
  170SAPE   C3319262   0.978   1.302   7.089  0.0787 -0.0992  0.3001
  170SAPE   H3X19263   0.877   1.338   7.060 -1.0536 -2.3960  1.0980
  170SAPE   H3Y19264   1.056   1.380   7.080  0.8918 -0.9566 -0.2346
  170SAPE   C3419265   0.965   1.250   7.233  0.3762 -0.2165 -0.4557
  170SAPE   H4X19266   1.067   1.217   7.263  1.0360 -1.5432 -3.6731
  170SAPE   H4Y19267   0.893   1.166   7.229 -0.3282  0.3150  0.7148
  170SAPE   C3519268   0.923   1.364   7.318 -0.4119 -0.8521  0.2473
  170SAPE   H5X19269   0.829   1.411   7.283  0.1814  0.9767  0.9526
  170SAPE   H5Y19270   1.006   1.438   7.321  0.0878 -1.4345  2.2260
  170SAPE   C3619271   0.903   1.311   7.466 -0.3064  0.7034  0.6148
  170SAPE   H6X19272   1.001   1.291   7.514 -0.4284 -0.1811  0.5133
  170SAPE   H6Y19273   0.855   1.211   7.456 -0.0850  0.2163  3.6281
  170SAPE   C3719274   0.815   1.396   7.551 -0.4703  0.0832  0.1871
  170SAPE   H7X19275   0.727   1.435   7.495  1.2183  1.1851 -1.8407
  170SAPE   H7Y19276   0.874   1.486   7.577 -0.4739 -0.3507  1.7539
  170SAPE   C3819277   0.772   1.316   7.676  0.2672 -0.3672  0.3344
  170SAPE   H8X19278   0.857   1.266   7.727 -0.6923 -2.7645 -0.3053
  170SAPE   H8Y19279   0.705   1.239   7.633 -0.5782  0.6006 -0.1531
  170SAPE   C3919280   0.691   1.412   7.765  0.5210 -0.4063 -0.1785
  170SAPE   H9X19281   0.618   1.458   7.695 -1.3748 -0.4045  1.7075
  170SAPE   H9Y19282   0.754   1.493   7.808  0.4589 -0.5385  0.1622
  170SAPE  C31019283   0.620   1.340   7.881 -0.0136  1.0120  0.0099
  170SAPE  H10X19284   0.696   1.300   7.951 -0.9149 -0.1565  0.3533
  170SAPE  H10Y19285   0.567   1.255   7.833  0.1017 -0.2872  2.0641
  170SAPE  C31119286   0.513   1.425   7.946 -0.0743 -0.3243  0.2958
  170SAPE  H11X19287   0.442   1.452   7.865 -1.2727 -0.8334  1.1473
  170SAPE  H11Y19288   0.566   1.513   7.988 -0.7957  0.3876 -0.2479
  170SAPE  C31219289   0.433   1.349   8.054 -0.1226 -0.2734 -0.6021
  170SAPE  H12X19290   0.413   1.243   8.024 -2.5302  0.7072 -2.8628
  170SAPE  H12Y19291   0.334   1.394   8.072 -0.7311 -1.8093  0.0934
  170SAPE  C31319292   0.518   1.352   8.184 -0.4201  0.7025  0.2929
  170SAPE  H13X19293   0.521   1.458   8.218  1.3205  0.9123 -0.3823
  170SAPE  H13Y19294   0.620   1.308   8.176 -0.3017  0.7411  1.4463
  170SAPE  C31419295   0.464   1.272   8.304 -0.8755 -0.1043 -0.5297
  170SAPE  H14X19296   0.547   1.254   8.375  1.9564  0.3211 -3.4550
  170SAPE  H14Y19297   0.436   1.171   8.268 -0.7963 -0.4371  0.3363
  170SAPE  C31519298   0.332   1.322   8.363  0.3316  0.4952 -0.5061
  170SAPE  H15X19299   0.257   1.297   8.285 -0.1097 -1.3618  0.4708
  170SAPE  H15Y19300   0.346   1.432   8.371  0.7745  0.4452 -0.5278
  170SAPE  C31619301   0.290   1.262   8.501 -0.5012 -0.2419  0.0678
  170SAPE  H16X19302   0.359   1.300   8.579  0.0827 -2.0496  0.4720
  170SAPE  H16Y19303   0.299   1.152   8.502  3.0433 -0.0614  1.6012
  170SAPE  C31719304   0.147   1.307   8.541  0.9130  0.0236  0.5381
  170SAPE  H17X19305   0.072   1.281   8.463 -0.2812  2.0413  0.9285
  170SAPE  H17Y19306   0.143   1.418   8.538  0.7527  0.0000 -0.6768
  170SAPE  C31819307   0.107   1.238   8.666 -0.2195  0.7250  0.6592
  170SAPE  H18X19308   0.135   1.130   8.661 -1.9341  0.2376  0.8867
  170SAPE  H18Y19309  -0.004   1.239   8.663 -0.5197 -2.7649  3.2799
  170SAPE  H18Z19310   0.151   1.294   8.751  0.6624  1.1811 -0.0758
  171SAPE     N19311   3.600   3.638   6.167  0.2274  0.2493  0.3193
  171SAPE   HN119312   3.510   3.586   6.172  1.3194 -1.6699  1.1294
  171SAPE   HN219313   3.613   3.694   6.254 -0.3153  0.6388  0.1576
  171SAPE   HN319314   3.598   3.708   6.089 -0.4684 -1.1715 -0.9915
  171SAPE   C1219315   3.724   3.554   6.131  0.1501  0.1436  0.3896
  171SAPE  H12A19316   3.707   3.516   6.028 -1.5567  0.2112  0.6154
  171SAPE  H12B19317   3.729   3.459   6.189 -0.2648  0.0593  0.2932
  171SAPE   C1119318   3.856   3.634   6.134 -0.1972 -0.2764  0.4199
  171SAPE  H11A19319   3.860   3.694   6.041 -0.7414 -0.5165  0.2386
  171SAPE  H11B19320   3.949   3.573   6.135 -0.2808 -0.4309 -0.7145
  171SAPE     P19321   3.957   3.811   6.288  0.0708  0.3769  0.0882
  171SAPE   O1319322   4.095   3.779   6.235  0.0584  0.2353  0.3006
  171SAPE   O1419323   3.908   3.946   6.256 -0.4690  0.2180 -0.2758
  171SAPE   O1219324   3.854   3.710   6.249 -0.7443 -0.3847 -0.0720
  171SAPE   O1119325   3.956   3.797   6.438 -0.6063  0.2140 -0.1551
  171SAPE    C119326   3.898   3.892   6.522  0.2908 -0.4452  0.2615
  171SAPE    HA19327   3.802   3.930   6.482 -0.4991 -0.3598  2.1086
  171SAPE    HB19328   3.873   3.838   6.616  2.6538 -0.1225  1.1499
  171SAPE    C219329   3.999   4.012   6.550  0.6942  0.5181  0.2669
  171SAPE    HS19330   4.027   4.055   6.451  3.5959 -1.4194  0.1362
  171SAPE   O2119331   4.117   3.963   6.617  0.0739 -0.4715 -0.0492
  171SAPE   C2119332   4.210   4.053   6.656  0.7072 -0.1832  0.6745
  171SAPE   O2219333   4.214   4.168   6.610  0.4782 -0.2404  0.5103
  171SAPE   C2219334   4.320   3.998   6.742 -0.0994 -0.4001 -0.2509
  171SAPE   H2R19335   4.341   3.899   6.695 -3.5175 -1.9506  1.1369
  171SAPE   H2S19336   4.408   4.065   6.728  0.7433 -1.5886 -0.8313
  171SAPE    C319337   3.923   4.122   6.635 -0.4087  0.9344  0.4530
  171SAPE    HX19338   3.827   4.133   6.581 -2.4295 -0.6048  3.4706
  171SAPE    HY19339   3.976   4.218   6.618 -0.6855  1.6563  3.1375
  171SAPE   O3119340   3.903   4.086   6.781  0.4016 -0.4041  0.1043
  171SAPE   C3119341   3.773   4.062   6.808  0.0775  0.2370  0.6982
  171SAPE   O3219342   3.676   4.078   6.731 -0.7384 -0.2592 -0.3071
  171SAPE   C3219343   3.764   4.003   6.948  0.0004 -0.0251  0.4779
  171SAPE   H2X19344   3.834   4.066   7.008 -1.3375  1.9742  0.0034
  171SAPE   H2Y19345   3.804   3.899   6.946 -0.5322 -0.2195 -0.2838
  171SAPE   C2319346   4.263   3.986   6.881 -0.5729 -0.0724  0.3020
  171SAPE   H3R19347   4.168   3.927   6.883 -0.1803 -0.7268  0.0465
  171SAPE   H3S19348   4.253   4.083   6.933  0.9673  0.8946 -1.1314
  171SAPE   C2419349   4.366   3.917   6.973 -0.2202 -0.0187 -0.1117
  171SAPE   H4R19350   4.439   3.987   7.019  0.0359 -1.2142  1.3730
  171SAPE   H4S19351   4.430   3.857   6.905  0.7344  2.4173 -1.4706
  171SAPE   C2519352   4.305   3.832   7.084  0.7787 -0.4259  0.7430
  171SAPE   H5R19353   4.241   3.893   7.150 -0.1591  0.7293 -1.1318
  171SAPE   C2619354   4.299   3.700   7.103 -0.3501 -0.2489  0.6006
  171SAPE   H6R19355   4.242   3.659   7.187 -0.1189  1.0333  1.4095
  171SAPE   C2719356   4.353   3.609   7.003 -0.7639  0.4501 -0.1034
  171SAPE   H7R19357   4.450   3.574   7.045 -0.9929 -0.2560 -0.1362
  171SAPE   H7S19358   4.379   3.643   6.901 -1.6776 -0.8794 -0.8134
  171SAPE   C2819359   4.249   3.499   6.988 -0.5947 -0.0094 -0.4016
  171SAPE   H8R19360   4.179   3.516   6.905  0.9093  0.5593 -1.6166
  171SAPE   C2919361   4.253   3.381   7.054 -0.3816 -0.0822  0.6745
  171SAPE   H9R19362   4.169   3.315   7.026 -0.7448  0.6222  0.0602
  171SAPE  C21019363   4.347   3.328   7.161 -0.3309 -0.1497 -0.3912
  171SAPE  H10R19364   4.385   3.408   7.229  1.3768 -2.5977  1.7440
  171SAPE  H10S19365   4.436   3.276   7.120 -0.9757 -2.6146  1.1466
  171SAPE  C21119366   4.286   3.224   7.255  0.8746 -0.3235  0.2240
  171SAPE  H11R19367   4.305   3.117   7.240 -1.0266 -0.2868 -3.2316
  171SAPE  C21219368   4.213   3.257   7.364  0.7819 -0.2084 -0.0839
  171SAPE  H12R19369   4.163   3.180   7.423 -0.7979  1.2239  0.5025
  171SAPE  C21319370   4.185   3.397   7.416  1.1425 -0.1401 -0.0942
  171SAPE  H13R19371   4.074   3.398   7.411  1.0407 -0.9372  1.4130
  171SAPE  H13S19372   4.214   3.481   7.348 -3.8340  1.1221 -1.0496
  171SAPE  C21419373   4.206   3.416   7.566 -0.5504 -0.4339  0.6884
  171SAPE  H14R19374   4.275   3.502   7.575 -1.1228  0.0939  0.1719
  171SAPE  C21519375   4.154   3.355   7.676  0.4065  0.0105  0.2293
  171SAPE  H15R19376   4.165   3.387   7.781 -1.7228 -0.3162  0.5853
  171SAPE  C21619377   4.054   3.239   7.679 -0.5527 -0.5299 -0.5143
  171SAPE  H16R19378   4.115   3.149   7.701  1.4816  0.6497 -1.1068
  171SAPE  H16S19379   4.013   3.221   7.578 -2.3695  0.6677 -0.0580
  171SAPE  C21719380   3.919   3.254   7.764 -0.6865  0.9935 -0.7643
  171SAPE  H17R19381   3.831   3.192   7.737 -2.2822  3.1526 -0.7487
  171SAPE  H17S19382   3.886   3.347   7.714 -0.6219  0.5582 -1.6220
  171SAPE  C21819383   3.934   3.275   7.919 -0.4457 -0.1684  0.0237
  171SAPE  H18R19384   3.995   3.365   7.941 -0.5273 -0.3964  1.2795
  171SAPE  H18S19385   3.989   3.190   7.965  1.5583  1.7260  1.3360
  171SAPE  C21919386   3.799   3.284   7.982 -0.3014 -0.0091 -0.1057
  171SAPE  H19R19387   3.750   3.184   7.972  0.7796 -0.4300 -1.5854
  171SAPE  H19S19388   3.737   3.350   7.918 -1.0856 -0.1697  0.4782
  171SAPE  C22019389   3.817   3.329   8.123 -0.4925  0.6536  0.3207
  171SAPE  H20R19390   3.864   3.427   8.143 -0.0579  0.0972  2.2698
  171SAPE  H20S19391   3.876   3.256   8.182  0.7643 -0.5484 -2.2546
  171SAPE  H20T19392   3.718   3.322   8.174 -0.1567 -2.7092  0.7535
  171SAPE   C3319393   3.618   4.003   6.992  0.2656 -0.2037 -0.1064
  171SAPE   H3X19394   3.549   3.939   6.934 -1.0439  1.6096 -0.6422
  171SAPE   H3Y19395   3.586   4.110   6.989  1.7436  0.3631  1.9683
  171SAPE   C3419396   3.615   3.946   7.138 -0.7485  0.1212 -0.0753
  171SAPE   H4X19397   3.688   3.995   7.206 -1.4469 -0.2946  0.9989
  171SAPE   H4Y19398   3.633   3.837   7.125 -1.8967 -0.3634  2.0112
  171SAPE   C3519399   3.477   3.964   7.202  0.0253 -0.1015 -0.1207
  171SAPE   H5X19400   3.396   3.909   7.149  0.0320  1.4086 -1.7906
  171SAPE   H5Y19401   3.440   4.068   7.216  0.4344  0.1074 -0.5645
  171SAPE   C3619402   3.470   3.924   7.350  0.3104  0.1951  0.4024
  171SAPE   H6X19403   3.562   3.971   7.391  1.6100 -1.0672 -0.9699
  171SAPE   H6Y19404   3.473   3.814   7.360  0.2531  0.1577  0.0445
  171SAPE   C3719405   3.348   3.976   7.423  0.7495  0.7917 -0.7354
  171SAPE   H7X19406   3.260   3.919   7.385  2.0658 -2.6631  1.0829
  171SAPE   H7Y19407   3.326   4.084   7.408 -1.1669  0.3429 -1.5853
  171SAPE   C3819408   3.364   3.944   7.572  0.8194  0.6159  0.1248
  171SAPE   H8X19409   3.465   3.967   7.612 -0.5252  2.1463  2.9419
  171SAPE   H8Y19410   3.349   3.835   7.590  0.6354  0.4854 -0.7840
  171SAPE   C3919411   3.251   4.012   7.656  0.3067 -0.4889 -0.5535
  171SAPE   H9X19412   3.150   3.970   7.638 -0.2274 -0.9942  2.8906
  171SAPE   H9Y19413   3.253   4.119   7.625 -0.5960 -0.3843 -0.2767
  171SAPE  C31019414   3.281   4.016   7.805 -0.3171  0.6594 -0.3972
  171SAPE  H10X19415   3.220   3.937   7.855  0.3181  1.5732  1.9839
  171SAPE  H10Y19416   3.221   4.100   7.847 -1.6556  0.0208 -0.9747
  171SAPE  C31119417   3.425   4.025   7.860  0.0137 -0.6933 -0.2990
  171SAPE  H11X19418   3.478   4.110   7.812  0.7425 -0.7808  0.3279
  171SAPE  H11Y19419   3.475   3.928   7.836  0.3953 -1.0131  1.6219
  171SAPE  C31219420   3.423   4.044   8.013 -0.1677  0.2941 -0.5814
  171SAPE  H12X19421   3.343   3.980   8.055 -0.8411  1.0035 -0.7610
  171SAPE  H12Y19422   3.395   4.148   8.038 -1.2695  0.0770 -0.8620
  171SAPE  C31319423   3.558   4.022   8.086  0.7889  0.6057 -0.1503
  171SAPE  H13X19424   3.647   4.065   8.035  1.2635  1.4223  1.2947
  171SAPE  H13Y19425   3.585   3.916   8.104 -1.0169 -0.5117 -3.2749
  171SAPE  C31419426   3.575   4.091   8.223  0.5028 -0.0002 -0.0780
  171SAPE  H14X19427   3.512   4.043   8.302  0.3347 -1.3414 -0.9960
  171SAPE  H14Y19428   3.538   4.193   8.202 -0.6905 -0.3569  0.2055
  171SAPE  C31519429   3.719   4.079   8.270  0.3646  0.2420  0.5988
  171SAPE  H15X19430   3.733   4.162   8.343 -2.1362 -0.9630  2.6137
  171SAPE  H15Y19431   3.796   4.092   8.191 -0.0570 -0.0277  0.1395
  171SAPE  C31619432   3.748   3.952   8.342  0.3672  0.3709  0.2895
  171SAPE  H16X19433   3.730   3.876   8.263  1.0955  0.0751  0.4017
  171SAPE  H16Y19434   3.672   3.930   8.421 -0.4053 -2.4897 -1.0841
  171SAPE  C31719435   3.889   3.944   8.386 -0.4530 -0.4023 -0.3463
  171SAPE  H17X19436   3.926   4.034   8.440 -0.2579 -0.2873 -0.6677
  171SAPE  H17Y19437   3.959   3.952   8.300  1.9813 -0.8258  1.4911
  171SAPE  C31819438   3.938   3.818   8.465  0.1672 -0.2747  0.1789
  171SAPE  H18X19439   3.899   3.723   8.423  0.6302 -0.0041 -0.9040
  171SAPE  H18Y19440   3.913   3.824   8.573 -0.0628  1.2374  0.0643
  171SAPE  H18Z19441   4.049   3.815   8.465  0.1787  0.0925  0.3596
  172SAPE     N19442   5.756   1.758   6.076  0.6155 -0.0854  0.0456
  172SAPE   HN119443   5.695   1.702   6.138 -0.2796 -0.9925 -1.5630
  172SAPE   HN219444   5.799   1.695   6.005  0.4902 -1.0555  0.8101
  172SAPE   HN319445   5.832   1.797   6.134 -0.1266  0.4356  0.6900
  172SAPE   C1219446   5.680   1.863   6.003  0.0807 -0.0776  0.5559
  172SAPE  H12A19447   5.620   1.808   5.928  0.3955 -0.4135  0.5482
  172SAPE  H12B19448   5.754   1.934   5.960 -1.0678  1.6034  1.2358
  172SAPE   C1119449   5.582   1.938   6.096  0.4054 -1.0943  0.3197
  172SAPE  H11A19450   5.526   2.000   6.023  1.1387 -0.2794  0.4241
  172SAPE  H11B19451   5.637   2.003   6.167  1.8220 -2.0423  0.1463
  172SAPE     P19452   5.352   1.868   6.181  0.1158 -0.1572  0.0380
  172SAPE   O1319453   5.298   1.885   6.046 -0.3662 -0.0708 -0.6128
  172SAPE   O1419454   5.293   1.753   6.252 -0.8064  0.2581  0.6420
  172SAPE   O1219455   5.506   1.845   6.177  0.5741  0.2425  0.2708
  172SAPE   O1119456   5.325   1.996   6.266  0.5674 -1.0910  0.2183
  172SAPE    C119457   5.409   2.039   6.379 -0.9178  0.0069  0.3783
  172SAPE    HA19458   5.512   2.057   6.340 -0.8819 -1.3692 -0.2316
  172SAPE    HB19459   5.364   2.129   6.425 -1.8937 -0.8422  1.1188
  172SAPE    C219460   5.416   1.945   6.499  0.2453  0.4718  0.1102
  172SAPE    HS19461   5.444   1.846   6.456  0.2005  1.1476 -1.5825
  172SAPE   O2119462   5.290   1.948   6.566  0.1822  0.0520  0.1935
  172SAPE   C2119463   5.263   1.840   6.643  0.6537  0.1010  0.2937
  172SAPE   O2219464   5.324   1.738   6.642 -0.1259 -0.2116  0.4221
  172SAPE   C2219465   5.134   1.867   6.726  0.5868  0.2745 -0.5323
  172SAPE   H2R19466   5.072   1.926   6.655 -0.8529  0.9318  1.2007
  172SAPE   H2S19467   5.089   1.768   6.751  0.8116  0.3266  0.0750
  172SAPE    C319468   5.530   2.006   6.591 -0.4063  0.0835  1.1467
  172SAPE    HX19469   5.510   2.115   6.593 -0.9619  0.1919 -2.5650
  172SAPE    HY19470   5.621   2.008   6.528 -0.0657  2.6858  1.6045
  172SAPE   O3119471   5.540   1.951   6.726  0.5785 -0.3217 -0.4031
  172SAPE   C3119472   5.584   1.828   6.739  0.3104  0.6139  0.2295
  172SAPE   O3219473   5.648   1.771   6.653 -0.2535 -0.4359 -0.4467
  172SAPE   C3219474   5.546   1.776   6.879  0.0860 -0.7254 -0.0124
  172SAPE   H2X19475   5.633   1.713   6.905  1.3631  0.5855 -0.9461
  172SAPE   H2Y19476   5.455   1.713   6.876 -2.1985  2.1473  2.3269
  172SAPE   C2319477   5.153   1.956   6.846  0.0420 -0.3563  1.2980
  172SAPE   H3R19478   5.188   2.051   6.801 -0.2156  0.4426  2.7397
  172SAPE   H3S19479   5.240   1.915   6.901  0.4534 -1.6001 -0.2136
  172SAPE   C2419480   5.032   1.981   6.939  0.6500  0.4332  0.3371
  172SAPE   H4R19481   4.947   2.024   6.883 -1.8175  0.2056  3.6306
  172SAPE   H4S19482   5.064   2.052   7.020  1.2531  1.4389 -0.7501
  172SAPE   C2519483   4.980   1.862   7.007  0.2392  0.0626 -0.3085
  172SAPE   H5R19484   4.975   1.775   6.940  1.3058  0.8573 -1.4558
  172SAPE   C2619485   4.962   1.844   7.143  0.3985  0.1510  0.1978
  172SAPE   H6R19486   4.936   1.741   7.172 -1.4927  0.8345  1.1446
  172SAPE   C2719487   4.984   1.937   7.254  0.0723  0.2072 -0.0312
  172SAPE   H7R19488   4.915   1.918   7.340 -0.2583  1.3512 -0.0224
  172SAPE   H7S19489   4.960   2.042   7.226  1.4509  0.3520 -0.7555
  172SAPE   C2819490   5.130   1.933   7.299  0.1023  0.1233 -0.4573
  172SAPE   H8R19491   5.210   1.937   7.224  1.6553  1.7056  1.1701
  172SAPE   C2919492   5.180   1.942   7.427  0.1772 -0.4072  0.2153
  172SAPE   H9R19493   5.288   1.937   7.445 -0.2160  0.1812  3.5367
  172SAPE  C21019494   5.088   1.955   7.553  0.0421 -0.8850  0.2702
  172SAPE  H10R19495   5.161   1.951   7.637  0.4174  0.1624  0.0122
  172SAPE  H10S19496   5.023   1.866   7.568  0.0842 -0.6869  1.8454
  172SAPE  C21119497   5.004   2.084   7.558 -0.2261 -0.5744  0.3420
  172SAPE  H11R19498   4.948   2.103   7.466  1.3187  0.2419 -0.4739
  172SAPE  C21219499   5.016   2.175   7.654 -0.2945  0.3802 -0.0139
  172SAPE  H12R19500   4.958   2.265   7.627 -1.5683 -0.5302 -0.3798
  172SAPE  C21319501   5.086   2.167   7.781 -0.6396 -0.5760 -0.0612
  172SAPE  H13R19502   5.188   2.124   7.768 -0.6426 -0.3170 -1.0330
  172SAPE  H13S19503   5.043   2.096   7.855 -3.5495 -0.0527 -1.1223
  172SAPE  C21419504   5.104   2.306   7.849  0.1138  0.5539  0.5459
  172SAPE  H14R19505   5.198   2.350   7.814  1.2533 -1.8800  0.3832
  172SAPE  C21519506   5.022   2.375   7.928 -0.2794 -0.2941 -0.3102
  172SAPE  H15R19507   5.053   2.479   7.943 -0.3237  0.1904 -3.1016
  172SAPE  C21619508   4.880   2.336   7.961 -0.5994 -0.0196  0.1767
  172SAPE  H16R19509   4.861   2.286   8.058 -1.6629  1.6214  0.8588
  172SAPE  H16S19510   4.841   2.261   7.890  0.2811 -1.1694  0.8746
  172SAPE  C21719511   4.784   2.462   7.960 -0.3185 -0.3963 -0.7684
  172SAPE  H17R19512   4.680   2.431   7.983  0.2230 -1.8284 -0.1717
  172SAPE  H17S19513   4.792   2.500   7.855  1.6455  0.0120 -0.5195
  172SAPE  C21819514   4.812   2.586   8.054  0.1106  0.8365  0.1820
  172SAPE  H18R19515   4.908   2.633   8.021  0.4679 -0.7269 -1.1398
  172SAPE  H18S19516   4.830   2.559   8.160  0.8474 -0.1409 -0.1751
  172SAPE  C21919517   4.695   2.687   8.048  0.4107 -0.4271  0.1624
  172SAPE  H19R19518   4.621   2.664   8.128  1.6333 -0.8016  1.2098
  172SAPE  H19S19519   4.649   2.667   7.948  0.8236 -0.2765 -0.0584
  172SAPE  C22019520   4.736   2.829   8.079  0.1191 -0.4732 -0.8826
  172SAPE  H20R19521   4.839   2.853   8.044 -0.3060  3.6973  0.2219
  172SAPE  H20S19522   4.747   2.841   8.189  1.1888 -0.0589 -1.0195
  172SAPE  H20T19523   4.663   2.904   8.044  0.2799 -0.0361 -0.3058
  172SAPE   C3319524   5.542   1.891   6.987 -0.1938  0.3066 -0.4669
  172SAPE   H3X19525   5.478   1.978   6.961 -0.8931 -0.1471 -0.3143
  172SAPE   H3Y19526   5.647   1.923   7.000  0.1833 -1.2052  0.5126
  172SAPE   C3419527   5.517   1.831   7.126  0.6692  0.2350  0.0429
  172SAPE   H4X19528   5.529   1.722   7.140 -0.0900 -0.1193 -1.7542
  172SAPE   H4Y19529   5.408   1.848   7.140  0.3995 -0.1747 -1.4072
  172SAPE   C3519530   5.592   1.907   7.239 -0.1198  0.4082  0.0782
  172SAPE   H5X19531   5.571   2.016   7.244  2.2959  0.9028  0.6392
  172SAPE   H5Y19532   5.700   1.895   7.217 -0.2131  1.7943 -1.2727
  172SAPE   C3619533   5.554   1.852   7.377 -0.7305  0.3115 -0.0174
  172SAPE   H6X19534   5.592   1.749   7.396  0.5105  0.7658  0.0471
  172SAPE   H6Y19535   5.446   1.827   7.387 -0.6265 -0.6300 -1.0170
  172SAPE   C3719536   5.590   1.953   7.486 -0.1414 -0.7172 -0.5022
  172SAPE   H7X19537   5.555   2.057   7.467 -0.2560 -0.5013  0.8295
  172SAPE   H7Y19538   5.699   1.956   7.507 -0.2640  0.1848  0.0721
  172SAPE   C3819539   5.523   1.911   7.617 -0.5273  0.4300  0.2972
  172SAPE   H8X19540   5.585   1.839   7.673  0.6877  0.8896 -0.4228
  172SAPE   H8Y19541   5.426   1.857   7.608 -0.5451  0.5977 -0.6525
  172SAPE   C3919542   5.507   2.032   7.711 -0.5211 -0.1393  0.1919
  172SAPE   H9X19543   5.438   2.109   7.671 -1.0696  0.4666  2.2029
  172SAPE   H9Y19544   5.605   2.080   7.731 -0.9722  0.4981  0.9167
  172SAPE  C31019545   5.457   2.011   7.857 -0.3743  0.0353 -0.0336
  172SAPE  H10X19546   5.528   1.943   7.908  0.0360 -0.9827 -1.8721
  172SAPE  H10Y19547   5.357   1.963   7.850  0.0730 -0.7296 -2.0138
  172SAPE  C31119548   5.446   2.150   7.933  0.2694  0.0218 -0.1576
  172SAPE  H11X19549   5.383   2.218   7.871 -0.0298  0.7251  0.8921
  172SAPE  H11Y19550   5.540   2.208   7.941 -1.6127  3.2966  0.0345
  172SAPE  C31219551   5.394   2.132   8.078  0.6201  0.5573 -0.2639
  172SAPE  H12X19552   5.461   2.061   8.131  0.7349  0.0575 -1.0526
  172SAPE  H12Y19553   5.299   2.081   8.052  1.9941 -1.5753 -1.3415
  172SAPE  C31319554   5.372   2.270   8.145  0.0170 -0.0374  0.0811
  172SAPE  H13X19555   5.327   2.344   8.076  0.9527  1.1641  0.7343
  172SAPE  H13Y19556   5.471   2.313   8.170  0.4895 -1.2513  0.4065
  172SAPE  C31419557   5.286   2.267   8.270 -0.1355 -0.4396 -0.5642
  172SAPE  H14X19558   5.321   2.181   8.332 -0.6322 -1.4447 -1.6368
  172SAPE  H14Y19559   5.179   2.255   8.241 -0.3028  1.2330 -0.7330
  172SAPE  C31519560   5.302   2.400   8.341 -0.1153  0.1008 -0.1322
  172SAPE  H15X19561   5.281   2.486   8.274 -0.3771  0.9758  1.0471
  172SAPE  H15Y19562   5.410   2.410   8.365 -0.8425  0.4146  3.5059
  172SAPE  C31619563   5.237   2.398   8.480  0.7916 -0.4538  0.1891
  172SAPE  H16X19564   5.127   2.383   8.478  0.5920  0.8917  0.2671
  172SAPE  H16Y19565   5.262   2.498   8.521  0.7813 -1.0988  1.8537
  172SAPE  C31719566   5.302   2.304   8.593  0.2695 -0.1435  0.4848
  172SAPE  H17X19567   5.411   2.321   8.579 -0.0398  1.6326 -0.0230
  172SAPE  H17Y19568   5.273   2.198   8.577  1.6904 -0.5329  0.3623
  172SAPE  C31819569   5.264   2.362   8.728  0.1641 -0.7572 -0.5943
  172SAPE  H18X19570   5.154   2.360   8.740  0.3755  0.2768  2.5114
  172SAPE  H18Y19571   5.288   2.471   8.722 -1.3861 -0.3960 -0.7348
  172SAPE  H18Z19572   5.317   2.317   8.815  0.9529  1.7432  0.3117
  173SOPE     N19573   3.048   5.521  10.896 -0.4297 -0.2465  0.3823
  173SOPE   HN119574   3.070   5.617  10.864 -0.8293 -0.2169  0.1814
  173SOPE   HN219575   3.075   5.445  10.831  0.5765 -0.2092  0.7376
  173SOPE   HN319576   2.945   5.507  10.896 -0.5014  0.2795  0.3437
  173SOPE   C1219577   3.112   5.475  11.023 -0.1126 -0.3104  0.0011
  173SOPE  H12A19578   3.067   5.374  11.040 -0.4597 -0.0180  0.8512
  173SOPE  H12B19579   3.087   5.549  11.101 -0.8523  0.6187 -1.0942
  173SOPE   C1119580   3.262   5.476  11.015 -1.4066  0.5336  0.7626
  173SOPE  H11A19581   3.293   5.442  10.913  3.1088 -1.5176  2.5372
  173SOPE  H11B19582   3.295   5.391  11.079 -0.4794 -0.2469 -0.6777
  173SOPE     P19583   3.316   5.723  10.960  0.0782  0.1461  0.3474
  173SOPE   O1319584   3.430   5.808  11.001 -0.2027 -0.1344  0.0090
  173SOPE   O1419585   3.185   5.778  10.966  0.3123 -0.1549  0.1875
  173SOPE   O1219586   3.314   5.601  11.048  0.6376 -0.3715  0.1428
  173SOPE   O1119587   3.333   5.665  10.813  0.1817  0.8399 -0.1631
  173SOPE    C119588   3.462   5.626  10.776  0.3115 -0.8853 -0.1944
  173SOPE    HA19589   3.451   5.549  10.696 -0.9710 -1.3182  0.3773
  173SOPE    HB19590   3.529   5.589  10.857 -0.0619 -0.1548  0.4549
  173SOPE    C219591   3.545   5.743  10.718 -0.3986 -0.3950  0.4160
  173SOPE    HS19592   3.571   5.822  10.792  3.0026  1.1364 -2.1311
  173SOPE   O2119593   3.474   5.796  10.608  0.1604 -0.4793 -0.5739
  173SOPE   C2119594   3.532   5.907  10.555  0.1386  0.0306 -0.1724
  173SOPE   O2219595   3.628   5.967  10.592  0.1798  0.9286  0.0237
  173SOPE   C2219596   3.443   5.952  10.440  0.3020 -0.1220 -0.1125
  173SOPE   H2R19597   3.461   6.062  10.439  0.6375 -0.1696  0.3156
  173SOPE   H2S19598   3.339   5.939  10.478  0.8948 -0.4236  1.4901
  173SOPE    C319599   3.686   5.696  10.681  0.5284  0.2014  0.5960
  173SOPE    HX19600   3.747   5.679  10.772  1.0970 -0.2503  0.1345
  173SOPE    HY19601   3.748   5.783  10.649 -0.5642  0.3070 -1.4255
  173SOPE   O3119602   3.682   5.574  10.598  0.4458 -0.2253  0.3714
  173SOPE   C3119603   3.727   5.595  10.473  0.4665  0.0232  0.5184
  173SOPE   O3219604   3.773   5.700  10.427 -0.0890 -0.3567  0.1812
  173SOPE   C3219605   3.725   5.451  10.409 -1.1090  0.2923 -0.0697
  173SOPE   H2X19606   3.621   5.418  10.429 -0.2412 -1.7594  1.5518
  173SOPE   H2Y19607   3.786   5.382  10.472 -0.5504  1.5722  0.8480
  173SOPE   C2319608   3.469   5.889  10.303 -0.7787 -0.5775  0.2116
  173SOPE   H3R19609   3.424   5.788  10.298 -1.6613 -0.2428  1.0797
  173SOPE   H3S19610   3.575   5.860  10.284 -1.0766 -1.4781 -0.1234
  173SOPE   C2419611   3.435   5.989  10.198 -0.4654  0.7995  0.0642
  173SOPE   H4R19612   3.334   6.027  10.222 -2.5002 -3.3252 -0.9743
  173SOPE   H4S19613   3.506   6.074  10.204 -1.9462  1.9993  1.4339
  173SOPE   C2519614   3.438   5.922  10.056  0.0493 -0.5424 -0.6943
  173SOPE   H5R19615   3.545   5.903  10.034  0.7383  1.2058  0.8698
  173SOPE   H5S19616   3.366   5.836  10.054 -1.7778  0.9104 -0.3741
  173SOPE   C2619617   3.382   6.027   9.956  0.3178 -0.1485 -0.0326
  173SOPE   H6R19618   3.293   6.080   9.995  1.2297  1.5281 -0.1276
  173SOPE   H6S19619   3.442   6.119   9.942 -2.0028  1.2344 -1.3844
  173SOPE   C2719620   3.363   5.967   9.819  0.2368  0.7413 -0.0559
  173SOPE   H7R19621   3.463   5.925   9.792  0.4243  0.3531  1.1868
  173SOPE   H7S19622   3.301   5.875   9.829  1.9922 -0.2996  2.2261
  173SOPE   C2819623   3.306   6.076   9.724 -0.2035 -0.0946  0.1208
  173SOPE   H8R19624   3.210   6.123   9.755  1.0831  3.6378 -1.0002
  173SOPE   H8S19625   3.387   6.152   9.719  0.7875 -1.1436 -0.2233
  173SOPE   C2919626   3.291   6.038   9.578  0.6000  0.2443 -0.4580
  173SOPE   H9119627   3.384   6.054   9.521 -0.0251 -0.2458 -1.6372
  173SOPE  C21019628   3.175   6.008   9.512 -0.2790  0.0586 -0.1629
  173SOPE  H10119629   3.179   6.002   9.402  0.7877  3.5929 -0.4465
  173SOPE  C21119630   3.035   6.007   9.569 -0.3299  0.3999  0.0800
  173SOPE  H11R19631   2.975   6.075   9.505 -0.2158  0.0713 -0.3758
  173SOPE  H11S19632   3.018   6.045   9.672  0.5918 -2.9783  1.6188
  173SOPE  C21219633   2.973   5.862   9.555 -0.1053  0.2952 -0.9887
  173SOPE  H12R19634   2.868   5.869   9.589 -0.2289  1.1566 -1.5006
  173SOPE  H12S19635   3.032   5.787   9.611 -1.5900  1.5089  2.4201
  173SOPE  C21319636   2.960   5.816   9.412  0.0931  0.1903 -0.1929
  173SOPE  H13R19637   3.065   5.800   9.379  0.8307  2.6623  0.7160
  173SOPE  H13S19638   2.919   5.898   9.350  1.9188 -0.3226 -2.1942
  173SOPE  C21419639   2.860   5.695   9.413 -0.6591  0.1888  0.1364
  173SOPE  H14R19640   2.757   5.720   9.448 -0.6873 -1.0280  1.0085
  173SOPE  H14S19641   2.891   5.613   9.481 -0.5138 -1.1515 -1.4761
  173SOPE  C21519642   2.859   5.626   9.277  0.3101  0.8549  0.0250
  173SOPE  H15R19643   2.964   5.606   9.245  0.8133  3.3186 -0.1114
  173SOPE  H15S19644   2.831   5.699   9.198  0.7087 -0.8919 -1.7829
  173SOPE  C21619645   2.771   5.501   9.285 -0.1984 -0.2265  0.6429
  173SOPE  H16R19646   2.669   5.527   9.319 -1.3067 -2.7535 -0.4597
  173SOPE  H16S19647   2.806   5.429   9.362 -2.1027 -0.2182  1.5784
  173SOPE  C21719648   2.772   5.432   9.147 -0.0046 -0.1925 -0.4087
  173SOPE  H17R19649   2.862   5.367   9.146  1.2577  1.4760 -0.0656
  173SOPE  H17S19650   2.782   5.512   9.070 -1.5146  0.1782 -0.2464
  173SOPE  C21819651   2.656   5.336   9.109  0.2136  0.7568 -0.3134
  173SOPE  H18R19652   2.644   5.246   9.173  0.4862  1.4053  0.6707
  173SOPE  H18S19653   2.669   5.303   9.004  2.2069  0.7987 -0.1048
  173SOPE  H18T19654   2.562   5.396   9.114  0.2226  0.7317  0.3397
  173SOPE   C3319655   3.756   5.439  10.262 -0.0354  0.3443  0.1410
  173SOPE   H3X19656   3.724   5.338  10.229 -2.4772  1.1307 -0.1242
  173SOPE   H3Y19657   3.860   5.461  10.229 -1.0381  2.4355 -1.9079
  173SOPE   C3419658   3.678   5.531  10.177  0.0608 -0.6568 -0.4296
  173SOPE   H4X19659   3.706   5.638  10.190 -1.2030 -0.3465 -0.0879
  173SOPE   H4Y19660   3.572   5.535  10.210  0.4893  0.1739  0.9444
  173SOPE   C3519661   3.687   5.496  10.027  0.4645  0.6173  0.2568
  173SOPE   H5X19662   3.656   5.391  10.012  0.3969  0.5304  0.9387
  173SOPE   H5Y19663   3.796   5.505  10.009  0.2996  0.8142 -0.6849
  173SOPE   C3619664   3.596   5.593   9.950  0.0354 -0.0135 -0.2553
  173SOPE   H6X19665   3.631   5.698   9.956 -0.1347  0.0946 -1.0092
  173SOPE   H6Y19666   3.490   5.594   9.982  0.1721  2.3904  0.3042
  173SOPE   C3719667   3.598   5.559   9.798 -0.0487 -0.5885 -0.6180
  173SOPE   H7X19668   3.532   5.638   9.756  2.0593  1.4493 -0.3233
  173SOPE   H7Y19669   3.559   5.458   9.773 -1.5401 -0.4476  0.9346
  173SOPE   C3819670   3.727   5.574   9.718  0.0994  0.5253  0.5156
  173SOPE   H8X19671   3.791   5.486   9.742 -0.9161  0.0926  1.7475
  173SOPE   H8Y19672   3.779   5.659   9.767  1.2717  0.2597 -0.2109
  173SOPE   C3919673   3.716   5.581   9.563  0.4259  0.0949  0.3331
  173SOPE   H9X19674   3.623   5.637   9.539  1.1831  0.9392 -0.6792
  173SOPE   H9Y19675   3.687   5.482   9.523 -1.1191  0.5056  0.3823
  173SOPE  C31019676   3.830   5.656   9.494 -0.5149  0.8045  0.4216
  173SOPE  H10X19677   3.922   5.598   9.516 -1.5980 -0.5846  1.5615
  173SOPE  H10Y19678   3.832   5.755   9.546 -0.1746  1.5181 -0.9185
  173SOPE  C31119679   3.801   5.671   9.349  0.0584  0.1008  0.2321
  173SOPE  H11X19680   3.695   5.701   9.333  0.3322  1.2274  0.4344
  173SOPE  H11Y19681   3.804   5.570   9.302 -0.9316  0.7286 -1.2610
  173SOPE  C31219682   3.889   5.767   9.282 -0.4158  0.2337 -0.0627
  173SOPE  H12X19683   3.997   5.739   9.289 -0.2701  0.3535 -1.4795
  173SOPE  H12Y19684   3.868   5.870   9.317  0.5378  0.4986 -0.2212
  173SOPE  C31319685   3.871   5.769   9.125  0.6556  0.1615 -0.3162
  173SOPE  H13X19686   3.766   5.796   9.102  0.9313  1.1846 -0.4529
  173SOPE  H13Y19687   3.899   5.667   9.091 -1.3825 -0.1027 -1.3711
  173SOPE  C31419688   3.952   5.891   9.068  0.1991  0.3570  0.0616
  173SOPE  H14X19689   4.056   5.878   9.105 -1.2976 -2.7211  3.8823
  173SOPE  H14Y19690   3.914   5.989   9.105  2.3303  1.6601 -0.9687
  173SOPE  C31519691   3.948   5.887   8.912 -0.0826 -0.1316 -0.0843
  173SOPE  H15X19692   3.855   5.838   8.879  0.6351 -1.5062 -0.1209
  173SOPE  H15Y19693   4.036   5.827   8.882  0.2155 -1.0536  2.3725
  173SOPE  C31619694   3.947   6.021   8.846 -0.1495 -0.8433 -0.3882
  173SOPE  H16X19695   4.040   6.072   8.879 -0.9228  0.2948  0.0577
  173SOPE  H16Y19696   3.864   6.083   8.884 -1.1732 -0.5279 -2.9639
  173SOPE  C31719697   3.949   6.014   8.696  0.5391  0.1682  0.1121
  173SOPE  H17X19698   4.022   5.936   8.667  0.4404 -0.3603  1.2197
  173SOPE  H17Y19699   3.987   6.106   8.647  0.4190 -0.5327 -1.3405
  173SOPE  C31819700   3.811   5.994   8.637 -0.5383  0.7841  0.4991
  173SOPE  H18X19701   3.813   6.015   8.528  0.9386 -1.0638  0.1162
  173SOPE  H18Y19702   3.735   6.065   8.677 -1.8903 -0.0361 -0.5446
  173SOPE  H18Z19703   3.781   5.888   8.645  2.6674 -0.2530  0.0224
  174SOPE     N19704   6.393   1.648  10.782  0.1884  0.0823  0.5445
  174SOPE   HN119705   6.409   1.750  10.793 -0.5620  0.3494 -0.6752
  174SOPE   HN219706   6.295   1.623  10.761  0.2446 -0.5908  1.0447
  174SOPE   HN319707   6.408   1.624  10.882  0.7919 -0.1269  0.4067
  174SOPE   C1219708   6.497   1.581  10.689 -0.4661  0.1297 -0.5251
  174SOPE  H12A19709   6.480   1.633  10.592  0.9153 -0.9629 -1.4073
  174SOPE  H12B19710   6.472   1.474  10.672  0.7551 -0.7559  2.6100
  174SOPE   C1119711   6.638   1.614  10.744  0.0445  1.0142  0.4771
  174SOPE  H11A19712   6.686   1.705  10.702  1.0801  0.0681 -0.4533
  174SOPE  H11B19713   6.701   1.536  10.697 -0.3872 -0.1744  1.7752
  174SOPE     P19714   6.732   1.504  10.968 -0.0767  0.0002  0.0291
  174SOPE   O1319715   6.689   1.488  11.112 -0.3609  0.9039 -0.1177
  174SOPE   O1419716   6.874   1.538  10.947 -0.6199 -0.4702  0.2241
  174SOPE   O1219717   6.631   1.601  10.890 -0.1582  0.4943  0.1008
  174SOPE   O1119718   6.706   1.369  10.895 -0.4213  0.2388  0.2016
  174SOPE    C119719   6.573   1.313  10.884  0.0833 -0.4003 -0.3239
  174SOPE    HA19720   6.493   1.387  10.862 -0.2000 -0.8007 -0.6531
  174SOPE    HB19721   6.549   1.252  10.973 -1.5055 -1.4485 -1.4244
  174SOPE    C219722   6.573   1.208  10.771  0.4099 -0.0108  0.9423
  174SOPE    HS19723   6.653   1.135  10.798  1.6666  1.6869  1.9858
  174SOPE   O2119724   6.601   1.269  10.652  0.6773 -0.6664  1.4356
  174SOPE   C2119725   6.722   1.264  10.602  0.3539 -0.2601 -0.7726
  174SOPE   O2219726   6.820   1.222  10.665 -0.9570 -0.5145  0.6602
  174SOPE   C2219727   6.718   1.338  10.474  0.5235  0.2685  0.3559
  174SOPE   H2R19728   6.722   1.445  10.502  3.5464 -0.1319  1.8559
  174SOPE   H2S19729   6.625   1.323  10.415  0.6963  2.2727 -0.4960
  174SOPE    C319730   6.442   1.123  10.777  0.8847 -0.2855  0.6269
  174SOPE    HX19731   6.358   1.195  10.788  0.8433  0.1058 -1.7755
  174SOPE    HY19732   6.450   1.062  10.869 -0.1972  1.2136  1.7793
  174SOPE   O3119733   6.417   1.047  10.659 -0.3099 -0.2946  0.4839
  174SOPE   C3119734   6.399   0.918  10.671 -0.5194 -0.3216 -0.2838
  174SOPE   O3219735   6.411   0.848  10.773 -0.1022 -0.4312 -0.1995
  174SOPE   C3219736   6.365   0.862  10.531  0.0886  0.3957  0.3055
  174SOPE   H2X19737   6.282   0.929  10.500  0.2582  1.2944  1.6905
  174SOPE   H2Y19738   6.328   0.759  10.551 -0.2760 -0.2596 -3.1993
  174SOPE   C2319739   6.841   1.313  10.387 -0.3431  0.2957  0.3562
  174SOPE   H3R19740   6.922   1.278  10.455 -1.2141  0.2285  1.3779
  174SOPE   H3S19741   6.876   1.404  10.335 -1.1703  1.4636  1.7739
  174SOPE   C2419742   6.814   1.218  10.267 -0.1586  0.0895  0.3284
  174SOPE   H4R19743   6.798   1.112  10.297 -0.4984  0.1706  0.4449
  174SOPE   H4S19744   6.729   1.253  10.204  1.4237  0.6376 -1.5678
  174SOPE   C2519745   6.936   1.207  10.171 -0.4835 -0.0880 -0.2930
  174SOPE   H5R19746   6.938   1.304  10.116 -0.6450 -0.2415 -0.5690
  174SOPE   H5S19747   7.034   1.184  10.219  1.4499 -0.6526 -4.1730
  174SOPE   C2619748   6.917   1.095  10.070 -0.0327 -0.0408  0.6875
  174SOPE   H6R19749   6.906   0.996  10.121  0.5882 -0.4875 -0.0243
  174SOPE   H6S19750   6.821   1.100  10.014  0.0130  1.0851  0.6999
  174SOPE   C2719751   7.028   1.109   9.960 -0.5485 -0.5626 -0.5103
  174SOPE   H7R19752   7.124   1.113  10.014 -0.5168 -4.1042 -0.0448
  174SOPE   H7S19753   7.029   1.009   9.911 -3.0210 -0.9423  0.0745
  174SOPE   C2819754   7.012   1.225   9.861 -0.0389  0.2300  0.2297
  174SOPE   H8R19755   6.905   1.228   9.830 -0.3321  3.1374  1.2235
  174SOPE   H8S19756   7.036   1.318   9.917  0.2318  0.5771 -0.4501
  174SOPE   C2919757   7.104   1.196   9.749 -0.4189  0.1165  0.0324
  174SOPE   H9119758   7.205   1.169   9.782 -0.8766 -1.1461  0.4363
  174SOPE  C21019759   7.071   1.222   9.619 -0.0733 -0.3190 -0.4620
  174SOPE  H10119760   7.150   1.201   9.544 -0.0969  0.4266 -0.6989
  174SOPE  C21119761   6.938   1.270   9.565 -0.1091  0.6300  0.1242
  174SOPE  H11R19762   6.932   1.381   9.556 -0.0038  0.7030  0.8304
  174SOPE  H11S19763   6.845   1.242   9.618 -1.1274  2.0348 -0.8595
  174SOPE  C21219764   6.906   1.205   9.425  0.2167  0.7080 -0.0138
  174SOPE  H12R19765   6.805   1.235   9.390 -1.0822 -0.3267  2.5600
  174SOPE  H12S19766   6.883   1.100   9.454  2.2473  0.3777  0.5727
  174SOPE  C21319767   7.010   1.206   9.311  0.3884  0.2215 -0.1902
  174SOPE  H13R19768   7.103   1.170   9.360 -0.2397  1.5133  2.1296
  174SOPE  H13S19769   7.008   1.316   9.291 -1.5869  0.5658  1.5737
  174SOPE  C21419770   6.979   1.106   9.187  0.1593 -0.1070 -0.5689
  174SOPE  H14R19771   6.882   1.141   9.145 -0.3123 -1.9087 -1.0740
  174SOPE  H14S19772   6.968   1.005   9.233 -0.3809  0.1729 -0.0668
  174SOPE  C21519773   7.091   1.098   9.087  0.3844 -0.6416 -0.0198
  174SOPE  H15R19774   7.185   1.083   9.145  1.0063  2.9638  0.1410
  174SOPE  H15S19775   7.097   1.203   9.051 -1.0936 -0.0457  1.3331
  174SOPE  C21619776   7.064   1.011   8.965 -0.4922 -0.3348  0.0932
  174SOPE  H16R19777   7.128   1.043   8.880 -1.2172  0.1816 -0.2786
  174SOPE  H16S19778   6.957   1.021   8.936 -1.0141  1.6903  2.3468
  174SOPE  C21719779   7.092   0.868   8.999  0.0141  0.3271 -0.0671
  174SOPE  H17R19780   7.022   0.832   9.078 -0.3343  2.9966  0.9483
  174SOPE  H17S19781   7.196   0.851   9.036  0.2263  0.4221 -0.6193
  174SOPE  C21819782   7.073   0.782   8.875  0.1513 -0.1064 -0.0755
  174SOPE  H18R19783   6.963   0.783   8.866 -0.0672 -2.2993  1.5485
  174SOPE  H18S19784   7.126   0.684   8.886  2.4415  0.8008 -2.0228
  174SOPE  H18T19785   7.125   0.828   8.788 -0.1319  3.0388  1.3088
  174SOPE   C3319786   6.476   0.874  10.427 -0.1496 -0.4342  0.2165
  174SOPE   H3X19787   6.547   0.789  10.426  2.4989  1.6302 -0.0639
  174SOPE   H3Y19788   6.532   0.970  10.436  0.3059 -0.7272  0.6089
  174SOPE   C3419789   6.394   0.889  10.298  0.0055  0.1465  0.0844
  174SOPE   H4X19790   6.336   0.984  10.295 -1.1956 -0.5953 -1.8951
  174SOPE   H4Y19791   6.320   0.806  10.290  1.5830 -1.3345  0.3229
  174SOPE   C3519792   6.479   0.880  10.170 -0.6996 -0.2678 -1.0764
  174SOPE   H5X19793   6.508   0.776  10.146  0.7286  0.2832 -1.8202
  174SOPE   H5Y19794   6.572   0.938  10.182 -1.0243 -0.2764  2.1876
  174SOPE   C3619795   6.400   0.935  10.054  0.5520  0.0015 -0.5544
  174SOPE   H6X19796   6.344   1.026  10.085 -2.0586 -2.1492  1.5344
  174SOPE   H6Y19797   6.313   0.867  10.054  0.0835  0.5489 -2.6045
  174SOPE   C3719798   6.474   0.939   9.923  0.1127  0.0564 -0.4020
  174SOPE   H7X19799   6.394   0.923   9.848  1.5940 -0.9173 -1.8554
  174SOPE   H7Y19800   6.546   0.856   9.906  0.6051  0.5952 -1.0301
  174SOPE   C3819801   6.546   1.075   9.892  0.2282  0.5245  0.3599
  174SOPE   H8X19802   6.627   1.079   9.968  1.1691  2.2523 -0.6892
  174SOPE   H8Y19803   6.478   1.160   9.916  0.7798  1.6787 -1.9269
  174SOPE   C3919804   6.606   1.082   9.751  0.0042  0.1390  0.1933
  174SOPE   H9X19805   6.681   1.002   9.733  0.3138  0.6137 -0.6975
  174SOPE   H9Y19806   6.670   1.172   9.741  2.0162 -1.1191  1.1518
  174SOPE  C31019807   6.501   1.067   9.640  0.7193 -0.2493 -0.1328
  174SOPE  H10X19808   6.421   1.140   9.665  2.0102  0.5023  2.0033
  174SOPE  H10Y19809   6.454   0.969   9.620 -0.2005  0.1087  0.1846
  174SOPE  C31119810   6.575   1.109   9.514  0.2638 -0.6149 -0.0244
  174SOPE  H11X19811   6.644   1.024   9.494  0.2945 -0.8200  0.8924
  174SOPE  H11Y19812   6.634   1.203   9.526  0.5661 -0.7801 -0.1853
  174SOPE  C31219813   6.489   1.111   9.386  0.4789  0.0985  0.3508
  174SOPE  H12X19814   6.417   1.195   9.398  1.3516  0.5892  2.7526
  174SOPE  H12Y19815   6.427   1.018   9.385 -1.3921  1.2856 -1.2697
  174SOPE  C31319816   6.575   1.119   9.254 -0.2523 -0.1756 -0.0877
  174SOPE  H13X19817   6.632   1.025   9.244 -1.3473 -0.7547 -1.1793
  174SOPE  H13Y19818   6.639   1.210   9.262  1.5638 -1.3870 -0.4144
  174SOPE  C31419819   6.494   1.119   9.124  0.5653 -0.5479 -0.2050
  174SOPE  H14X19820   6.445   1.218   9.116  0.4928 -0.6635 -1.5356
  174SOPE  H14Y19821   6.418   1.038   9.131 -1.3479  1.2888  1.9509
  174SOPE  C31519822   6.600   1.095   9.016 -0.3797  0.9210 -0.7207
  174SOPE  H15X19823   6.661   1.004   9.037 -1.5955 -0.5765 -3.2266
  174SOPE  H15Y19824   6.665   1.184   9.018 -1.7905  2.0640 -2.5806
  174SOPE  C31619825   6.549   1.091   8.872  0.0708  0.5068  0.2411
  174SOPE  H16X19826   6.592   1.173   8.811  0.6443 -1.8294 -2.7062
  174SOPE  H16Y19827   6.440   1.114   8.871  0.0984  0.6315  0.1132
  174SOPE  C31719828   6.581   0.956   8.805  0.0447 -0.5402  0.4764
  174SOPE  H17X19829   6.678   0.916   8.841  0.2556 -2.8783 -2.2964
  174SOPE  H17Y19830   6.606   0.972   8.698  1.0653  2.1988  1.0338
  174SOPE  C31819831   6.466   0.857   8.842 -0.2251  0.0537  0.3683
  174SOPE  H18X19832   6.492   0.761   8.794  0.6455  0.4644  0.0158
  174SOPE  H18Y19833   6.370   0.909   8.819 -0.2759 -0.3773 -0.4077
  174SOPE  H18Z19834   6.483   0.836   8.950  1.1895 -0.6557  0.0256
  175SOPE     N19835   6.684   6.451  10.817 -0.1059  0.5965 -0.6254
  175SOPE   HN119836   6.756   6.523  10.838 -0.5008  0.4329  1.5887
  175SOPE   HN219837   6.595   6.476  10.864 -0.3879  0.7693 -1.2493
  175SOPE   HN319838   6.719   6.357  10.847  0.6496 -0.1287 -3.4579
  175SOPE   C1219839   6.648   6.450  10.672 -0.1606 -0.2308  0.5678
  175SOPE  H12A19840   6.569   6.527  10.653 -2.9309 -2.3257  2.6651
  175SOPE  H12B19841   6.581   6.363  10.658 -2.2401  1.1599  1.3435
  175SOPE   C1119842   6.766   6.456  10.576 -0.1732 -0.3923 -0.5748
  175SOPE  H11A19843   6.821   6.551  10.595 -2.0571  0.4045  1.2924
  175SOPE  H11B19844   6.742   6.467  10.468 -0.5915  1.3676 -0.3460
  175SOPE     P19845   6.852   6.214  10.519 -0.0804  0.4729 -0.0146
  175SOPE   O1319846   6.720   6.157  10.544 -0.3326 -0.7300  0.2085
  175SOPE   O1419847   6.963   6.130  10.564  0.0198 -0.0636 -0.5596
  175SOPE   O1219848   6.861   6.348  10.601  0.2581  0.2622  0.0495
  175SOPE   O1119849   6.872   6.271  10.373  0.0232  0.4749  0.0571
  175SOPE    C119850   7.003   6.308  10.330  0.2051  0.0328  0.1029
  175SOPE    HA19851   7.000   6.296  10.220 -2.6578 -0.7774  0.2084
  175SOPE    HB19852   7.090   6.263  10.383 -0.0148  0.3059  0.7121
  175SOPE    C219853   7.034   6.458  10.349  0.6623 -0.2312  0.1938
  175SOPE    HS19854   7.039   6.469  10.459 -0.1775  1.0573  0.1231
  175SOPE   O2119855   6.923   6.526  10.290 -0.2526 -0.3756 -0.6735
  175SOPE   C2119856   6.925   6.651  10.285 -0.3045 -1.1661 -0.2222
  175SOPE   O2219857   6.985   6.732  10.354  0.2697  0.0574  0.1051
  175SOPE   C2219858   6.831   6.691  10.183  0.1249 -0.0147 -0.0924
  175SOPE   H2R19859   6.731   6.654  10.216  1.3967 -1.1341  2.8038
  175SOPE   H2S19860   6.856   6.636  10.090 -1.3970 -2.3042  0.7822
  175SOPE    C319861   7.175   6.485  10.295  0.3226 -0.1903 -0.3244
  175SOPE    HX19862   7.247   6.430  10.359  0.1035  0.5783  0.6222
  175SOPE    HY19863   7.189   6.592  10.319 -0.9236 -0.0842  0.0311
  175SOPE   O3119864   7.185   6.452  10.156  0.0310  0.4515 -0.0656
  175SOPE   C3119865   7.221   6.548  10.075 -0.5333  0.1700 -0.1925
  175SOPE   O3219866   7.240   6.666  10.103 -0.1878 -0.3902  0.3390
  175SOPE   C3219867   7.240   6.488   9.939 -0.1464  0.1952  0.4393
  175SOPE   H2X19868   7.259   6.381   9.960 -1.3769 -0.0552  0.3296
  175SOPE   H2Y19869   7.328   6.536   9.891 -1.2914 -0.6329 -2.7579
  175SOPE   C2319870   6.820   6.849  10.174  0.5262 -0.0619  0.5466
  175SOPE   H3R19871   6.917   6.898  10.153  0.6244 -0.8978 -1.1576
  175SOPE   H3S19872   6.804   6.895  10.274 -0.9983  0.4060  0.1233
  175SOPE   C2419873   6.725   6.892  10.059 -0.0572 -0.6889 -0.3003
  175SOPE   H4R19874   6.622   6.854  10.072  0.4503 -1.5196  1.6438
  175SOPE   H4S19875   6.724   7.003  10.066  0.2565 -0.7550  0.9755
  175SOPE   C2519876   6.773   6.867   9.915 -0.1326 -0.3293 -0.2664
  175SOPE   H5R19877   6.881   6.891   9.910 -0.0953 -0.5711 -0.6047
  175SOPE   H5S19878   6.759   6.764   9.876 -1.4302 -0.1232 -0.4103
  175SOPE   C2619879   6.706   6.966   9.812 -0.5264  0.2015  0.1654
  175SOPE   H6R19880   6.597   6.958   9.832 -0.2481 -3.5577  1.0363
  175SOPE   H6S19881   6.737   7.067   9.844 -0.2929 -0.3911  1.9074
  175SOPE   C2719882   6.737   6.939   9.661 -0.3282  0.2843 -0.0452
  175SOPE   H7R19883   6.846   6.953   9.641  0.4402 -0.7682  2.8593
  175SOPE   H7S19884   6.705   6.838   9.626  0.7370  0.1064 -0.5639
  175SOPE   C2819885   6.655   7.028   9.565  0.2203  0.1488 -0.3356
  175SOPE   H8R19886   6.550   7.012   9.596  0.2701 -0.3982 -0.4409
  175SOPE   H8S19887   6.691   7.132   9.587 -0.6627  0.2643  0.6485
  175SOPE   C2919888   6.688   7.000   9.420 -0.8385  1.0096  1.2282
  175SOPE   H9119889   6.795   7.011   9.398 -0.3242 -1.8597  1.9061
  175SOPE  C21019890   6.602   7.014   9.321  0.2939  0.6810  0.3072
  175SOPE  H10119891   6.639   6.995   9.219  0.5318 -1.3915  0.7339
  175SOPE  C21119892   6.451   7.046   9.323  0.9009  0.4220 -0.3265
  175SOPE  H11R19893   6.425   7.089   9.422  3.2227  0.9772  0.0964
  175SOPE  H11S19894   6.394   6.951   9.319 -1.1841  1.2087  4.3080
  175SOPE  C21219895   6.410   7.144   9.205  0.4395  0.2319 -0.5782
  175SOPE  H12R19896   6.479   7.232   9.206 -0.9485  1.4107  1.8479
  175SOPE  H12S19897   6.311   7.180   9.239  0.3261 -1.5346  1.1732
  175SOPE  C21319898   6.414   7.077   9.072  0.1368  0.1093  0.4835
  175SOPE  H13R19899   6.342   6.992   9.064 -0.3071  0.5994 -0.9591
  175SOPE  H13S19900   6.516   7.038   9.051  0.1144 -0.1828  0.9146
  175SOPE  C21419901   6.363   7.162   8.953  0.0804  0.0934  0.2453
  175SOPE  H14R19902   6.405   7.262   8.980 -1.8800  0.7120  1.1730
  175SOPE  H14S19903   6.254   7.177   8.964  0.2409  2.9334 -1.1634
  175SOPE  C21519904   6.388   7.123   8.810  0.1766 -0.8354 -0.2880
  175SOPE  H15R19905   6.352   7.019   8.793 -1.3498 -0.0957 -1.9136
  175SOPE  H15S19906   6.495   7.127   8.782  0.4294  1.2748  0.8290
  175SOPE  C21619907   6.308   7.202   8.705 -0.0493 -0.5080 -0.3244
  175SOPE  H16R19908   6.277   7.299   8.751  0.0205 -0.7318  0.1984
  175SOPE  H16S19909   6.207   7.158   8.688 -0.8053  0.1936  1.8743
  175SOPE  C21719910   6.369   7.241   8.576 -1.4709 -0.3819 -0.3452
  175SOPE  H17R19911   6.388   7.142   8.528 -0.9784 -0.5098  0.1033
  175SOPE  H17S19912   6.459   7.303   8.595 -0.4341 -1.5638 -1.2227
  175SOPE  C21819913   6.272   7.327   8.488 -0.7864  0.4231  0.0146
  175SOPE  H18R19914   6.190   7.273   8.437  0.2175 -0.7803 -0.3875
  175SOPE  H18S19915   6.332   7.368   8.404 -2.7858  0.9514 -1.2209
  175SOPE  H18T19916   6.224   7.413   8.539 -0.9631  0.9579 -1.0228
  175SOPE   C3319917   7.121   6.509   9.846  0.0277 -0.6455 -0.2262
  175SOPE   H3X19918   7.031   6.475   9.903  0.7328 -0.4528  1.0372
  175SOPE   H3Y19919   7.124   6.446   9.755 -0.0098  0.3050 -0.9022
  175SOPE   C3419920   7.094   6.655   9.812  0.3710 -0.1522  0.2921
  175SOPE   H4X19921   7.122   6.718   9.899  0.9019  1.8602 -1.2576
  175SOPE   H4Y19922   6.986   6.666   9.787 -0.1784 -3.3910  0.7789
  175SOPE   C3519923   7.168   6.709   9.696 -0.4005  0.4056  0.6468
  175SOPE   H5X19924   7.269   6.663   9.704 -0.7449 -0.4907 -0.0227
  175SOPE   H5Y19925   7.183   6.819   9.692  2.4460  0.0539 -1.8439
  175SOPE   C3619926   7.099   6.662   9.567  0.0875 -0.1064 -0.4680
  175SOPE   H6X19927   7.006   6.722   9.559  0.4393  0.9406  2.2492
  175SOPE   H6Y19928   7.070   6.555   9.574  0.1954 -0.0583  1.0283
  175SOPE   C3719929   7.162   6.701   9.429  0.1103 -0.3007  0.3976
  175SOPE   H7X19930   7.251   6.636   9.419  0.4147  0.0969  0.4907
  175SOPE   H7Y19931   7.190   6.808   9.439 -1.7961  0.1500  1.4003
  175SOPE   C3819932   7.071   6.681   9.305  0.1700  0.8729  0.0754
  175SOPE   H8X19933   7.086   6.771   9.241  1.6383  0.0955 -0.7339
  175SOPE   H8Y19934   6.968   6.689   9.345 -0.0505 -1.7228  0.1701
  175SOPE   C3919935   7.077   6.549   9.224 -0.4940 -0.5156 -0.3905
  175SOPE   H9X19936   7.046   6.471   9.297 -2.2327 -0.8203 -1.3994
  175SOPE   H9Y19937   7.182   6.527   9.197 -0.7927 -1.9305 -0.4700
  175SOPE  C31019938   6.998   6.553   9.098  0.3110 -0.4146  0.3783
  175SOPE  H10X19939   7.051   6.629   9.037 -0.7620  0.3170  0.3118
  175SOPE  H10Y19940   6.899   6.603   9.111  1.2887  1.4624  1.0630
  175SOPE  C31119941   6.990   6.422   9.013 -0.4813  0.7519 -0.3580
  175SOPE  H11X19942   6.947   6.337   9.070  2.3512 -1.7997 -1.7993
  175SOPE  H11Y19943   7.093   6.397   8.982 -0.4506  1.0702 -0.5259
  175SOPE  C31219944   6.903   6.431   8.880 -0.5314  0.0762  0.5430
  175SOPE  H12X19945   6.953   6.489   8.800 -0.2366 -2.8407 -1.5762
  175SOPE  H12Y19946   6.810   6.485   8.907 -1.0032 -0.2899 -0.3086
  175SOPE  C31319947   6.876   6.290   8.822  0.1228 -0.0972  0.1251
  175SOPE  H13X19948   6.839   6.232   8.909 -0.9274  1.2015  0.5694
  175SOPE  H13Y19949   6.975   6.248   8.790 -0.7397  0.2105 -3.4222
  175SOPE  C31419950   6.785   6.278   8.710  0.8587 -0.1767 -0.1086
  175SOPE  H14X19951   6.828   6.318   8.616  0.0228  1.1447  0.0410
  175SOPE  H14Y19952   6.694   6.331   8.745  1.2352  0.3043  0.1570
  175SOPE  C31519953   6.741   6.134   8.679  0.2707  1.2003  0.4226
  175SOPE  H15X19954   6.656   6.117   8.609 -1.0162  1.0534  1.9616
  175SOPE  H15Y19955   6.722   6.089   8.779 -0.9234  1.1667  0.2012
  175SOPE  C31619956   6.857   6.052   8.628  0.2024 -0.0438  0.3725
  175SOPE  H16X19957   6.934   6.047   8.708  1.2471 -2.0970 -0.6782
  175SOPE  H16Y19958   6.914   6.099   8.544 -0.5485 -3.0877 -2.0021
  175SOPE  C31719959   6.820   5.908   8.597 -0.1852  0.5595  0.0838
  175SOPE  H17X19960   6.766   5.913   8.501 -2.1784  0.6806  1.1526
  175SOPE  H17Y19961   6.744   5.863   8.664  0.6896 -1.0073  0.0782
  175SOPE  C31819962   6.941   5.809   8.588  0.4697 -0.0380 -0.2369
  175SOPE  H18X19963   7.004   5.846   8.504  0.9463 -3.1209 -1.3489
  175SOPE  H18Y19964   6.893   5.709   8.582 -3.1333  1.4479  1.0603
  175SOPE  H18Z19965   7.001   5.803   8.681  1.2890  1.0183 -0.6722
  176SOPE     N19966   4.952   1.457  10.661 -0.4351 -0.6714  0.7496
  176SOPE   HN119967   5.048   1.441  10.697  0.5309  1.4372 -0.7118
  176SOPE   HN219968   4.949   1.561  10.670 -0.7575 -0.8152  2.7163
  176SOPE   HN319969   4.888   1.425  10.737  0.7865  0.7106  2.4424
  176SOPE   C1219970   4.925   1.393  10.534  0.0661  0.6801  0.4345
  176SOPE  H12A19971   4.995   1.430  10.456  0.8367 -1.7233 -0.1043
  176SOPE  H12B19972   4.826   1.424  10.495 -0.2721 -0.2555  0.5451
  176SOPE   C1119973   4.952   1.242  10.540 -0.0336  0.3582 -0.4901
  176SOPE  H11A19974   4.949   1.197  10.439  1.5459 -3.5329  0.9688
  176SOPE  H11B19975   4.875   1.192  10.604 -1.0294  1.2385 -0.9842
  176SOPE     P19976   5.149   1.101  10.648  0.0053 -0.3333  0.3368
  176SOPE   O1319977   5.071   1.069  10.770 -0.6095 -0.5868 -0.5470
  176SOPE   O1419978   5.292   1.121  10.665 -0.5529 -0.7035 -0.5579
  176SOPE   O1219979   5.084   1.224  10.585  0.0718 -0.1164  0.0918
  176SOPE   O1119980   5.116   0.997  10.541  0.5441 -0.2297 -0.3403
  176SOPE    C119981   5.149   1.002  10.403  0.4758  0.8223 -0.2786
  176SOPE    HA19982   5.153   1.104  10.360  0.3923  1.6158  1.5062
  176SOPE    HB19983   5.079   0.939  10.343 -0.1822  0.9032  0.3901
  176SOPE    C219984   5.284   0.944  10.376  0.4812  1.2120  0.3649
  176SOPE    HS19985   5.358   1.006  10.431  0.3546 -0.1905  2.2117
  176SOPE   O2119986   5.302   0.954  10.232  0.2170  0.2335 -0.5353
  176SOPE   C2119987   5.426   0.945  10.184  0.1747  0.7039 -0.4633
  176SOPE   O2219988   5.525   0.918  10.257  0.2694  0.2685  0.0842
  176SOPE   C2219989   5.423   0.988  10.037 -0.2197  0.1676 -0.0654
  176SOPE   H2R19990   5.455   1.093  10.019 -0.9100  0.5086  0.6911
  176SOPE   H2S19991   5.323   0.970   9.993 -0.3378 -0.2516  0.3780
  176SOPE    C319992   5.287   0.802  10.436 -0.3125  0.5848  0.4534
  176SOPE    HX19993   5.282   0.818  10.546  0.8358 -2.7343  1.1060
  176SOPE    HY19994   5.386   0.755  10.418 -0.0140  1.9615 -1.9401
  176SOPE   O3119995   5.166   0.724  10.410  0.1995  0.0654 -0.0866
  176SOPE   C3119996   5.165   0.666  10.285  0.1042 -0.3808 -0.5152
  176SOPE   O3219997   5.252   0.672  10.201  0.5223  0.0205 -0.4049
  176SOPE   C3219998   5.036   0.584  10.261  0.0167  0.4420 -0.3736
  176SOPE   H2X19999   4.969   0.603  10.347 -0.0509 -2.5057  0.3125
  176SOPE   H2Y20000   5.051   0.475  10.276 -1.1176  0.4093  0.6402
  176SOPE   C2320001   5.524   0.896   9.958 -0.3958  0.4807 -0.7140
  176SOPE   H3R20002   5.506   0.790   9.984  2.0854 -0.2856 -1.7807
  176SOPE   H3S20003   5.626   0.925   9.992  0.9083 -2.0648 -2.1473
  176SOPE   C2420004   5.523   0.927   9.802 -0.4709  0.3686 -0.0925
  176SOPE   H4R20005   5.414   0.926   9.780 -0.9966 -0.2156  2.2252
  176SOPE   H4S20006   5.570   1.026   9.785 -0.1232 -0.0948 -2.0790
  176SOPE   C2520007   5.597   0.818   9.720 -0.4839 -0.0483 -0.5674
  176SOPE   H5R20008   5.705   0.834   9.739 -0.8516  2.0917 -0.0541
  176SOPE   H5S20009   5.568   0.718   9.759  0.8833 -0.7744 -1.3429
  176SOPE   C2620010   5.580   0.829   9.569  0.5658  0.4370  0.6978
  176SOPE   H6R20011   5.602   0.729   9.525 -1.6448 -0.8709  2.3471
  176SOPE   H6S20012   5.473   0.852   9.547  0.3180 -1.7796 -0.7211
  176SOPE   C2720013   5.672   0.928   9.497 -0.6489 -0.2787 -0.5859
  176SOPE   H7R20014   5.652   1.031   9.535 -1.4923 -0.4730 -0.4819
  176SOPE   H7S20015   5.775   0.903   9.532 -1.3205 -1.1034  0.8805
  176SOPE   C2820016   5.676   0.924   9.342 -0.0298  0.0812 -0.5683
  176SOPE   H8R20017   5.769   0.973   9.305  1.0885 -1.9558 -0.5893
  176SOPE   H8S20018   5.696   0.819   9.312 -0.2153 -0.1255  0.0209
  176SOPE   C2920019   5.565   0.996   9.277  0.2132  0.4477 -0.4830
  176SOPE   H9120020   5.522   1.085   9.326 -1.0895  0.3970 -1.4674
  176SOPE  C21020021   5.513   0.975   9.156 -0.3149 -0.0357 -0.0640
  176SOPE  H10120022   5.423   1.034   9.131 -0.3556 -0.5066 -1.0708
  176SOPE  C21120023   5.544   0.865   9.051  0.8866  0.3372 -0.2430
  176SOPE  H11R20024   5.455   0.799   9.053  2.5595 -2.0460  0.6395
  176SOPE  H11S20025   5.626   0.801   9.091 -0.6465 -0.2972  2.1006
  176SOPE  C21220026   5.574   0.891   8.895  0.1621 -0.1755 -0.0828
  176SOPE  H12R20027   5.671   0.943   8.885 -0.1771  0.8067  1.3535
  176SOPE  H12S20028   5.502   0.959   8.844  1.4963  2.9292  1.8715
  176SOPE  C21320029   5.579   0.763   8.815  0.2753 -0.0145 -0.3773
  176SOPE  H13R20030   5.488   0.699   8.824  0.6058 -0.5077 -0.4588
  176SOPE  H13S20031   5.665   0.704   8.853  0.1699  0.1301  0.0860
  176SOPE  C21420032   5.604   0.808   8.668  0.0289  0.7627 -0.0985
  176SOPE  H14R20033   5.704   0.856   8.661  0.5586  0.4623  3.3841
  176SOPE  H14S20034   5.527   0.886   8.649 -0.1460  0.6806  0.2630
  176SOPE  C21520035   5.604   0.691   8.565 -0.3115  0.1157  0.2721
  176SOPE  H15R20036   5.597   0.741   8.466  0.9093 -0.2004  0.0017
  176SOPE  H15S20037   5.515   0.627   8.580 -0.9099  1.0803  0.9483
  176SOPE  C21620038   5.729   0.592   8.585 -0.8693  0.1092  0.8882
  176SOPE  H16R20039   5.720   0.556   8.690  1.3414 -0.0450  1.0567
  176SOPE  H16S20040   5.816   0.660   8.579 -0.5141 -0.4677 -2.5462
  176SOPE  C21720041   5.743   0.476   8.489 -0.3648 -0.3865 -0.4462
  176SOPE  H17R20042   5.833   0.414   8.505  0.4032  0.2412 -2.1158
  176SOPE  H17S20043   5.753   0.510   8.383  0.8661 -0.1262 -0.2620
  176SOPE  C21820044   5.623   0.375   8.494 -0.5169 -0.1728 -0.0490
  176SOPE  H18R20045   5.530   0.412   8.446 -1.9528 -1.3048  1.7186
  176SOPE  H18S20046   5.595   0.354   8.599 -2.2943 -0.0958 -0.4814
  176SOPE  H18T20047   5.645   0.276   8.448  0.2269  0.4748 -1.1593
  176SOPE   C3320048   4.979   0.609  10.119 -0.2355  0.4224  0.4562
  176SOPE   H3X20049   4.891   0.544  10.101 -3.0377  3.9830  0.0008
  176SOPE   H3Y20050   5.059   0.588  10.045 -0.9688  2.1884 -0.9258
  176SOPE   C3420051   4.923   0.760  10.108 -0.6040  0.4420  0.2675
  176SOPE   H4X20052   5.000   0.839  10.116 -1.4540  1.4325 -0.9234
  176SOPE   H4Y20053   4.852   0.773  10.193 -0.9330 -0.9993  0.2422
  176SOPE   C3520054   4.850   0.796   9.972  0.0866  0.6034 -0.6017
  176SOPE   H5X20055   4.804   0.896   9.981 -0.0852  0.5068 -0.3848
  176SOPE   H5Y20056   4.769   0.720   9.959  0.2444  0.5181 -1.1074
  176SOPE   C3620057   4.938   0.778   9.839  0.4471  0.3572 -0.2073
  176SOPE   H6X20058   4.983   0.677   9.846 -0.0666 -0.0109 -1.7048
  176SOPE   H6Y20059   5.026   0.846   9.843 -0.3873  1.5186 -0.6880
  176SOPE   C3720060   4.864   0.795   9.712 -0.2174  0.0591  0.0452
  176SOPE   H7X20061   4.860   0.905   9.697  0.1490  0.0913  0.1899
  176SOPE   H7Y20062   4.760   0.756   9.715 -1.0097  2.0455 -0.0580
  176SOPE   C3820063   4.945   0.732   9.595 -0.8378  0.3665  0.4297
  176SOPE   H8X20064   4.969   0.629   9.630  2.3154  0.2795 -1.6127
  176SOPE   H8Y20065   5.042   0.784   9.585 -0.2306 -0.5015  1.5243
  176SOPE   C3920066   4.879   0.726   9.457  0.8160 -0.6247  0.1934
  176SOPE   H9X20067   4.818   0.817   9.437  1.7265  0.1447  0.7806
  176SOPE   H9Y20068   4.813   0.638   9.450  0.7193 -0.7734  2.2706
  176SOPE  C31020069   4.988   0.697   9.344  0.3612 -0.1006 -0.8227
  176SOPE  H10X20070   5.009   0.588   9.347 -1.9563 -0.6055 -0.7122
  176SOPE  H10Y20071   5.077   0.762   9.360  0.5252 -0.5632  0.2930
  176SOPE  C31120072   4.951   0.709   9.201  0.0287  0.5060  0.1033
  176SOPE  H11X20073   4.930   0.816   9.180 -1.1328  0.3616  0.4617
  176SOPE  H11Y20074   4.857   0.651   9.202  0.9819 -1.0866  0.8124
  176SOPE  C31220075   5.057   0.659   9.105  0.6913  1.1748  0.0274
  176SOPE  H12X20076   5.081   0.552   9.127  0.2456  0.5932 -2.0517
  176SOPE  H12Y20077   5.155   0.709   9.122  1.8574  0.9742 -4.7323
  176SOPE  C31320078   5.005   0.648   8.956 -0.2292  0.1350 -0.2645
  176SOPE  H13X20079   5.000   0.750   8.914  0.4398 -0.0546 -0.8232
  176SOPE  H13Y20080   4.906   0.597   8.955 -0.5379  0.7120  0.2141
  176SOPE  C31420081   5.099   0.564   8.869 -0.2095 -0.0096  0.0617
  176SOPE  H14X20082   5.101   0.464   8.919  2.0870 -0.1524 -0.1942
  176SOPE  H14Y20083   5.203   0.599   8.879 -0.3256 -0.0775  1.8057
  176SOPE  C31520084   5.062   0.556   8.716 -0.1430  0.2840 -0.3220
  176SOPE  H15X20085   5.058   0.654   8.665 -0.9604  0.2667 -0.3031
  176SOPE  H15Y20086   4.968   0.497   8.706  0.2854 -0.4815  0.0371
  176SOPE  C31620087   5.163   0.485   8.625 -0.5401  0.3745 -0.6974
  176SOPE  H16X20088   5.254   0.548   8.635  0.7089 -1.3697 -0.5800
  176SOPE  H16Y20089   5.130   0.487   8.519 -1.1474 -1.7658 -0.5940
  176SOPE  C31720090   5.186   0.338   8.660 -0.1603 -0.0813  0.0262
  176SOPE  H17X20091   5.227   0.342   8.764 -0.9461  0.2544  0.3317
  176SOPE  H17Y20092   5.269   0.301   8.596  0.7980  1.4146  0.3240
  176SOPE  C31820093   5.075   0.231   8.654  0.1514  0.4572  0.8812
  176SOPE  H18X20094   5.038   0.232   8.549  3.1400  0.0550 -0.2880
  176SOPE  H18Y20095   4.993   0.259   8.723 -2.0008  2.7621 -2.3415
  176SOPE  H18Z20096   5.106   0.127   8.676  0.4325  0.7440  1.9161
  177SOPE     N20097   4.742   5.747  10.983  0.2750  0.2338 -0.0595
  177SOPE   HN120098   4.691   5.657  10.990  1.6191 -0.4972  1.0746
  177SOPE   HN220099   4.700   5.808  10.911 -0.0131  0.7295  0.5153
  177SOPE   HN320100   4.841   5.728  10.956  1.0865  3.1647  0.4386
  177SOPE   C1220101   4.720   5.827  11.102  0.3423  0.1396 -0.0154
  177SOPE  H12A20102   4.710   5.933  11.070  1.4792  0.5214  0.8201
  177SOPE  H12B20103   4.808   5.821  11.170 -0.2246  0.5624  0.7693
  177SOPE   C1120104   4.600   5.770  11.167  0.0781 -0.3436 -0.3906
  177SOPE  H11A20105   4.592   5.826  11.262  0.9758 -0.3488 -0.3015
  177SOPE  H11B20106   4.622   5.668  11.205  1.3679  0.8400  2.2718
  177SOPE     P20107   4.378   5.684  11.062 -0.3698  0.3263 -0.3290
  177SOPE   O1320108   4.291   5.638  11.175 -0.1145  0.4396 -0.6247
  177SOPE   O1420109   4.467   5.575  11.014  0.1399 -0.4496 -0.1905
  177SOPE   O1220110   4.472   5.796  11.105  0.3874  0.2068 -0.3612
  177SOPE   O1120111   4.291   5.744  10.952  0.1497  0.0004 -0.1436
  177SOPE    C120112   4.330   5.842  10.864 -1.0642  0.9767 -0.0691
  177SOPE    HA20113   4.432   5.817  10.826 -0.9622 -0.9832  1.3308
  177SOPE    HB20114   4.339   5.945  10.906  2.0009  1.1285 -0.8744
  177SOPE    C220115   4.230   5.852  10.751  0.5189 -0.2432 -0.4727
  177SOPE    HS20116   4.131   5.879  10.794 -0.9021 -1.4881 -2.7246
  177SOPE   O2120117   4.216   5.724  10.685 -0.3039 -0.1951 -0.3285
  177SOPE   C2120118   4.101   5.693  10.649  0.7312  0.5437 -0.4041
  177SOPE   O2220119   3.997   5.755  10.665  0.1030  0.1764 -0.3139
  177SOPE   C2220120   4.112   5.555  10.570  0.4045 -0.1453  0.1560
  177SOPE   H2R20121   4.047   5.488  10.632  1.8219 -0.5830  1.2351
  177SOPE   H2S20122   4.209   5.501  10.571 -0.5689 -2.0036  0.1253
  177SOPE    C320123   4.268   5.961  10.639  0.2361  0.2179  0.0225
  177SOPE    HX20124   4.375   5.940  10.620 -0.4762 -1.6608 -2.5125
  177SOPE    HY20125   4.248   6.058  10.690 -1.1153  0.3367 -0.6661
  177SOPE   O3120126   4.199   5.946  10.503  0.0743 -0.7424 -0.0737
  177SOPE   C3120127   4.076   6.004  10.491  0.4417 -0.5984 -0.1562
  177SOPE   O3220128   4.023   6.076  10.570  0.5725  1.5040 -0.4680
  177SOPE   C3220129   4.023   5.973  10.354  0.2453 -0.1248  0.6281
  177SOPE   H2X20130   4.008   5.864  10.339 -1.0254 -0.1193  1.6571
  177SOPE   H2Y20131   4.089   6.008  10.271 -1.6805  1.3034 -0.3881
  177SOPE   C2320132   4.078   5.567  10.422 -0.5893  0.0634  0.2535
  177SOPE   H3R20133   3.985   5.626  10.409 -0.4864  0.0315 -0.6952
  177SOPE   H3S20134   4.059   5.461  10.393  2.4243 -0.2590 -0.8650
  177SOPE   C2420135   4.181   5.624  10.316  0.3531  1.1003 -0.1693
  177SOPE   H4R20136   4.214   5.727  10.342  1.6934  0.6207  0.1122
  177SOPE   H4S20137   4.275   5.565  10.321  1.4465  2.8586  1.3482
  177SOPE   C2520138   4.126   5.630  10.175  0.0602  0.0034 -0.5102
  177SOPE   H5R20139   4.102   5.527  10.141 -1.3927  0.6056 -1.4303
  177SOPE   H5S20140   4.027   5.680  10.187  0.5226  0.3135  3.0149
  177SOPE   C2620141   4.207   5.717  10.078 -0.0891 -0.0531  0.1933
  177SOPE   H6R20142   4.234   5.809  10.133  0.1256 -0.8618  1.4861
  177SOPE   H6S20143   4.298   5.654  10.073  0.5349  0.5338  2.7273
  177SOPE   C2720144   4.139   5.726   9.940  0.2050  0.2227  1.0796
  177SOPE   H7R20145   4.086   5.632   9.912  0.7522 -0.3473  1.8962
  177SOPE   H7S20146   4.075   5.815   9.955 -0.1340 -0.3747  3.6677
  177SOPE   C2820147   4.233   5.765   9.821 -0.2427  0.5706  0.2708
  177SOPE   H8R20148   4.167   5.796   9.737 -1.3367  1.7395  1.5246
  177SOPE   H8S20149   4.308   5.841   9.851  1.9297 -0.4261 -2.2547
  177SOPE   C2920150   4.322   5.645   9.779 -0.0292  0.0911  0.3363
  177SOPE   H9120151   4.349   5.584   9.866 -0.0850 -0.0893  0.2277
  177SOPE  C21020152   4.341   5.602   9.649  0.5335  0.3082  0.3124
  177SOPE  H10120153   4.395   5.509   9.627 -2.7432 -1.3907 -1.3875
  177SOPE  C21120154   4.284   5.656   9.524 -0.1278 -0.2019 -0.5939
  177SOPE  H11R20155   4.296   5.766   9.511  1.6724 -0.3883 -0.6647
  177SOPE  H11S20156   4.178   5.626   9.509 -0.5591  0.1814  1.3930
  177SOPE  C21220157   4.356   5.591   9.402  0.6466 -0.3717  0.0834
  177SOPE  H12R20158   4.339   5.482   9.416 -0.2892 -0.6340 -2.5809
  177SOPE  H12S20159   4.457   5.636   9.402  1.3970 -1.9960 -0.4294
  177SOPE  C21320160   4.281   5.638   9.275  0.4756 -0.5659 -0.0596
  177SOPE  H13R20161   4.237   5.740   9.286  2.3247  0.2385  0.2662
  177SOPE  H13S20162   4.193   5.571   9.267 -0.2121  0.0619  1.7909
  177SOPE  C21420163   4.379   5.653   9.158 -0.3395 -0.6794  0.3346
  177SOPE  H14R20164   4.425   5.754   9.160 -0.7063 -0.4935 -0.3133
  177SOPE  H14S20165   4.315   5.653   9.067  0.0616 -0.9562  0.0508
  177SOPE  C21520166   4.487   5.549   9.145 -0.7120 -0.2678 -0.0426
  177SOPE  H15R20167   4.432   5.453   9.155  1.0127 -1.3766 -0.7426
  177SOPE  H15S20168   4.560   5.541   9.229 -0.4602  0.9959 -0.1112
  177SOPE  C21620169   4.555   5.544   9.003 -0.0819 -0.1095  0.1159
  177SOPE  H16R20170   4.492   5.593   8.927 -1.2630 -2.5481 -0.6004
  177SOPE  H16S20171   4.565   5.434   8.986  0.2061 -0.1097  0.2722
  177SOPE  C21720172   4.700   5.595   8.986 -0.4808  0.2370 -0.1617
  177SOPE  H17R20173   4.742   5.581   8.884 -1.1593  0.6748 -0.5091
  177SOPE  H17S20174   4.768   5.541   9.054 -1.8265  1.0474  1.9321
  177SOPE  C21820175   4.717   5.738   9.027  0.0158 -1.1546 -0.9668
  177SOPE  H18R20176   4.823   5.767   9.042 -0.0186 -1.3465 -0.3017
  177SOPE  H18S20177   4.665   5.751   9.125  0.5441  1.1391 -0.9484
  177SOPE  H18T20178   4.655   5.798   8.957  0.4853 -1.6650 -1.8384
  177SOPE   C3320179   3.881   6.046  10.322  0.5578  0.4014  0.3828
  177SOPE   H3X20180   3.886   6.157  10.316  3.5676  0.5748  3.3573
  177SOPE   H3Y20181   3.807   6.022  10.401 -0.2165 -0.7180 -0.6611
  177SOPE   C3420182   3.818   5.992  10.190 -0.2226 -0.1483  0.3030
  177SOPE   H4X20183   3.716   6.036  10.187 -1.2258 -2.3611  0.0261
  177SOPE   H4Y20184   3.811   5.883  10.208  1.4682 -0.2679  0.4215
  177SOPE   C3520185   3.902   6.040  10.074  0.3735 -0.4708  0.0622
  177SOPE   H5X20186   4.002   5.992  10.074 -0.5309 -2.4368  1.4240
  177SOPE   H5Y20187   3.902   6.150  10.058  0.1717 -0.6222 -1.0574
  177SOPE   C3620188   3.832   5.995   9.947  0.2159  0.3387  0.5610
  177SOPE   H6X20189   3.722   6.005   9.959  0.2492  1.9550 -0.0995
  177SOPE   H6Y20190   3.842   5.887   9.923 -0.8320 -0.0343  1.7106
  177SOPE   C3720191   3.871   6.077   9.819  0.3442  0.3121 -0.5874
  177SOPE   H7X20192   3.981   6.089   9.819  0.3777  0.0478 -0.2866
  177SOPE   H7Y20193   3.828   6.179   9.825  1.8831  1.0427 -1.4086
  177SOPE   C3820194   3.816   6.011   9.691  0.2860  0.0935 -0.1295
  177SOPE   H8X20195   3.712   5.974   9.706  0.8674 -1.6842 -0.3595
  177SOPE   H8Y20196   3.881   5.922   9.679  0.2231  0.2784 -2.1595
  177SOPE   C3920197   3.838   6.088   9.560  0.0336 -0.2561  0.2817
  177SOPE   H9X20198   3.908   6.031   9.496 -0.1455  1.1070 -1.1859
  177SOPE   H9Y20199   3.865   6.196   9.565  0.3110 -0.2848 -0.4811
  177SOPE  C31020200   3.704   6.095   9.488  0.1208 -0.5495  0.1915
  177SOPE  H10X20201   3.636   6.161   9.546  0.1330  0.9623 -1.4610
  177SOPE  H10Y20202   3.672   5.989   9.485  0.0073 -0.4893 -1.5354
  177SOPE  C31120203   3.715   6.150   9.344 -0.1520  0.1976 -0.1428
  177SOPE  H11X20204   3.804   6.108   9.292  0.6673 -0.7942  1.9234
  177SOPE  H11Y20205   3.722   6.259   9.360 -0.3142 -0.0579  2.0271
  177SOPE  C31220206   3.583   6.114   9.267 -0.0802 -0.0637  0.6919
  177SOPE  H12X20207   3.520   6.204   9.285 -0.4322 -0.3586  0.9375
  177SOPE  H12Y20208   3.546   6.016   9.304  3.6826 -1.3496  1.4974
  177SOPE  C31320209   3.619   6.100   9.116  0.0751 -0.0860 -0.0123
  177SOPE  H13X20210   3.665   6.000   9.099  1.5671  0.6382 -0.4280
  177SOPE  H13Y20211   3.692   6.177   9.081 -2.0609  1.3222 -1.6327
  177SOPE  C31420212   3.489   6.093   9.033 -0.2392  0.2671  0.5693
  177SOPE  H14X20213   3.433   6.187   9.055  0.3645  0.3005  2.0746
  177SOPE  H14Y20214   3.426   6.013   9.076 -1.1267  1.1844  1.0187
  177SOPE  C31520215   3.525   6.063   8.886 -0.0788  0.2205  0.2277
  177SOPE  H15X20216   3.602   5.983   8.882  0.5667  0.8529 -3.7349
  177SOPE  H15Y20217   3.576   6.149   8.837  2.9181 -2.1123 -1.0661
  177SOPE  C31620218   3.402   6.021   8.802 -0.2231  0.1378 -0.1759
  177SOPE  H16X20219   3.334   6.106   8.825 -0.0993 -0.0383  0.9338
  177SOPE  H16Y20220   3.368   5.930   8.857  0.0735  1.2419  1.9294
  177SOPE  C31720221   3.433   6.008   8.653 -0.3401  0.4834 -0.1477
  177SOPE  H17X20222   3.487   5.913   8.635  1.6838  1.4336  0.5324
  177SOPE  H17Y20223   3.490   6.097   8.618 -0.1926  0.6238  0.4250
  177SOPE  C31820224   3.304   6.006   8.567 -0.2438  0.3272 -0.4013
  177SOPE  H18X20225   3.233   5.921   8.576 -0.9876  1.1312  2.0322
  177SOPE  H18Y20226   3.340   6.013   8.462  1.4794 -1.2929  0.0233
  177SOPE  H18Z20227   3.244   6.096   8.589 -0.6358 -0.0253 -0.0149
  178SOPE     N20228   4.136   1.987  10.652 -0.3991 -0.0298  0.3329
  178SOPE   HN120229   4.164   2.044  10.734  0.1680 -1.7172  1.3641
  178SOPE   HN220230   4.052   1.931  10.679 -0.8007  1.0991  1.4937
  178SOPE   HN320231   4.209   1.918  10.626 -1.4556 -0.4440 -1.7538
  178SOPE   C1220232   4.116   2.067  10.526 -0.8066  0.2044 -0.1982
  178SOPE  H12A20233   4.150   1.997  10.448 -2.7339 -1.8847  0.7071
  178SOPE  H12B20234   4.177   2.160  10.530 -1.4378  0.6416 -0.4806
  178SOPE   C1120235   3.963   2.103  10.516  0.0873  0.1305 -0.2506
  178SOPE  H11A20236   3.909   2.005  10.510 -0.1305  0.2816 -0.8664
  178SOPE  H11B20237   3.934   2.147  10.418 -3.8274  1.0478  1.1076
  178SOPE     P20238   3.784   2.175  10.686 -0.0301  0.1323 -0.0456
  178SOPE   O1320239   3.785   2.236  10.821  0.3029 -0.3204 -0.1749
  178SOPE   O1420240   3.734   2.036  10.682  0.0535 -0.5506  0.2499
  178SOPE   O1220241   3.929   2.178  10.626  0.0851 -0.2368 -0.2146
  178SOPE   O1120242   3.708   2.260  10.581  0.0745  0.6045  0.2768
  178SOPE    C120243   3.746   2.394  10.546  0.1815 -0.7515  0.3330
  178SOPE    HA20244   3.853   2.410  10.519  0.0141  1.2127  0.6551
  178SOPE    HB20245   3.715   2.467  10.623  4.2192 -1.1870  2.6545
  178SOPE    C220246   3.671   2.428  10.415  0.0878  0.1510  0.4083
  178SOPE    HS20247   3.563   2.418  10.439  0.4301 -0.6914  1.6453
  178SOPE   O2120248   3.721   2.339  10.307  0.0535 -0.0477  0.1267
  178SOPE   C2120249   3.618   2.294  10.234 -0.9544 -0.1027  0.2723
  178SOPE   O2220250   3.498   2.314  10.257 -0.2594 -0.3670 -0.1111
  178SOPE   C2220251   3.671   2.229  10.106  0.2670  0.6057 -0.2199
  178SOPE   H2R20252   3.709   2.129  10.139 -2.1420 -0.4069 -0.3286
  178SOPE   H2S20253   3.759   2.293  10.083 -0.4458  2.2306  1.3019
  178SOPE    C320254   3.703   2.579  10.373  0.3044 -0.3360 -0.3141
  178SOPE    HX20255   3.814   2.584  10.365  0.7571 -1.1949  3.3590
  178SOPE    HY20256   3.679   2.642  10.461 -1.3742 -0.7717 -0.4255
  178SOPE   O3120257   3.636   2.620  10.248  0.0446  0.0284  0.1929
  178SOPE   C3120258   3.506   2.633  10.262  0.4864  0.0136 -0.2679
  178SOPE   O3220259   3.444   2.629  10.367  0.9530  0.1454  0.1034
  178SOPE   C3220260   3.432   2.667  10.133 -0.0393 -0.3587  0.3118
  178SOPE   H2X20261   3.505   2.666  10.049  0.5615  0.1745  0.8108
  178SOPE   H2Y20262   3.401   2.773  10.148  0.1213 -0.4084  1.0519
  178SOPE   C2320263   3.569   2.194  10.000  0.2953 -0.3923 -1.2715
  178SOPE   H3R20264   3.542   2.280   9.934  0.3954  0.9319  0.3499
  178SOPE   H3S20265   3.478   2.161  10.055  0.2825  0.1785 -0.9472
  178SOPE   C2420266   3.612   2.068   9.925 -0.2075 -0.3095  0.1057
  178SOPE   H4R20267   3.708   2.101   9.879 -1.6309  1.8344 -1.5404
  178SOPE   H4S20268   3.631   1.990  10.002 -0.9735  1.1231  1.8138
  178SOPE   C2520269   3.508   2.027   9.820 -0.6400  0.2862  0.5768
  178SOPE   H5R20270   3.424   1.976   9.873 -1.4254  0.2127 -0.6917
  178SOPE   H5S20271   3.462   2.118   9.776 -0.6657 -0.3757 -0.7975
  178SOPE   C2620272   3.580   1.943   9.717  1.6296  0.1975 -0.6690
  178SOPE   H6R20273   3.513   1.923   9.631  0.1451  0.7038  0.3360
  178SOPE   H6S20274   3.662   1.993   9.662 -0.1372 -0.2682 -3.9851
  178SOPE   C2720275   3.621   1.805   9.756 -0.8036 -0.2034 -0.0252
  178SOPE   H7R20276   3.713   1.814   9.817 -0.2841 -0.8471 -0.6889
  178SOPE   H7S20277   3.552   1.756   9.828  1.3119  0.8921  2.8863
  178SOPE   C2820278   3.651   1.712   9.640  0.2093  0.1333  0.4706
  178SOPE   H8R20279   3.560   1.682   9.585 -0.9896  1.2231  1.7818
  178SOPE   H8S20280   3.717   1.767   9.570  0.6691 -2.5462 -1.3372
  178SOPE   C2920281   3.694   1.586   9.690 -0.5344  0.2760 -0.9957
  178SOPE   H9120282   3.617   1.510   9.712 -2.3795  2.0230 -1.1673
  178SOPE  C21020283   3.817   1.554   9.731  0.1056 -0.5798 -0.6331
  178SOPE  H10120284   3.841   1.456   9.776  1.2113 -0.4802 -0.9912
  178SOPE  C21120285   3.931   1.651   9.715  0.2436  0.5056  0.3417
  178SOPE  H11R20286   3.975   1.665   9.816 -0.1327  1.3292  0.4000
  178SOPE  H11S20287   3.906   1.755   9.683  1.6728  0.6178 -0.5019
  178SOPE  C21220288   4.039   1.593   9.613 -0.3697  0.0128 -0.8207
  178SOPE  H12R20289   4.089   1.509   9.667  0.7526  2.1998  1.7773
  178SOPE  H12S20290   4.117   1.672   9.614 -1.5397  1.2130  0.8793
  178SOPE  C21320291   3.983   1.562   9.475  0.1262  0.2828  0.1529
  178SOPE  H13R20292   3.894   1.624   9.453 -1.6523 -1.4098  2.2038
  178SOPE  H13S20293   3.942   1.459   9.464 -0.0471  0.3635  0.0473
  178SOPE  C21420294   4.085   1.573   9.363 -0.0564  0.1123  0.6100
  178SOPE  H14R20295   4.168   1.502   9.386 -0.7616 -0.7284  0.6006
  178SOPE  H14S20296   4.116   1.679   9.376  0.2924  0.1506 -0.4063
  178SOPE  C21520297   4.027   1.540   9.223 -0.4880  0.3112 -0.0804
  178SOPE  H15R20298   3.968   1.622   9.176 -2.9803 -1.7896 -0.8690
  178SOPE  H15S20299   3.960   1.452   9.224  0.0569 -0.1171  1.6235
  178SOPE  C21620300   4.145   1.532   9.117 -0.1603  0.1557  0.0608
  178SOPE  H16R20301   4.222   1.454   9.138 -1.3428 -1.1182 -0.1760
  178SOPE  H16S20302   4.190   1.633   9.118 -1.0365  0.5624  0.8998
  178SOPE  C21720303   4.091   1.501   8.979  0.4861  0.0348 -0.6625
  178SOPE  H17R20304   4.006   1.568   8.954 -0.1411 -0.5894 -0.2254
  178SOPE  H17S20305   4.053   1.397   8.971  2.2552 -0.7189  0.2835
  178SOPE  C21820306   4.198   1.520   8.881 -0.0779  0.0876  0.2946
  178SOPE  H18R20307   4.205   1.629   8.864 -1.1713  0.0455 -0.5091
  178SOPE  H18S20308   4.167   1.479   8.782 -0.6669 -1.1917  0.9798
  178SOPE  H18T20309   4.295   1.471   8.903 -0.4513  0.2267  2.4445
  178SOPE   C3320310   3.316   2.568  10.111  0.5608 -0.6492 -0.0170
  178SOPE   H3X20311   3.237   2.583  10.187 -0.8324 -0.1325 -1.5054
  178SOPE   H3Y20312   3.354   2.464  10.123 -0.8457 -1.0608  1.0798
  178SOPE   C3420313   3.240   2.593   9.974  0.4054  0.2135  0.0135
  178SOPE   H4X20314   3.209   2.700   9.966  0.6075  0.2438 -0.4087
  178SOPE   H4Y20315   3.146   2.534   9.975 -0.2094  1.1417 -0.7165
  178SOPE   C3520316   3.322   2.540   9.851  0.1156 -0.1238  0.8229
  178SOPE   H5X20317   3.326   2.430   9.864 -0.5787 -0.1825  0.5556
  178SOPE   H5Y20318   3.421   2.590   9.851 -0.4537  1.0677 -0.5995
  178SOPE   C3620319   3.254   2.586   9.712  0.1701  0.5852  0.4486
  178SOPE   H6X20320   3.334   2.587   9.635  0.2562  0.0882  0.5301
  178SOPE   H6Y20321   3.206   2.685   9.728 -0.1433  0.2583  1.6928
  178SOPE   C3720322   3.143   2.482   9.679 -0.4538 -0.3276  0.0466
  178SOPE   H7X20323   3.074   2.468   9.764  0.6518 -1.1121  0.8449
  178SOPE   H7Y20324   3.184   2.380   9.665 -2.2428 -1.0564 -0.1517
  178SOPE   C3820325   3.065   2.517   9.547 -0.5259  0.0028 -0.7871
  178SOPE   H8X20326   2.994   2.600   9.570  1.5685  1.3345  1.3462
  178SOPE   H8Y20327   2.997   2.434   9.518 -0.0735 -0.3990 -0.7034
  178SOPE   C3920328   3.158   2.554   9.435  0.6234  0.2809  0.3844
  178SOPE   H9X20329   3.228   2.474   9.402 -0.3603  0.0725 -1.3761
  178SOPE   H9Y20330   3.205   2.650   9.463  1.8731 -0.3049  0.3280
  178SOPE  C31020331   3.085   2.588   9.297 -0.8165  0.6366 -1.0228
  178SOPE  H10X20332   2.988   2.634   9.326 -0.6530 -0.5017  1.5687
  178SOPE  H10Y20333   3.047   2.497   9.245 -2.1038  0.6179 -0.0885
  178SOPE  C31120334   3.166   2.679   9.208  0.4533 -0.2873  0.6788
  178SOPE  H11X20335   3.263   2.640   9.168  0.4398  0.4530 -0.0975
  178SOPE  H11Y20336   3.194   2.780   9.245  1.7753  0.0477 -1.1066
  178SOPE  C31220337   3.085   2.724   9.078  0.4532  0.2138  0.2992
  178SOPE  H12X20338   3.072   2.835   9.075 -0.2491  0.1532  0.8391
  178SOPE  H12Y20339   2.980   2.687   9.086  0.3802  0.4275  0.3401
  178SOPE  C31320340   3.148   2.672   8.945  0.6385  0.0435 -0.3642
  178SOPE  H13X20341   3.181   2.569   8.972  1.5179  0.1676 -0.9263
  178SOPE  H13Y20342   3.241   2.732   8.933  1.6434 -1.0790  1.3186
  178SOPE  C31420343   3.057   2.675   8.828  0.3380  0.3654 -0.2350
  178SOPE  H14X20344   2.968   2.617   8.857  0.0437  1.5823  1.3886
  178SOPE  H14Y20345   3.107   2.628   8.740  1.1805  1.3654 -0.3070
  178SOPE  C31520346   3.004   2.817   8.789 -0.8257 -0.8173 -0.3722
  178SOPE  H15X20347   3.083   2.891   8.764 -0.7698 -1.4564 -2.2729
  178SOPE  H15Y20348   2.947   2.863   8.872  0.3469 -1.3169  0.7324
  178SOPE  C31620349   2.920   2.802   8.657 -0.6041 -0.1558 -0.0351
  178SOPE  H16X20350   2.838   2.728   8.664 -0.2987 -0.4872  0.1144
  178SOPE  H16Y20351   2.987   2.759   8.579 -2.1528  1.1416 -2.1910
  178SOPE  C31720352   2.869   2.931   8.605 -0.6239 -0.9079 -0.4222
  178SOPE  H17X20353   2.845   2.902   8.500  0.6506  2.1919 -1.7162
  178SOPE  H17Y20354   2.941   3.016   8.605 -1.7077  0.0864 -1.9463
  178SOPE  C31820355   2.733   2.976   8.664  0.5450  0.0916  0.0427
  178SOPE  H18X20356   2.665   2.888   8.658 -0.6850  1.0122  0.1392
  178SOPE  H18Y20357   2.684   3.058   8.608 -1.3712  0.5788  2.2627
  178SOPE  H18Z20358   2.747   3.012   8.768 -1.3328  0.5719  0.1659
  179SOPE     N20359   1.538   2.819   6.422 -0.1851  0.1980  0.0913
  179SOPE   HN120360   1.479   2.806   6.338 -0.5558  2.0125  0.0102
  179SOPE   HN220361   1.638   2.823   6.391  0.8829  1.5005  3.2630
  179SOPE   HN320362   1.536   2.742   6.492  1.3212  0.4298  0.4256
  179SOPE   C1220363   1.506   2.962   6.474  0.5656 -0.1474  0.2317
  179SOPE  H12A20364   1.589   2.976   6.546  2.2792  0.7996 -1.8064
  179SOPE  H12B20365   1.403   2.967   6.516  0.5323  1.1797  0.0337
  179SOPE   C1120366   1.500   3.053   6.353  0.8473  0.4520  0.1039
  179SOPE  H11A20367   1.433   3.026   6.268 -0.1055 -0.3440  1.0870
  179SOPE  H11B20368   1.602   3.056   6.309  0.6186 -1.1541 -0.5914
  179SOPE     P20369   1.553   3.294   6.455 -0.4324  0.0625  0.0075
  179SOPE   O1320370   1.470   3.405   6.509 -0.3395  0.4664 -0.3575
  179SOPE   O1420371   1.653   3.333   6.348  0.0584  0.4049 -0.7293
  179SOPE   O1220372   1.455   3.177   6.394  0.2221  0.0093 -0.7019
  179SOPE   O1120373   1.631   3.229   6.571 -0.6781 -0.3811  0.5099
  179SOPE    C120374   1.578   3.203   6.700 -0.3265  0.7073 -0.6088
  179SOPE    HA20375   1.630   3.114   6.741 -0.4309  1.5673  1.5434
  179SOPE    HB20376   1.467   3.197   6.703 -0.3104  0.4106  2.1681
  179SOPE    C220377   1.622   3.324   6.789 -0.7501  0.3577  0.1646
  179SOPE    HS20378   1.563   3.411   6.753  0.0236  0.1762 -1.6311
  179SOPE   O2120379   1.768   3.331   6.779  0.0384  0.6833 -0.1306
  179SOPE   C2120380   1.809   3.455   6.729  0.4527  1.1695 -0.6318
  179SOPE   O2220381   1.737   3.544   6.695  0.0170  0.3936  0.0411
  179SOPE   C2220382   1.957   3.464   6.733  0.2633  0.3268 -0.2781
  179SOPE   H2R20383   1.984   3.572   6.742 -1.6180  0.6801  2.5753
  179SOPE   H2S20384   2.002   3.417   6.643 -0.1561  1.4499 -1.1003
  179SOPE    C320385   1.581   3.304   6.944 -0.0948  0.2013 -0.0629
  179SOPE    HX20386   1.616   3.398   6.993  0.8787 -0.5080  0.6471
  179SOPE    HY20387   1.647   3.221   6.979 -0.1730  0.3692  0.4932
  179SOPE   O3120388   1.439   3.284   6.961 -0.1833  0.0577  0.1744
  179SOPE   C3120389   1.402   3.166   7.008  1.1072  0.0243  0.4693
  179SOPE   O3220390   1.464   3.065   7.018 -0.3981  0.1800 -0.2212
  179SOPE   C3220391   1.244   3.176   7.030  0.0909 -0.0070  0.3894
  179SOPE   H2X20392   1.216   3.082   7.083 -2.0398  1.1162  1.3799
  179SOPE   H2Y20393   1.197   3.187   6.930  0.6440 -0.7101  0.0403
  179SOPE   C2320394   2.021   3.383   6.854 -0.0699 -0.1847 -0.3301
  179SOPE   H3R20395   2.131   3.378   6.839  0.3638 -2.3446  2.7634
  179SOPE   H3S20396   2.000   3.274   6.854 -1.2434 -0.2578  5.4519
  179SOPE   C2420397   1.986   3.432   6.994  0.8478 -0.0456  0.0297
  179SOPE   H4R20398   1.993   3.542   7.007  3.4918 -0.2999  1.3416
  179SOPE   H4S20399   1.878   3.408   7.003  0.5737  0.9618 -0.4292
  179SOPE   C2520400   2.064   3.359   7.105  0.4030  0.5005  0.4411
  179SOPE   H5R20401   2.066   3.250   7.085 -0.8253  0.4491  0.5203
  179SOPE   H5S20402   2.170   3.392   7.092  1.2767 -2.4156 -0.5583
  179SOPE   C2620403   1.998   3.375   7.244 -0.4676  1.1291 -0.1093
  179SOPE   H6R20404   1.888   3.380   7.232 -0.6232 -0.2501  0.5323
  179SOPE   H6S20405   2.026   3.286   7.303  1.8853  2.0210  0.2286
  179SOPE   C2720406   2.041   3.503   7.316 -0.1355 -0.2701 -0.9221
  179SOPE   H7R20407   2.131   3.471   7.374 -0.9812 -1.9097 -0.4502
  179SOPE   H7S20408   2.066   3.580   7.240  0.4092  1.1248  0.6153
  179SOPE   C2820409   1.942   3.565   7.411  0.1223 -0.1356  0.1946
  179SOPE   H8R20410   1.871   3.599   7.332  0.3477  0.1783  0.1241
  179SOPE   H8S20411   1.896   3.485   7.473  0.2836 -1.1272 -0.9237
  179SOPE   C2920412   2.001   3.673   7.501  0.9659  0.2509  0.0449
  179SOPE   H9120413   2.101   3.641   7.533  0.4100 -1.5812  0.0193
  179SOPE  C21020414   1.947   3.794   7.542 -0.0281 -0.1460 -0.2564
  179SOPE  H10120415   2.009   3.866   7.596  0.0331 -0.7774  0.5449
  179SOPE  C21120416   1.821   3.864   7.512  0.6937  0.5019 -0.0806
  179SOPE  H11R20417   1.777   3.902   7.607 -1.0441  0.0631 -0.6696
  179SOPE  H11S20418   1.752   3.787   7.471  2.2243 -0.7948 -0.3067
  179SOPE  C21220419   1.808   3.981   7.416 -0.1046  0.5592  0.2124
  179SOPE  H12R20420   1.859   3.957   7.320  0.7151  0.8284  0.5699
  179SOPE  H12S20421   1.863   4.058   7.473  0.8081  0.3494 -0.3649
  179SOPE  C21320422   1.662   4.010   7.383  0.7116 -0.0015 -0.0104
  179SOPE  H13R20423   1.598   3.997   7.473  1.6066  0.5379  0.7246
  179SOPE  H13S20424   1.627   3.936   7.307  0.7846 -0.1058  0.0575
  179SOPE  C21420425   1.638   4.153   7.329  0.3002  0.4644  0.4763
  179SOPE  H14R20426   1.689   4.163   7.230  0.5345 -0.2432  0.5172
  179SOPE  H14S20427   1.674   4.235   7.395 -0.5068  0.9205  0.3542
  179SOPE  C21520428   1.494   4.184   7.304  0.2464  0.5982  0.0225
  179SOPE  H15R20429   1.433   4.183   7.396 -0.7034  1.0856 -0.5803
  179SOPE  H15S20430   1.458   4.106   7.234 -0.8327  2.0555 -1.1277
  179SOPE  C21620431   1.475   4.317   7.233 -0.1273  0.1508  1.2201
  179SOPE  H16R20432   1.367   4.340   7.242 -0.3089 -0.6770  1.1891
  179SOPE  H16S20433   1.489   4.311   7.123 -0.6954  1.8216  1.0253
  179SOPE  C21720434   1.555   4.432   7.298  0.1562 -0.2689 -0.1395
  179SOPE  H17R20435   1.665   4.417   7.294  0.2016 -0.5543  1.4613
  179SOPE  H17S20436   1.526   4.427   7.405  1.2469 -1.8159  0.1208
  179SOPE  C21820437   1.511   4.550   7.222 -0.1637 -0.3919 -0.1568
  179SOPE  H18R20438   1.578   4.577   7.137 -0.7131 -2.1008 -1.1832
  179SOPE  H18S20439   1.503   4.636   7.292 -3.0929 -0.3248 -0.4437
  179SOPE  H18T20440   1.407   4.548   7.182 -0.4961  0.7861  0.6034
  179SOPE   C3320441   1.213   3.295   7.123 -0.0280 -0.2428 -0.0102
  179SOPE   H3X20442   1.198   3.394   7.076 -1.2585  1.0069  2.7721
  179SOPE   H3Y20443   1.278   3.296   7.213 -1.3044 -0.5613  0.9591
  179SOPE   C3420444   1.076   3.263   7.189  0.1588 -0.1850 -0.0490
  179SOPE   H4X20445   1.072   3.172   7.252  0.0443  0.9098  1.5845
  179SOPE   H4Y20446   0.991   3.244   7.120 -1.2066  0.6605  1.3129
  179SOPE   C3520447   1.033   3.391   7.267 -0.2077  0.1194  0.2235
  179SOPE   H5X20448   0.923   3.399   7.276 -0.3234 -0.2226 -0.7134
  179SOPE   H5Y20449   1.047   3.474   7.194 -1.6942  0.0517 -0.1712
  179SOPE   C3620450   1.096   3.425   7.405  0.5929 -0.1580  0.5084
  179SOPE   H6X20451   1.039   3.514   7.439 -1.2170 -0.5243 -1.3200
  179SOPE   H6Y20452   1.194   3.470   7.380  0.8109  0.6124  2.5840
  179SOPE   C3720453   1.132   3.312   7.499  0.0851  0.2794 -0.5921
  179SOPE   H7X20454   1.186   3.368   7.579  1.1539 -1.0340 -0.3669
  179SOPE   H7Y20455   1.210   3.247   7.454  1.4894  0.5842  1.2681
  179SOPE   C3820456   1.002   3.239   7.553  0.9945 -0.2620  0.6231
  179SOPE   H8X20457   1.035   3.168   7.632 -1.3318  0.3397  2.2479
  179SOPE   H8Y20458   0.959   3.187   7.465  0.6168  1.9764 -0.5964
  179SOPE   C3920459   0.883   3.322   7.616  0.5150  0.4844 -0.4402
  179SOPE   H9X20460   0.809   3.249   7.655 -0.9634  0.7708 -2.5228
  179SOPE   H9Y20461   0.822   3.378   7.542  0.7034  1.2523 -0.0275
  179SOPE  C31020462   0.925   3.424   7.720 -0.2013  1.8304  0.4497
  179SOPE  H10X20463   0.849   3.503   7.738  1.4685  3.5780  0.1582
  179SOPE  H10Y20464   1.017   3.471   7.678  2.1835 -3.2848 -0.7922
  179SOPE  C31120465   0.955   3.358   7.853  0.6397  0.4113 -0.5786
  179SOPE  H11X20466   1.015   3.265   7.838 -1.6643 -1.1196 -0.7922
  179SOPE  H11Y20467   0.856   3.331   7.895  0.5112  1.5715 -0.1041
  179SOPE  C31220468   1.040   3.443   7.954  0.0801 -0.2383  1.1308
  179SOPE  H12X20469   1.034   3.550   7.923  0.9807 -0.4172  0.2787
  179SOPE  H12Y20470   1.147   3.417   7.939  0.8320  1.6357  2.7919
  179SOPE  C31320471   0.990   3.446   8.096 -0.7910  0.2541 -0.7362
  179SOPE  H13X20472   0.990   3.342   8.135 -0.7281  1.1451  1.8703
  179SOPE  H13Y20473   0.885   3.482   8.100 -1.2396 -1.0760  0.7615
  179SOPE  C31420474   1.066   3.532   8.190  0.1734 -0.0689 -0.2365
  179SOPE  H14X20475   1.083   3.629   8.140  2.6221 -0.1138  0.3993
  179SOPE  H14Y20476   1.165   3.485   8.210 -0.5505 -0.8704  1.8121
  179SOPE  C31520477   0.992   3.547   8.330  0.7485 -0.3702  0.1536
  179SOPE  H15X20478   0.943   3.453   8.363  0.6369 -1.0212 -1.7248
  179SOPE  H15Y20479   0.911   3.623   8.324  1.1367 -0.0827 -2.7138
  179SOPE  C31620480   1.077   3.606   8.451  0.3254 -0.1363  0.0435
  179SOPE  H16X20481   1.162   3.535   8.464 -1.3779 -2.0810  1.1184
  179SOPE  H16Y20482   1.017   3.592   8.543  0.3116 -0.4105 -0.0037
  179SOPE  C31720483   1.117   3.754   8.432  0.3262 -0.2389 -0.6582
  179SOPE  H17X20484   1.026   3.809   8.400 -0.9696 -2.6485 -1.3948
  179SOPE  H17Y20485   1.196   3.752   8.354 -1.1439  0.4841 -2.2282
  179SOPE  C31820486   1.153   3.821   8.563  0.1454 -0.6626  0.8223
  179SOPE  H18X20487   1.061   3.831   8.625 -0.9250 -2.3277 -0.4167
  179SOPE  H18Y20488   1.194   3.924   8.550 -0.4790 -0.6008 -1.0265
  179SOPE  H18Z20489   1.233   3.755   8.603 -0.3329 -1.3002  0.7281
  180SOPE     N20490   6.676   4.157   6.358  0.5950 -0.1389  0.2182
  180SOPE   HN120491   6.659   4.103   6.445  0.6280 -1.9598 -0.8636
  180SOPE   HN220492   6.681   4.260   6.373 -2.7766  0.4957 -2.0443
  180SOPE   HN320493   6.587   4.156   6.305 -0.5436 -0.0927  2.0240
  180SOPE   C1220494   6.795   4.111   6.272 -0.5891  0.4324 -0.0634
  180SOPE  H12A20495   6.887   4.105   6.334  1.0851 -2.6934 -2.5547
  180SOPE  H12B20496   6.808   4.192   6.197  1.7950 -1.4130 -1.7861
  180SOPE   C1120497   6.781   3.967   6.214 -0.1987  0.0189 -0.8223
  180SOPE  H11A20498   6.857   3.945   6.136  1.0529 -0.9916  0.6190
  180SOPE  H11B20499   6.686   3.958   6.156 -0.0020  1.7719 -1.4819
  180SOPE     P20500   6.844   3.730   6.327 -0.1340  0.0606  0.2167
  180SOPE   O1320501   6.993   3.730   6.337  0.2196 -1.1509  0.0896
  180SOPE   O1420502   6.791   3.656   6.216 -0.1143  0.1898  0.0279
  180SOPE   O1220503   6.775   3.873   6.318 -0.0746  0.0680  0.2719
  180SOPE   O1120504   6.783   3.668   6.457  0.1297  0.1191 -0.1405
  180SOPE    C120505   6.656   3.682   6.515 -0.1283 -0.2667  0.4043
  180SOPE    HA20506   6.615   3.586   6.553 -2.2201  0.6078  0.4831
  180SOPE    HB20507   6.578   3.703   6.439 -0.6717  0.1874  1.0643
  180SOPE    C220508   6.642   3.786   6.623  0.7783  0.4057  0.1398
  180SOPE    HS20509   6.685   3.878   6.578  0.9092  0.8444  1.1451
  180SOPE   O2120510   6.717   3.750   6.739  0.4707 -0.5901 -0.6681
  180SOPE   C2120511   6.753   3.844   6.825 -0.0026 -0.1251 -0.1589
  180SOPE   O2220512   6.746   3.963   6.811  0.1727 -0.1497 -1.0882
  180SOPE   C2220513   6.816   3.772   6.939  0.4452 -0.4255  0.1004
  180SOPE   H2R20514   6.923   3.802   6.933  0.6375 -1.2242 -0.8241
  180SOPE   H2S20515   6.806   3.662   6.925  2.2398 -0.3822 -2.3121
  180SOPE    C320516   6.493   3.809   6.657 -0.4958 -0.7186  0.0196
  180SOPE    HX20517   6.458   3.719   6.711  1.2042 -2.2205 -1.2684
  180SOPE    HY20518   6.421   3.812   6.572 -0.5748 -0.4170  0.0929
  180SOPE   O3120519   6.475   3.930   6.732  0.0053 -0.2014 -0.0228
  180SOPE   C3120520   6.470   4.046   6.663 -0.4336  0.1603  0.1828
  180SOPE   O3220521   6.471   4.056   6.543 -0.4036 -0.2639 -0.2806
  180SOPE   C3220522   6.459   4.168   6.759 -0.0971  0.0584 -0.1333
  180SOPE   H2X20523   6.418   4.247   6.692  1.9169  1.6479  0.4141
  180SOPE   H2Y20524   6.561   4.202   6.786  0.2891 -1.3496  0.2219
  180SOPE   C2320525   6.753   3.824   7.077  0.0413  0.3563  0.5510
  180SOPE   H3R20526   6.766   3.933   7.092 -1.0153  0.6232 -0.3846
  180SOPE   H3S20527   6.805   3.775   7.162 -1.2767  2.9259  3.0067
  180SOPE   C2420528   6.601   3.801   7.094  0.0733 -0.3899  0.5033
  180SOPE   H4R20529   6.545   3.882   7.042  1.7175  0.6517  0.2663
  180SOPE   H4S20530   6.554   3.709   7.053 -2.6799 -0.5940  3.6529
  180SOPE   C2520531   6.563   3.789   7.241  0.4667 -0.0749 -0.5825
  180SOPE   H5R20532   6.454   3.791   7.265  0.4344 -0.5700 -0.6794
  180SOPE   H5S20533   6.602   3.700   7.294 -0.9402 -0.7021 -0.5583
  180SOPE   C2620534   6.594   3.924   7.301  0.2078 -0.0772 -0.7164
  180SOPE   H6R20535   6.704   3.941   7.293  0.3111 -0.1600  0.3284
  180SOPE   H6S20536   6.557   4.010   7.242  0.4810 -0.4966 -1.5090
  180SOPE   C2720537   6.532   3.930   7.450 -0.4032 -0.1077  0.7993
  180SOPE   H7R20538   6.527   4.036   7.485 -0.3489  1.2333 -2.7948
  180SOPE   H7S20539   6.430   3.888   7.440  0.1957 -1.1296 -2.0049
  180SOPE   C2820540   6.603   3.843   7.549 -0.9571 -0.4517 -0.6796
  180SOPE   H8R20541   6.544   3.786   7.624 -2.6846 -1.1857 -2.5041
  180SOPE   H8S20542   6.631   3.759   7.482 -1.0703  0.8426 -2.4332
  180SOPE   C2920543   6.716   3.914   7.615 -0.0864 -0.5166 -0.3779
  180SOPE   H9120544   6.807   3.932   7.555  1.9148 -0.5695  2.4620
  180SOPE  C21020545   6.723   3.982   7.727 -0.3535 -0.0629  0.6960
  180SOPE  H10120546   6.818   4.034   7.744  0.0570  0.7585 -3.1916
  180SOPE  C21120547   6.606   3.996   7.827  0.2435 -0.5916  0.7490
  180SOPE  H11R20548   6.520   3.930   7.801  0.8026 -1.6338  1.4441
  180SOPE  H11S20549   6.572   4.101   7.825 -0.4883 -0.8172 -1.5271
  180SOPE  C21220550   6.643   3.960   7.967 -0.2497  0.0690  0.0134
  180SOPE  H12R20551   6.741   4.010   7.981  0.1240 -0.8367  0.6957
  180SOPE  H12S20552   6.662   3.850   7.972  0.9275  0.2371 -0.2731
  180SOPE  C21320553   6.549   4.003   8.081  0.0300 -0.3147 -0.1953
  180SOPE  H13R20554   6.445   3.967   8.065 -1.6767  3.1764  1.8562
  180SOPE  H13S20555   6.558   4.112   8.103  2.3925 -0.7982  1.6548
  180SOPE  C21420556   6.601   3.950   8.221 -0.2605 -0.0445  0.0772
  180SOPE  H14R20557   6.544   4.006   8.299 -0.0401  0.2926 -0.0006
  180SOPE  H14S20558   6.708   3.976   8.240  0.7384 -0.8226 -3.6353
  180SOPE  C21520559   6.563   3.800   8.252  0.1700 -0.0145 -0.5359
  180SOPE  H15R20560   6.631   3.753   8.178  1.9307  1.4873  0.0464
  180SOPE  H15S20561   6.457   3.797   8.220 -0.6284  1.4992  1.6886
  180SOPE  C21620562   6.588   3.769   8.404 -0.0565 -0.2606  0.5816
  180SOPE  H16R20563   6.536   3.836   8.475  1.9569  0.2091  1.6928
  180SOPE  H16S20564   6.697   3.776   8.425  0.4106  0.7673 -1.7693
  180SOPE  C21720565   6.554   3.623   8.447  0.5865 -0.2797 -0.0977
  180SOPE  H17R20566   6.587   3.553   8.368 -0.4265  0.2852 -1.0398
  180SOPE  H17S20567   6.444   3.624   8.461  0.0252  0.3919 -3.6550
  180SOPE  C21820568   6.620   3.595   8.584  0.3594 -0.1814 -0.5553
  180SOPE  H18R20569   6.575   3.667   8.656  1.4859 -0.8276  0.8527
  180SOPE  H18S20570   6.731   3.605   8.586  0.2862  0.9013  1.8921
  180SOPE  H18T20571   6.589   3.499   8.632  2.2770 -0.2447  0.7058
  180SOPE   C3320572   6.373   4.136   6.884 -0.0798 -0.0532  0.2115
  180SOPE   H3X20573   6.420   4.055   6.944  1.1156  0.6937  0.3164
  180SOPE   H3Y20574   6.270   4.110   6.852 -0.1893  3.4150 -3.0209
  180SOPE   C3420575   6.368   4.248   6.985  0.2016  0.7789  0.4540
  180SOPE   H4X20576   6.305   4.329   6.942  1.1276  0.8358 -0.8238
  180SOPE   H4Y20577   6.475   4.277   6.979  0.4410  0.0637  1.0052
  180SOPE   C3520578   6.326   4.203   7.130  0.2106 -0.0378  0.9103
  180SOPE   H5X20579   6.396   4.122   7.157  0.0008 -0.7721 -0.6774
  180SOPE   H5Y20580   6.222   4.165   7.128  0.2873 -0.2819 -1.5325
  180SOPE   C3620581   6.344   4.317   7.233  0.2026  0.1443  0.5717
  180SOPE   H6X20582   6.279   4.405   7.212  0.5894  0.0706 -1.0825
  180SOPE   H6Y20583   6.452   4.340   7.228 -0.1052  1.6455  0.3289
  180SOPE   C3720584   6.316   4.267   7.377 -0.0650  0.3900  0.4900
  180SOPE   H7X20585   6.344   4.159   7.374 -1.4293 -0.0444  2.1803
  180SOPE   H7Y20586   6.206   4.270   7.386 -0.3177  0.0878 -1.7553
  180SOPE   C3820587   6.398   4.335   7.485 -0.5137 -0.3521 -0.4971
  180SOPE   H8X20588   6.385   4.445   7.487 -1.3641 -0.4435  1.5609
  180SOPE   H8Y20589   6.507   4.326   7.465 -0.5999 -0.1665 -1.0501
  180SOPE   C3920590   6.370   4.279   7.622  0.6573  0.4270  0.2567
  180SOPE   H9X20591   6.413   4.179   7.645 -2.3240 -0.4370  2.8626
  180SOPE   H9Y20592   6.261   4.285   7.643  0.2375  0.3854 -1.7396
  180SOPE  C31020593   6.428   4.372   7.730 -0.6197  0.1997 -0.0599
  180SOPE  H10X20594   6.396   4.478   7.721 -0.9049  0.3585  2.2448
  180SOPE  H10Y20595   6.537   4.373   7.709 -0.7130 -1.5700 -0.8228
  180SOPE  C31120596   6.386   4.325   7.869  0.2023  0.1045 -0.1917
  180SOPE  H11X20597   6.429   4.225   7.887  2.5050  1.1193  0.2511
  180SOPE  H11Y20598   6.278   4.300   7.869  0.2812 -0.2336  0.2004
  180SOPE  C31220599   6.414   4.414   7.984  0.6424  0.0722  0.2886
  180SOPE  H12X20600   6.371   4.515   7.967  1.3699  0.2579 -0.5351
  180SOPE  H12Y20601   6.525   4.416   7.995  0.6919 -1.0018  0.0584
  180SOPE  C31320602   6.361   4.365   8.123 -0.0897 -0.3080  0.6954
  180SOPE  H13X20603   6.403   4.265   8.145  0.6211 -0.3745 -0.8319
  180SOPE  H13Y20604   6.251   4.360   8.133 -0.3980  0.1690 -1.7986
  180SOPE  C31420605   6.403   4.465   8.230  0.5313  0.2818  0.0672
  180SOPE  H14X20606   6.361   4.566   8.211 -0.3976 -0.0245  0.4562
  180SOPE  H14Y20607   6.514   4.476   8.231  0.4225  1.4850 -0.0358
  180SOPE  C31520608   6.371   4.420   8.374 -0.0614  0.0450  0.3086
  180SOPE  H15X20609   6.261   4.421   8.394  0.1711  1.6303  1.7242
  180SOPE  H15Y20610   6.418   4.502   8.432  2.3992  0.0135 -1.5210
  180SOPE  C31620611   6.428   4.284   8.411 -0.4038 -0.1854 -0.4905
  180SOPE  H16X20612   6.538   4.292   8.395 -0.4557  1.3891 -0.1937
  180SOPE  H16Y20613   6.395   4.206   8.340 -1.9314 -1.1451  1.1853
  180SOPE  C31720614   6.401   4.254   8.558 -0.2071 -0.2003 -0.4567
  180SOPE  H17X20615   6.291   4.245   8.572  0.1180 -0.8067  2.5671
  180SOPE  H17Y20616   6.442   4.339   8.617 -1.8554  0.3810 -0.0988
  180SOPE  C31820617   6.438   4.112   8.600  0.0813  0.1984 -0.5155
  180SOPE  H18X20618   6.414   4.027   8.532 -0.6662 -0.9372  1.0995
  180SOPE  H18Y20619   6.379   4.089   8.691 -1.6845  1.2062 -1.3382
  180SOPE  H18Z20620   6.545   4.102   8.628 -0.2668  0.1572  0.8581
  181SOPE     N20621   6.476   1.921   5.610 -0.1180 -0.0906  0.4997
  181SOPE   HN120622   6.505   1.930   5.511 -1.3446  0.9306  0.2078
  181SOPE   HN220623   6.430   2.008   5.643  0.3521  0.6772 -0.7793
  181SOPE   HN320624   6.563   1.926   5.667  0.1842 -1.7957  0.2337
  181SOPE   C1220625   6.366   1.821   5.632  0.8305  0.3901 -0.7480
  181SOPE  H12A20626   6.409   1.724   5.600  0.4819 -0.1731  0.4294
  181SOPE  H12B20627   6.274   1.843   5.573 -1.0851  0.3225  2.0050
  181SOPE   C1120628   6.309   1.815   5.777  0.0534 -0.3862 -0.5527
  181SOPE  H11A20629   6.388   1.794   5.852 -0.4399  1.0119  0.3931
  181SOPE  H11B20630   6.237   1.730   5.773 -1.3856  0.7498  0.0359
  181SOPE     P20631   6.279   2.042   5.914  0.3574 -0.3119 -0.1713
  181SOPE   O1320632   6.162   2.113   5.967 -0.3458 -0.0341 -0.3729
  181SOPE   O1420633   6.370   2.121   5.832 -0.1754  0.3901  0.3346
  181SOPE   O1220634   6.228   1.925   5.822  0.2079 -0.0619  0.0642
  181SOPE   O1120635   6.350   1.969   6.042  0.4034 -1.1252  0.4082
  181SOPE    C120636   6.293   1.853   6.106  0.5784 -0.0676  0.1452
  181SOPE    HA20637   6.356   1.763   6.084  0.0089  0.1284 -2.7428
  181SOPE    HB20638   6.195   1.833   6.058  0.9293  0.3968 -0.7890
  181SOPE    C220639   6.277   1.861   6.255  0.9657 -0.4810 -0.2251
  181SOPE    HS20640   6.381   1.847   6.290  1.8580  1.5916 -1.8497
  181SOPE   O2120641   6.188   1.757   6.299 -0.2824  0.1645  0.3417
  181SOPE   C2120642   6.239   1.658   6.370  0.2513 -0.8610 -0.0913
  181SOPE   O2220643   6.359   1.646   6.383 -0.4433 -0.5412  0.2033
  181SOPE   C2220644   6.137   1.573   6.455  0.3414  0.1209  0.2096
  181SOPE   H2R20645   6.180   1.471   6.468 -1.0119 -1.1249 -3.6232
  181SOPE   H2S20646   6.049   1.547   6.392 -0.9185 -1.5770  2.4925
  181SOPE    C320647   6.218   2.004   6.295  0.0324 -0.4261 -0.2947
  181SOPE    HX20648   6.121   2.019   6.243 -0.6323 -0.2823  0.9493
  181SOPE    HY20649   6.291   2.077   6.255  0.5845 -0.1735  1.0920
  181SOPE   O3120650   6.212   2.010   6.440 -0.3936  0.0144 -0.4390
  181SOPE   C3120651   6.321   2.049   6.500 -0.1616  0.2619 -0.3630
  181SOPE   O3220652   6.431   2.062   6.451  0.3453  0.5025  0.0903
  181SOPE   C3220653   6.289   2.086   6.635  0.0467 -0.4146  0.2260
  181SOPE   H2X20654   6.282   1.991   6.693 -0.6691 -0.7902 -0.4550
  181SOPE   H2Y20655   6.187   2.130   6.631 -0.5785 -1.6607  1.4904
  181SOPE   C2320656   6.077   1.659   6.572 -0.0878  0.4091 -0.1146
  181SOPE   H3R20657   5.982   1.612   6.605  0.4023 -0.3585  0.2409
  181SOPE   H3S20658   6.045   1.757   6.531 -1.5092  0.3613  0.8132
  181SOPE   C2420659   6.168   1.680   6.695 -0.8614 -0.0201  0.7929
  181SOPE   H4R20660   6.177   1.579   6.741 -3.6918 -0.4873  0.5019
  181SOPE   H4S20661   6.261   1.726   6.654 -2.2866  1.5229 -0.8803
  181SOPE   C2520662   6.118   1.766   6.811  0.2650 -0.5169  0.2129
  181SOPE   H5R20663   6.074   1.862   6.776  0.5003 -0.1269  0.9793
  181SOPE   H5S20664   6.030   1.708   6.848  0.2271  0.1519  1.2024
  181SOPE   C2620665   6.220   1.793   6.925  0.2323  0.5151 -0.4808
  181SOPE   H6R20666   6.257   1.689   6.934 -0.1634  0.4935  1.4206
  181SOPE   H6S20667   6.301   1.860   6.889 -0.5223  1.4757 -0.4175
  181SOPE   C2720668   6.161   1.836   7.059 -0.0012 -0.5070  0.3118
  181SOPE   H7R20669   6.071   1.778   7.088  0.0543 -1.0269 -0.5433
  181SOPE   H7S20670   6.235   1.822   7.141  0.0290  1.4607  0.6679
  181SOPE   C2820671   6.124   1.986   7.058 -0.5860  0.1276  0.9294
  181SOPE   H8R20672   6.052   2.005   6.975  0.6658 -1.6049 -0.6045
  181SOPE   H8S20673   6.061   2.003   7.148 -1.4172  0.8274  0.2407
  181SOPE   C2920674   6.257   2.069   7.043  0.2285  0.1873  0.1026
  181SOPE   H9120675   6.295   2.074   6.940  0.3932 -0.3134  0.1314
  181SOPE  C21020676   6.317   2.139   7.145 -0.3393  0.2017 -0.2713
  181SOPE  H10120677   6.412   2.189   7.121  0.4479  0.2150  2.4787
  181SOPE  C21120678   6.277   2.152   7.288  0.4227 -0.2539  0.2859
  181SOPE  H11R20679   6.167   2.141   7.293  0.2055  1.1100 -0.8420
  181SOPE  H11S20680   6.282   2.257   7.324  1.4527 -0.7968  1.8518
  181SOPE  C21220681   6.340   2.070   7.396 -0.6003  0.5733  0.0151
  181SOPE  H12R20682   6.438   2.108   7.430 -0.8865  0.4815  0.9703
  181SOPE  H12S20683   6.349   1.964   7.362  2.7357  1.4049 -2.1217
  181SOPE  C21320684   6.244   2.059   7.513 -0.2686  0.0163 -0.4563
  181SOPE  H13R20685   6.296   2.003   7.595  1.9100  2.1640 -0.2652
  181SOPE  H13S20686   6.157   2.000   7.477  0.4720 -1.0951 -0.4827
  181SOPE  C21420687   6.209   2.190   7.585  0.2978 -0.2724 -0.3492
  181SOPE  H14R20688   6.176   2.265   7.510 -2.2165  1.7796  2.5017
  181SOPE  H14S20689   6.300   2.226   7.636  1.3146 -3.2301  0.1026
  181SOPE  C21520690   6.094   2.177   7.694 -0.6999 -0.1877  0.6351
  181SOPE  H15R20691   6.130   2.116   7.779 -0.3737 -2.0105 -0.7358
  181SOPE  H15S20692   6.012   2.118   7.647  0.2741  0.6695 -2.3651
  181SOPE  C21620693   6.047   2.310   7.763  0.8827 -0.0678 -0.9035
  181SOPE  H16R20694   5.996   2.377   7.690 -2.0464 -0.6659  0.4489
  181SOPE  H16S20695   6.137   2.367   7.794 -0.5015  3.2850 -2.4766
  181SOPE  C21720696   5.957   2.270   7.885  0.6100  0.1559  0.1606
  181SOPE  H17R20697   6.008   2.182   7.929  2.0929  0.2351 -1.3036
  181SOPE  H17S20698   5.858   2.234   7.852  1.1418 -2.4510  1.1479
  181SOPE  C21820699   5.945   2.378   7.986 -0.1574 -0.5985  0.0910
  181SOPE  H18R20700   5.877   2.453   7.941 -0.6342 -1.3724 -0.5116
  181SOPE  H18S20701   6.044   2.425   8.007  0.4407 -1.0388 -1.5474
  181SOPE  H18T20702   5.895   2.343   8.078  0.9543  0.7970  1.2634
  181SOPE   C3320703   6.378   2.202   6.693 -0.3533  0.7615  0.4738
  181SOPE   H3X20704   6.323   2.242   6.780 -1.2319 -1.5159  1.0441
  181SOPE   H3Y20705   6.406   2.280   6.619  1.1307 -0.9860 -0.8949
  181SOPE   C3420706   6.507   2.149   6.765  0.1793  0.2637 -0.5232
  181SOPE   H4X20707   6.556   2.092   6.682  1.1567  0.8031 -0.3359
  181SOPE   H4Y20708   6.475   2.064   6.828 -0.4441 -1.0178 -2.4868
  181SOPE   C3520709   6.593   2.249   6.837  0.3613 -0.0313  0.7828
  181SOPE   H5X20710   6.540   2.300   6.921  1.2063  1.3320  0.5327
  181SOPE   H5Y20711   6.618   2.330   6.765  0.6799 -1.4575 -0.7702
  181SOPE   C3620712   6.723   2.188   6.889 -0.3097 -0.1491  0.1032
  181SOPE   H6X20713   6.791   2.275   6.904 -0.7185  0.3784 -0.9503
  181SOPE   H6Y20714   6.770   2.125   6.810 -0.7268 -0.3935  0.0427
  181SOPE   C3720715   6.707   2.114   7.017 -0.6106  0.2621 -0.3381
  181SOPE   H7X20716   6.650   2.019   7.005 -0.7536  0.3127 -0.0677
  181SOPE   H7Y20717   6.653   2.182   7.087  1.0741 -2.2452  3.7755
  181SOPE   C3820718   6.843   2.078   7.089  0.6183 -0.6571 -0.3129
  181SOPE   H8X20719   6.887   2.179   7.102 -3.0231  1.0133  0.3928
  181SOPE   H8Y20720   6.908   2.030   7.014 -0.9417 -1.3060 -1.2986
  181SOPE   C3920721   6.824   2.002   7.214 -0.3881  0.5405 -0.0344
  181SOPE   H9X20722   6.928   1.986   7.251 -0.0744  3.2335  0.4633
  181SOPE   H9Y20723   6.773   1.904   7.204 -0.8204  0.6688  0.8117
  181SOPE  C31020724   6.735   2.065   7.324 -0.4845  0.2534 -0.2028
  181SOPE  H10X20725   6.634   2.073   7.278 -2.4390 -3.8366  2.7912
  181SOPE  H10Y20726   6.772   2.169   7.342 -1.2116  0.5447 -0.3512
  181SOPE  C31120727   6.730   1.977   7.456 -0.8279  0.3446 -0.1850
  181SOPE  H11X20728   6.831   1.931   7.450 -0.8555  0.0544  1.2473
  181SOPE  H11Y20729   6.647   1.904   7.446 -0.7822 -0.1609  2.4178
  181SOPE  C31220730   6.697   2.059   7.582  0.2094 -0.0493 -0.0942
  181SOPE  H12X20731   6.601   2.111   7.563 -0.6433 -0.8265  1.8192
  181SOPE  H12Y20732   6.766   2.147   7.587  1.1883 -0.6426 -2.1275
  181SOPE  C31320733   6.697   1.984   7.720  0.0502 -0.4501  0.9354
  181SOPE  H13X20734   6.802   1.962   7.751  1.3041  3.4576 -0.0168
  181SOPE  H13Y20735   6.651   1.882   7.718 -0.1764 -0.3389  0.0042
  181SOPE  C31420736   6.618   2.049   7.836 -0.5493  0.8032  0.0731
  181SOPE  H14X20737   6.519   2.086   7.801 -0.2415  1.4442 -0.1200
  181SOPE  H14Y20738   6.672   2.138   7.875 -1.8949  1.7162 -0.0544
  181SOPE  C31520739   6.590   1.957   7.949  0.1447  0.3177 -0.2125
  181SOPE  H15X20740   6.681   1.894   7.958 -0.5214 -0.5984  0.3453
  181SOPE  H15Y20741   6.520   1.874   7.922 -1.2509  1.5092 -0.3946
  181SOPE  C31620742   6.529   2.026   8.070 -0.2147  0.3399 -0.4180
  181SOPE  H16X20743   6.433   2.079   8.054 -1.3672 -1.8174 -1.1237
  181SOPE  H16Y20744   6.606   2.092   8.115 -0.7175  1.5316 -1.2561
  181SOPE  C31720745   6.497   1.919   8.183 -0.2938 -0.6330 -0.5107
  181SOPE  H17X20746   6.425   1.847   8.139 -1.6736 -0.2037  0.9325
  181SOPE  H17Y20747   6.441   1.964   8.268  1.4550  1.9503 -0.6225
  181SOPE  C31820748   6.622   1.839   8.230  0.1126  0.0208 -0.0411
  181SOPE  H18X20749   6.587   1.751   8.289 -1.6433  1.4958  1.2389
  181SOPE  H18Y20750   6.692   1.899   8.293  0.2415 -3.4122  3.4891
  181SOPE  H18Z20751   6.677   1.796   8.144 -1.0304 -2.7615  0.5243
  182SOPE     N20752   0.210   3.030   6.144 -0.1621 -0.6035 -0.4938
  182SOPE   HN120753   0.297   3.025   6.199  0.8089  0.2540 -1.8818
  182SOPE   HN220754   0.155   2.943   6.157 -0.3666 -0.2071  1.5317
  182SOPE   HN320755   0.230   3.037   6.042  3.5778  1.8138  0.2031
  182SOPE   C1220756   0.140   3.156   6.193 -0.4219 -0.5473 -0.4045
  182SOPE  H12A20757   0.031   3.159   6.168 -0.4752  1.3504 -0.0847
  182SOPE  H12B20758   0.199   3.227   6.132  1.3800 -3.8153 -2.7304
  182SOPE   C1120759   0.154   3.185   6.346 -0.1370  0.0611  0.4319
  182SOPE  H11A20760   0.075   3.132   6.402  0.0778  1.2365  1.8990
  182SOPE  H11B20761   0.128   3.291   6.366 -2.6026  0.1244 -2.3926
  182SOPE     P20762   0.397   3.247   6.434 -0.3283 -0.0072  0.0378
  182SOPE   O1320763   0.328   3.368   6.482 -0.2416 -0.0043  0.3195
  182SOPE   O1420764   0.497   3.252   6.323 -0.0819  0.1633  0.0161
  182SOPE   O1220765   0.278   3.141   6.400  0.1316 -0.0934 -0.1068
  182SOPE   O1120766   0.475   3.187   6.563 -0.2889 -0.0666 -0.3633
  182SOPE    C120767   0.406   3.118   6.666 -0.5835  0.4470  0.9368
  182SOPE    HA20768   0.438   3.012   6.677 -1.5270  0.0616  0.1933
  182SOPE    HB20769   0.296   3.133   6.657 -0.5908  0.6109  1.3089
  182SOPE    C220770   0.422   3.185   6.801  0.3079 -0.6435 -0.0720
  182SOPE    HS20771   0.348   3.129   6.861 -0.2438  0.5223  0.3479
  182SOPE   O2120772   0.379   3.322   6.793  0.1030 -0.1653 -0.1643
  182SOPE   C2120773   0.247   3.345   6.814  0.5297 -0.1325 -0.8791
  182SOPE   O2220774   0.157   3.256   6.812 -0.7045 -0.0626 -0.1482
  182SOPE   C2220775   0.231   3.493   6.848 -0.5752 -0.0492 -0.7135
  182SOPE   H2R20776   0.124   3.525   6.851 -0.0957  1.6174  0.1187
  182SOPE   H2S20777   0.270   3.546   6.759  0.9188 -0.1067 -0.1193
  182SOPE    C320778   0.566   3.181   6.858  0.3838  0.4178 -0.2561
  182SOPE    HX20779   0.621   3.251   6.791  0.2917  3.0726  2.2298
  182SOPE    HY20780   0.609   3.079   6.853  0.2174  0.4029 -1.7273
  182SOPE   O3120781   0.570   3.251   6.986  0.1052 -0.5181  0.4196
  182SOPE   C3120782   0.543   3.164   7.086  0.0917 -0.7041  0.2558
  182SOPE   O3220783   0.528   3.046   7.064 -0.5675 -0.2959 -0.6336
  182SOPE   C3220784   0.578   3.231   7.225  0.3443  0.4186 -0.4867
  182SOPE   H2X20785   0.583   3.342   7.214 -0.7322  0.4567 -0.7689
  182SOPE   H2Y20786   0.682   3.202   7.247 -0.8090 -1.6620  2.9052
  182SOPE   C2320787   0.297   3.527   6.985 -0.4327 -0.1882 -0.5619
  182SOPE   H3R20788   0.300   3.638   6.991 -0.6789 -0.2472  0.7679
  182SOPE   H3S20789   0.403   3.494   6.985  0.0346  1.0772  2.2438
  182SOPE   C2420790   0.216   3.487   7.107 -0.3845  0.6209  0.1073
  182SOPE   H4R20791   0.110   3.518   7.106 -1.5087 -2.6907  2.2351
  182SOPE   H4S20792   0.214   3.379   7.130  1.3701  0.3435 -0.8255
  182SOPE   C2520793   0.289   3.542   7.229 -0.0612  0.1922  0.6788
  182SOPE   H5R20794   0.389   3.496   7.241  1.1928  2.3172 -0.8049
  182SOPE   H5S20795   0.312   3.651   7.223 -1.0323  0.3950  0.4625
  182SOPE   C2620796   0.203   3.548   7.357  0.0187  0.3499  0.2427
  182SOPE   H6R20797   0.137   3.637   7.345 -1.2829 -0.6784 -0.5191
  182SOPE   H6S20798   0.144   3.456   7.377 -0.8345  0.8386  0.0271
  182SOPE   C2720799   0.285   3.571   7.491 -0.2590 -0.2167 -0.3879
  182SOPE   H7R20800   0.361   3.490   7.492 -0.8894 -0.8850  2.0706
  182SOPE   H7S20801   0.321   3.676   7.489  2.0958 -0.9861 -1.0380
  182SOPE   C2820802   0.197   3.551   7.615  0.6481  0.0816  0.2360
  182SOPE   H8R20803   0.114   3.625   7.616 -0.0865 -0.6519 -1.6716
  182SOPE   H8S20804   0.157   3.448   7.612 -0.9804  0.5610  2.5376
  182SOPE   C2920805   0.287   3.573   7.733 -0.4660  0.5696  0.8010
  182SOPE   H9120806   0.395   3.592   7.719 -0.2492 -0.9637  0.2170
  182SOPE  C21020807   0.240   3.609   7.858  0.3573 -0.3602 -0.0323
  182SOPE  H10120808   0.307   3.620   7.944  0.2528  1.7878 -0.1714
  182SOPE  C21120809   0.093   3.622   7.900 -0.7741  0.1118  0.2926
  182SOPE  H11R20810   0.023   3.611   7.814 -2.7042 -2.5841  2.0473
  182SOPE  H11S20811   0.080   3.720   7.950 -1.3535 -1.0123  2.4756
  182SOPE  C21220812   0.043   3.515   8.002 -0.0365  0.3867  0.6727
  182SOPE  H12R20813   0.066   3.415   7.960 -2.4748  0.3119 -0.6512
  182SOPE  H12S20814  -0.067   3.512   8.019 -0.4277 -1.8819 -1.6859
  182SOPE  C21320815   0.115   3.523   8.132  0.0763  0.3682 -0.4023
  182SOPE  H13R20816   0.086   3.602   8.205 -2.3468 -1.5706  0.8771
  182SOPE  H13S20817   0.223   3.525   8.104  0.1151 -1.9942 -0.5944
  182SOPE  C21420818   0.092   3.397   8.224  0.3003 -0.1736 -0.0129
  182SOPE  H14R20819   0.128   3.315   8.157  1.0206  0.3157 -0.2384
  182SOPE  H14S20820  -0.018   3.387   8.234  0.2260  0.2206 -0.3921
  182SOPE  C21520821   0.174   3.387   8.356  0.3644  0.3428 -0.4298
  182SOPE  H15R20822   0.127   3.460   8.426  0.8548 -0.2823  0.5756
  182SOPE  H15S20823   0.272   3.435   8.333  0.7828  1.1260  2.5452
  182SOPE  C21620824   0.195   3.245   8.404 -0.9302 -0.0675  0.3855
  182SOPE  H16R20825   0.264   3.196   8.331 -0.7996  0.5102  0.1150
  182SOPE  H16S20826   0.102   3.184   8.413 -0.6105 -0.4896  0.8305
  182SOPE  C21720827   0.257   3.231   8.542 -0.3969 -0.2531  0.4756
  182SOPE  H17R20828   0.200   3.301   8.606  0.7115  1.8352 -0.6975
  182SOPE  H17S20829   0.358   3.278   8.539 -0.0513 -1.0264 -0.6151
  182SOPE  C21820830   0.250   3.082   8.587 -0.5543 -0.0888  0.1230
  182SOPE  H18R20831   0.317   3.057   8.672 -0.4184 -0.9949 -0.2414
  182SOPE  H18S20832   0.279   3.027   8.495 -1.7121 -2.2414  0.9792
  182SOPE  H18T20833   0.146   3.060   8.618 -1.4494 -1.3566 -3.3329
  182SOPE   C3320834   0.484   3.176   7.338 -0.4915 -0.2819  0.1979
  182SOPE   H3X20835   0.482   3.066   7.326  0.6552 -0.2609 -0.3682
  182SOPE   H3Y20836   0.382   3.219   7.330  0.1443  1.6368  1.4345
  182SOPE   C3420837   0.533   3.218   7.477  0.1946  0.1077 -0.5440
  182SOPE   H4X20838   0.535   3.326   7.501 -1.8133  0.1919 -0.5265
  182SOPE   H4Y20839   0.624   3.164   7.511  0.1392  0.1213 -0.3721
  182SOPE   C3520840   0.418   3.184   7.573 -0.0506  0.3040 -0.5628
  182SOPE   H5X20841   0.396   3.075   7.569  0.8420  0.0363  0.9833
  182SOPE   H5Y20842   0.328   3.242   7.542  0.0345  0.1179 -1.1820
  182SOPE   C3620843   0.459   3.210   7.720 -0.0620 -0.0682  0.7741
  182SOPE   H6X20844   0.517   3.305   7.721 -0.6560  0.3303 -0.6824
  182SOPE   H6Y20845   0.545   3.144   7.745 -0.2713 -1.2126 -1.2900
  182SOPE   C3720846   0.336   3.213   7.799  0.1134 -0.4049  0.5395
  182SOPE   H7X20847   0.286   3.115   7.787  1.7086 -1.1226 -0.5465
  182SOPE   H7Y20848   0.271   3.291   7.752  3.2224  1.7938 -0.4842
  182SOPE   C3820849   0.357   3.250   7.945 -0.2843 -0.3510  0.0312
  182SOPE   H8X20850   0.257   3.260   7.993 -0.7580  0.0048 -1.0114
  182SOPE   H8Y20851   0.414   3.345   7.956  1.2552 -1.2177 -0.1647
  182SOPE   C3920852   0.429   3.137   8.022  0.1416  0.7876  0.3625
  182SOPE   H9X20853   0.520   3.107   7.965  0.4466 -0.8966  1.6569
  182SOPE   H9Y20854   0.355   3.056   8.040 -1.8507  2.1514 -1.2674
  182SOPE  C31020855   0.486   3.182   8.158  0.7337  0.0904 -0.2460
  182SOPE  H10X20856   0.482   3.086   8.215 -0.4719  1.0661  1.4205
  182SOPE  H10Y20857   0.418   3.258   8.202 -0.6355 -0.8476 -0.6696
  182SOPE  C31120858   0.628   3.237   8.145 -1.4556 -0.5507  0.0513
  182SOPE  H11X20859   0.626   3.336   8.095 -0.9606 -1.0871 -1.0782
  182SOPE  H11Y20860   0.681   3.157   8.089 -2.2727 -1.9097  1.1529
  182SOPE  C31220861   0.700   3.238   8.280  0.3002  0.5964  0.1341
  182SOPE  H12X20862   0.811   3.239   8.276  0.3155  1.9384  0.2133
  182SOPE  H12Y20863   0.670   3.147   8.336 -0.3347  0.0596 -1.0343
  182SOPE  C31320864   0.660   3.354   8.371  0.4072  0.3987  0.8462
  182SOPE  H13X20865   0.551   3.373   8.364 -0.4703 -3.8018  0.3862
  182SOPE  H13Y20866   0.723   3.435   8.328  1.7494 -0.5641  0.9260
  182SOPE  C31420867   0.693   3.333   8.520 -0.3992  0.4227  0.6730
  182SOPE  H14X20868   0.799   3.303   8.527 -0.2751  0.6187 -0.1850
  182SOPE  H14Y20869   0.625   3.264   8.573  1.5511 -0.9498  1.4844
  182SOPE  C31520870   0.674   3.462   8.599 -0.0098 -0.6668  0.0568
  182SOPE  H15X20871   0.568   3.497   8.599 -0.1340 -0.9027  1.8794
  182SOPE  H15Y20872   0.744   3.538   8.558 -0.5293 -0.6268 -0.7689
  182SOPE  C31620873   0.711   3.452   8.751 -0.3846 -0.1862 -0.3453
  182SOPE  H16X20874   0.813   3.410   8.763  0.1543  0.4294 -2.3257
  182SOPE  H16Y20875   0.631   3.393   8.800  1.9317 -1.6817  1.8645
  182SOPE  C31720876   0.714   3.587   8.818 -0.6701  0.2581  0.0704
  182SOPE  H17X20877   0.636   3.649   8.768 -0.9339 -0.5005 -0.4789
  182SOPE  H17Y20878   0.810   3.640   8.798 -0.2612  0.4101  2.1919
  182SOPE  C31820879   0.714   3.567   8.970  0.4669 -0.7038 -0.2561
  182SOPE  H18X20880   0.807   3.518   9.005  1.5163 -0.3833 -2.4056
  182SOPE  H18Y20881   0.628   3.504   9.000  0.3113 -0.6715 -0.6203
  182SOPE  H18Z20882   0.701   3.664   9.022 -0.8285  0.5323 -2.7105
  183SOPE     N20883   2.917   2.872   6.295  0.0835 -0.1756  0.5661
  183SOPE   HN120884   2.976   2.944   6.249 -0.7353 -0.8106 -1.6044
  183SOPE   HN220885   2.827   2.864   6.245  0.3203  1.6409 -0.2110
  183SOPE   HN320886   2.899   2.904   6.392 -0.3008 -2.6849  1.4130
  183SOPE   C1220887   2.988   2.738   6.293 -0.0255  0.3427 -0.3843
  183SOPE  H12A20888   3.097   2.755   6.310  0.4756 -1.6041 -1.3060
  183SOPE  H12B20889   2.974   2.697   6.191  1.2424 -0.8802 -0.1032
  183SOPE   C1120890   2.932   2.652   6.408 -0.9070 -0.2721  0.5462
  183SOPE  H11A20891   2.949   2.690   6.511 -1.5481 -0.8062  0.8578
  183SOPE  H11B20892   2.976   2.551   6.392 -1.4355 -0.6690  1.5058
  183SOPE     P20893   2.710   2.517   6.356  0.3156  0.2943  0.6280
  183SOPE   O1320894   2.795   2.412   6.296 -0.1339  0.8075 -0.6914
  183SOPE   O1420895   2.589   2.558   6.279 -0.0681  1.1797  0.3028
  183SOPE   O1220896   2.791   2.648   6.394 -0.5374  0.3795 -0.3302
  183SOPE   O1120897   2.665   2.473   6.495 -0.0583 -0.2162  0.2748
  183SOPE    C120898   2.747   2.446   6.608 -0.1780 -0.3037 -0.1397
  183SOPE    HA20899   2.687   2.448   6.702  1.2341  0.5804  0.7631
  183SOPE    HB20900   2.813   2.531   6.635 -2.1729  0.5633  2.4451
  183SOPE    C220901   2.814   2.306   6.601  0.0295  0.3389  0.5083
  183SOPE    HS20902   2.870   2.297   6.505 -3.5892 -0.4187 -1.7492
  183SOPE   O2120903   2.697   2.215   6.617 -0.5160  0.2181 -0.1770
  183SOPE   C2120904   2.716   2.093   6.557  0.2231 -0.8873 -0.8392
  183SOPE   O2220905   2.816   2.058   6.496 -0.2643  0.0797 -0.7994
  183SOPE   C2220906   2.597   2.003   6.569  0.0509 -0.0210  0.2908
  183SOPE   H2R20907   2.615   1.913   6.507 -0.6271 -0.6791  1.0310
  183SOPE   H2S20908   2.511   2.049   6.515  0.5483 -0.9886 -1.4215
  183SOPE    C320909   2.916   2.297   6.712  0.2590 -0.9218 -0.0572
  183SOPE    HX20910   2.988   2.382   6.705 -0.7264 -0.1851 -4.7761
  183SOPE    HY20911   2.991   2.216   6.700  0.4520 -0.7014 -0.3556
  183SOPE   O3120912   2.855   2.309   6.838  0.4126 -0.4278  0.1076
  183SOPE   C3120913   2.938   2.305   6.938  0.2476 -0.4563 -0.1922
  183SOPE   O3220914   3.059   2.284   6.924  0.3650 -0.4307  0.0139
  183SOPE   C3220915   2.866   2.347   7.059 -0.5120 -0.1049  0.0600
  183SOPE   H2X20916   2.811   2.438   7.027  0.9437  0.9760  0.5012
  183SOPE   H2Y20917   2.935   2.364   7.144 -0.3411  0.7154 -0.2347
  183SOPE   C2320918   2.563   1.953   6.708 -1.1109 -0.0730 -0.2320
  183SOPE   H3R20919   2.463   1.904   6.716 -2.1647  2.1188  0.7560
  183SOPE   H3S20920   2.563   2.039   6.777 -0.8363  0.1700 -0.5299
  183SOPE   C2420921   2.666   1.852   6.760 -1.2836  0.0066 -0.4005
  183SOPE   H4R20922   2.649   1.761   6.698 -4.6047  0.5976 -0.5588
  183SOPE   H4S20923   2.769   1.888   6.739 -0.4484 -0.5437  2.3801
  183SOPE   C2520924   2.652   1.813   6.907  0.3642 -0.9838  0.4126
  183SOPE   H5R20925   2.675   1.897   6.976  0.6377 -0.9566  0.2869
  183SOPE   H5S20926   2.551   1.773   6.932  0.3169 -1.2536 -0.1919
  183SOPE   C2620927   2.748   1.706   6.950 -0.4966 -0.2591  0.7295
  183SOPE   H6R20928   2.733   1.616   6.886  0.8386  0.2029 -0.2780
  183SOPE   H6S20929   2.852   1.737   6.924 -0.6058 -1.5199 -1.4062
  183SOPE   C2720930   2.749   1.692   7.099 -0.1226  0.0892 -0.1684
  183SOPE   H7R20931   2.777   1.788   7.148 -1.5381  0.7219 -0.5546
  183SOPE   H7S20932   2.643   1.680   7.131 -0.4823  1.4139 -0.7909
  183SOPE   C2820933   2.842   1.573   7.143  0.6781 -0.0712 -0.3243
  183SOPE   H8R20934   2.801   1.488   7.084 -0.6950 -0.9609  1.7764
  183SOPE   H8S20935   2.950   1.587   7.124  1.2154 -0.7643  1.9771
  183SOPE   C2920936   2.811   1.554   7.287 -0.1177 -0.1447 -0.0679
  183SOPE   H9120937   2.713   1.508   7.306  0.3896 -1.2558 -0.0486
  183SOPE  C21020938   2.896   1.560   7.392 -0.2700  0.3305 -0.4990
  183SOPE  H10120939   2.855   1.543   7.492 -2.3564 -3.2259 -1.7926
  183SOPE  C21120940   3.046   1.593   7.376 -0.6209  0.1372  0.4360
  183SOPE  H11R20941   3.072   1.664   7.295  1.7835 -0.0492  0.9627
  183SOPE  H11S20942   3.092   1.492   7.361 -1.7556 -0.1657 -1.2226
  183SOPE  C21220943   3.095   1.664   7.502  0.1927  0.7312  0.6349
  183SOPE  H12R20944   3.056   1.768   7.511  1.4364  1.3332 -0.6399
  183SOPE  H12S20945   3.205   1.671   7.489  0.2642  0.0709  0.8470
  183SOPE  C21320946   3.081   1.591   7.635  0.7808  0.2756  0.3226
  183SOPE  H13R20947   3.088   1.481   7.629  2.1384  0.4169 -1.0386
  183SOPE  H13S20948   2.974   1.608   7.661  0.8995  1.1042  0.3016
  183SOPE  C21420949   3.159   1.642   7.757  0.3181 -0.3705 -0.7676
  183SOPE  H14R20950   3.172   1.752   7.754  1.4713 -0.5063 -2.0443
  183SOPE  H14S20951   3.262   1.601   7.750 -0.0148 -1.4633  0.4174
  183SOPE  C21520952   3.095   1.612   7.892 -0.1064  0.1376  0.0331
  183SOPE  H15R20953   3.096   1.501   7.894 -0.6595 -0.0248 -3.2812
  183SOPE  H15S20954   2.989   1.645   7.896 -1.6785 -4.0511 -1.9984
  183SOPE  C21620955   3.173   1.675   8.013  0.8926 -0.1664 -0.3142
  183SOPE  H16R20956   3.199   1.780   7.989 -0.1860  0.0530 -0.5549
  183SOPE  H16S20957   3.265   1.615   8.031  0.3974 -1.0164 -0.5681
  183SOPE  C21720958   3.077   1.679   8.133 -0.3466  0.1322 -0.3920
  183SOPE  H17R20959   3.053   1.574   8.158 -0.3619 -0.2962 -2.0839
  183SOPE  H17S20960   2.981   1.732   8.114 -0.9787  0.1722  2.4448
  183SOPE  C21820961   3.151   1.734   8.254 -0.2918 -0.8322  0.8181
  183SOPE  H18R20962   3.190   1.837   8.238  1.2178 -1.5673 -0.4602
  183SOPE  H18S20963   3.244   1.677   8.274  1.7435  1.7937 -0.5703
  183SOPE  H18T20964   3.102   1.737   8.354 -1.0264  1.1431  0.4549
  183SOPE   C3320965   2.769   2.228   7.089 -0.0948 -0.3695 -0.2744
  183SOPE   H3X20966   2.731   2.177   6.998  0.4918 -0.3388 -0.5348
  183SOPE   H3Y20967   2.679   2.275   7.135 -0.9218 -0.6435 -1.5499
  183SOPE   C3420968   2.830   2.118   7.182  0.3232  0.1855  0.4974
  183SOPE   H4X20969   2.929   2.087   7.140 -0.9000 -0.4053 -2.1691
  183SOPE   H4Y20970   2.753   2.038   7.183 -0.0289  0.4710 -1.0040
  183SOPE   C3520971   2.844   2.169   7.320 -0.7675  0.2897 -0.4912
  183SOPE   H5X20972   2.740   2.196   7.347 -0.2540  1.8418  0.0290
  183SOPE   H5Y20973   2.897   2.266   7.327  2.2733 -1.2841  0.3407
  183SOPE   C3620974   2.887   2.060   7.421 -0.3741 -0.2400  0.6501
  183SOPE   H6X20975   2.984   2.017   7.388  0.0608 -1.4999  3.2725
  183SOPE   H6Y20976   2.811   1.979   7.424  0.5098 -1.1068  0.2894
  183SOPE   C3720977   2.936   2.133   7.546 -0.0662  0.2257 -0.2211
  183SOPE   H7X20978   2.861   2.209   7.577 -0.7795 -0.5226 -0.0741
  183SOPE   H7Y20979   3.038   2.176   7.535  0.0526 -0.2534 -1.0828
  183SOPE   C3820980   2.925   2.031   7.661 -0.7872  0.0510 -0.0487
  183SOPE   H8X20981   2.966   1.933   7.629  0.0804  0.2398  0.4659
  183SOPE   H8Y20982   2.816   2.015   7.674 -0.5643 -1.2831  0.3446
  183SOPE   C3920983   2.990   2.097   7.783 -0.2153 -0.0381 -0.1674
  183SOPE   H9X20984   2.948   2.200   7.790 -0.5166 -0.2316  1.2005
  183SOPE   H9Y20985   3.098   2.106   7.757 -0.4148  0.0294 -0.9982
  183SOPE  C31020986   2.964   2.026   7.918 -0.3036  0.0199 -0.4005
  183SOPE  H10X20987   2.978   1.916   7.910  3.2464  0.1364  2.0114
  183SOPE  H10Y20988   2.856   2.038   7.939 -0.0923 -0.2814  0.9577
  183SOPE  C31120989   3.030   2.085   8.045  0.4030 -0.1853  0.2533
  183SOPE  H11X20990   3.138   2.063   8.033  0.0811 -1.9285  0.2567
  183SOPE  H11Y20991   2.994   2.043   8.141 -1.3894  2.2278  0.7367
  183SOPE  C31220992   2.997   2.235   8.057  0.5665  0.6387  0.3324
  183SOPE  H12X20993   2.889   2.258   8.071  0.6842  0.5243  1.5096
  183SOPE  H12Y20994   3.025   2.277   7.958 -0.3030 -1.4711 -0.8686
  183SOPE  C31320995   3.074   2.301   8.166  0.5981  0.0977 -1.1182
  183SOPE  H13X20996   3.076   2.411   8.149  2.2002  0.4694  1.0280
  183SOPE  H13Y20997   3.177   2.260   8.166  0.2198 -0.9620  0.5678
  183SOPE  C31420998   3.001   2.268   8.305  0.4192 -0.4259  0.0389
  183SOPE  H14X20999   3.000   2.157   8.312  1.1594 -0.4075  0.4924
  183SOPE  H14Y21000   2.891   2.285   8.303 -0.1901 -3.5473  1.1304
  183SOPE  C31521001   3.058   2.333   8.434 -0.4420 -0.1575 -0.5863
  183SOPE  H15X21002   3.089   2.438   8.416 -1.5578  0.6512  1.7621
  183SOPE  H15Y21003   3.149   2.274   8.459 -1.6507 -1.9960 -0.3392
  183SOPE  C31621004   2.965   2.345   8.557  0.5169 -0.4933  0.4939
  183SOPE  H16X21005   2.873   2.399   8.527 -0.2568 -2.3973 -0.7847
  183SOPE  H16Y21006   3.015   2.414   8.628  0.1572  1.5838 -1.1890
  183SOPE  C31721007   2.939   2.213   8.623  0.6190 -0.9285 -0.7213
  183SOPE  H17X21008   3.037   2.167   8.648  0.3775 -0.7883  0.5403
  183SOPE  H17Y21009   2.881   2.148   8.553  1.9796 -0.9995 -1.8398
  183SOPE  C31821010   2.860   2.226   8.761 -0.1917 -0.6814 -0.7462
  183SOPE  H18X21011   2.766   2.284   8.752  1.4859  2.3860 -0.1274
  183SOPE  H18Y21012   2.907   2.297   8.832 -1.2424  0.7929 -1.4740
  183SOPE  H18Z21013   2.847   2.125   8.805  0.2370 -1.5890 -2.5983
  184SOPE     N21014   3.211   1.265   6.149  0.1294 -0.5076 -0.1969
  184SOPE   HN121015   3.311   1.295   6.146  0.4489 -1.5853 -1.1567
  184SOPE   HN221016   3.214   1.161   6.142  0.0131 -0.5910  0.8434
  184SOPE   HN321017   3.168   1.298   6.061 -0.0005  1.2032  0.4805
  184SOPE   C1221018   3.144   1.314   6.281 -0.8898 -0.1644  0.8726
  184SOPE  H12A21019   3.144   1.424   6.268  0.1065 -0.4527 -2.4290
  184SOPE  H12B21020   3.200   1.273   6.368 -0.8621 -0.4469  0.7220
  184SOPE   C1121021   3.000   1.256   6.281  0.0072 -0.0690  0.4073
  184SOPE  H11A21022   2.951   1.282   6.377  1.1169  0.7354  0.7796
  184SOPE  H11B21023   3.003   1.145   6.282  1.9464 -0.0459  1.8271
  184SOPE     P21024   2.783   1.240   6.156  0.4547  0.1213 -0.2376
  184SOPE   O1321025   2.802   1.099   6.120 -0.0348  0.3090  0.1793
  184SOPE   O1421026   2.700   1.322   6.068  0.4572 -0.1367  0.6944
  184SOPE   O1221027   2.923   1.308   6.173 -0.2123 -0.0830 -0.1451
  184SOPE   O1121028   2.717   1.249   6.298  0.1290 -0.0832 -0.5201
  184SOPE    C121029   2.652   1.368   6.345 -0.2035  0.0475  0.3998
  184SOPE    HA21030   2.561   1.336   6.401  0.3210 -0.5140  0.9482
  184SOPE    HB21031   2.615   1.433   6.263 -0.5161  3.9407  3.3281
  184SOPE    C221032   2.732   1.445   6.446 -0.0967 -0.0481 -0.1162
  184SOPE    HS21033   2.827   1.476   6.398 -0.0595 -2.0234 -1.3941
  184SOPE   O2121034   2.763   1.354   6.562  0.6488 -0.0669  0.5898
  184SOPE   C2121035   2.808   1.404   6.666  0.1650  0.0163 -0.4753
  184SOPE   O2221036   2.876   1.506   6.670 -0.2314  0.1683 -0.1754
  184SOPE   C2221037   2.769   1.328   6.798 -0.0293 -0.0239  0.1289
  184SOPE   H2R21038   2.676   1.370   6.840 -0.2649  2.6180 -2.6339
  184SOPE   H2S21039   2.850   1.345   6.872 -1.1019  1.7611  0.9611
  184SOPE    C321040   2.656   1.574   6.476  0.7942  0.2895  0.0363
  184SOPE    HX21041   2.622   1.623   6.382 -0.5834  1.4775  1.1071
  184SOPE    HY21042   2.724   1.649   6.521  1.6660  0.3174 -1.2722
  184SOPE   O3121043   2.552   1.551   6.567  0.0416 -0.2945 -0.1800
  184SOPE   C3121044   2.426   1.526   6.535  0.0769 -0.2047 -0.8084
  184SOPE   O3221045   2.380   1.530   6.426 -0.0834 -0.1837  0.7416
  184SOPE   C3221046   2.341   1.492   6.656 -0.4953 -0.4543  0.1872
  184SOPE   H2X21047   2.261   1.422   6.625 -0.0290 -0.4216 -1.1615
  184SOPE   H2Y21048   2.288   1.582   6.693 -0.3523 -0.7975  1.2586
  184SOPE   C2321049   2.756   1.174   6.776 -0.1935 -0.5090 -0.5594
  184SOPE   H3R21050   2.809   1.131   6.689 -1.3701  0.5241 -1.8442
  184SOPE   H3S21051   2.647   1.161   6.757 -0.2993 -3.0869  1.3732
  184SOPE   C2421052   2.791   1.085   6.901 -0.4828 -0.0305  0.0921
  184SOPE   H4R21053   2.769   0.979   6.876  0.5069 -0.1537 -0.2874
  184SOPE   H4S21054   2.897   1.108   6.926 -0.6343  2.4236 -1.1912
  184SOPE   C2521055   2.708   1.127   7.023 -0.0265 -0.9058  0.2463
  184SOPE   H5R21056   2.707   1.236   7.042 -1.5528 -0.8204 -0.1811
  184SOPE   H5S21057   2.600   1.107   7.002  0.2754 -1.2811 -1.0420
  184SOPE   C2621058   2.742   1.053   7.156 -0.6522  0.1353 -0.1571
  184SOPE   H6R21059   2.651   1.060   7.219 -0.0476 -1.5449  0.9398
  184SOPE   H6S21060   2.767   0.948   7.131  1.6760  0.5181  0.3525
  184SOPE   C2721061   2.851   1.123   7.231 -0.9422 -0.2672 -0.6932
  184SOPE   H7R21062   2.946   1.094   7.180 -1.4132  2.0899 -3.1553
  184SOPE   H7S21063   2.838   1.233   7.239 -1.5895 -0.0980 -3.1830
  184SOPE   C2821064   2.854   1.064   7.377  0.0999 -0.1214  0.0998
  184SOPE   H8R21065   2.760   1.090   7.430  1.1525  0.8968  1.5619
  184SOPE   H8S21066   2.856   0.953   7.373 -0.9030 -0.1317 -0.3533
  184SOPE   C2921067   2.975   1.109   7.452 -0.2215  0.2771 -0.6823
  184SOPE   H9121068   3.069   1.081   7.403 -0.1458 -0.4191 -0.1402
  184SOPE  C21021069   2.981   1.190   7.562 -0.1333  0.4100  0.0391
  184SOPE  H10121070   3.076   1.209   7.614 -0.8513  1.8598  0.8863
  184SOPE  C21121071   2.865   1.249   7.636  0.2356  0.0518 -0.0457
  184SOPE  H11R21072   2.774   1.243   7.572  1.0160  2.8978 -1.5875
  184SOPE  H11S21073   2.880   1.358   7.650 -2.0491  0.5786 -1.2518
  184SOPE  C21221074   2.849   1.175   7.765  0.0027 -0.3239 -0.7812
  184SOPE  H12R21075   2.824   1.067   7.755 -2.2660  0.0135  0.5128
  184SOPE  H12S21076   2.752   1.209   7.808 -1.0659 -3.1367 -0.7240
  184SOPE  C21321077   2.965   1.190   7.872 -1.1517 -0.1618 -0.0646
  184SOPE  H13R21078   2.983   1.300   7.876 -0.4375 -0.2956  0.5294
  184SOPE  H13S21079   3.053   1.137   7.830  0.6051  2.6480 -0.2323
  184SOPE  C21421080   2.923   1.145   8.008  0.1172 -0.1727 -0.0501
  184SOPE  H14R21081   2.813   1.157   8.017 -0.0229 -0.8204 -0.7771
  184SOPE  H14S21082   2.966   1.218   8.080  2.8649  1.0499 -2.6912
  184SOPE  C21521083   2.981   1.006   8.045  0.3188  0.0231 -0.0037
  184SOPE  H15R21084   3.091   1.005   8.059  0.1506  1.4423  1.9028
  184SOPE  H15S21085   2.958   0.934   7.964  0.7332 -0.5741  0.4025
  184SOPE  C21621086   2.911   0.948   8.166 -0.4734  0.2025 -0.0071
  184SOPE  H16R21087   2.907   1.023   8.248  0.8420 -0.0009  0.2706
  184SOPE  H16S21088   2.968   0.857   8.192 -1.7891 -0.2122  1.5541
  184SOPE  C21721089   2.769   0.893   8.145  0.1105 -0.2281  0.2029
  184SOPE  H17R21090   2.769   0.832   8.052 -2.3455 -0.8681  0.5374
  184SOPE  H17S21091   2.704   0.980   8.121  1.1016  1.1176  2.1114
  184SOPE  C21821092   2.702   0.820   8.260 -0.1695 -0.1265  0.4661
  184SOPE  H18R21093   2.719   0.883   8.350  0.0990  0.3562  0.0845
  184SOPE  H18S21094   2.752   0.725   8.288  1.6081  0.5004 -0.3792
  184SOPE  H18T21095   2.595   0.796   8.245 -0.0637 -0.2634 -0.1301
  184SOPE   C3321096   2.407   1.411   6.769 -0.1174 -0.1729  0.2736
  184SOPE   H3X21097   2.503   1.463   6.791 -0.3128  0.3301 -0.0484
  184SOPE   H3Y21098   2.429   1.309   6.734 -0.5530 -0.1220 -0.1524
  184SOPE   C3421099   2.330   1.423   6.906 -0.2300 -0.1134  0.1612
  184SOPE   H4X21100   2.225   1.385   6.899  0.0478 -0.8205 -0.3092
  184SOPE   H4Y21101   2.327   1.532   6.925  0.9011  0.6681 -3.5333
  184SOPE   C3521102   2.402   1.352   7.021  0.0600 -0.7595  0.0055
  184SOPE   H5X21103   2.511   1.369   7.012  0.1601  0.0030  2.1759
  184SOPE   H5Y21104   2.390   1.242   7.011 -0.6261 -0.5262 -2.3152
  184SOPE   C3621105   2.345   1.390   7.161 -0.0339 -0.0026 -0.2422
  184SOPE   H6X21106   2.260   1.323   7.186 -0.7854  0.7978 -0.6087
  184SOPE   H6Y21107   2.316   1.497   7.170  1.5528  0.3184  1.8816
  184SOPE   C3721108   2.451   1.392   7.270 -0.2143  0.0715 -0.1722
  184SOPE   H7X21109   2.537   1.458   7.244 -0.2205  1.7537  3.4987
  184SOPE   H7Y21110   2.477   1.285   7.286 -3.1989 -0.5832  0.8049
  184SOPE   C3821111   2.398   1.427   7.408  0.4624  0.1888 -0.0978
  184SOPE   H8X21112   2.303   1.375   7.432  1.2668 -0.8914  0.8490
  184SOPE   H8Y21113   2.384   1.537   7.402 -2.4209 -0.1765 -1.8456
  184SOPE   C3921114   2.503   1.390   7.509  0.5432 -0.2710  0.0302
  184SOPE   H9X21115   2.607   1.422   7.486  0.3108  0.9746  0.6166
  184SOPE   H9Y21116   2.520   1.281   7.525 -0.3402 -0.2580  1.2395
  184SOPE  C31021117   2.462   1.442   7.650  0.4445  0.5306 -0.3102
  184SOPE  H10X21118   2.364   1.398   7.678  0.3985 -0.8121 -2.3518
  184SOPE  H10Y21119   2.439   1.550   7.641  0.0912  0.3026 -2.7560
  184SOPE  C31121120   2.568   1.417   7.749 -0.0417 -0.0483  0.4189
  184SOPE  H11X21121   2.661   1.471   7.720 -1.1094  1.6241 -0.0364
  184SOPE  H11Y21122   2.593   1.309   7.757 -0.4020 -0.2246 -0.7032
  184SOPE  C31221123   2.528   1.470   7.890 -0.7077 -0.2294 -0.3420
  184SOPE  H12X21124   2.427   1.432   7.915 -0.2613  0.2224  2.3892
  184SOPE  H12Y21125   2.520   1.581   7.880 -1.4143 -0.3218 -0.9343
  184SOPE  C31321126   2.633   1.457   8.003 -0.2368  0.3672  0.0952
  184SOPE  H13X21127   2.726   1.514   7.981 -0.5750  1.2237  0.8031
  184SOPE  H13Y21128   2.668   1.354   8.026 -3.2742 -0.4757  1.4067
  184SOPE  C31421129   2.579   1.506   8.142  0.2406  0.5939 -0.2163
  184SOPE  H14X21130   2.547   1.611   8.124  2.5721  1.9878  2.8472
  184SOPE  H14Y21131   2.659   1.509   8.218  0.6608  2.7045 -0.6698
  184SOPE  C31521132   2.466   1.414   8.204 -0.6931 -0.9560  0.4797
  184SOPE  H15X21133   2.519   1.323   8.241  1.1805 -0.2372 -0.2880
  184SOPE  H15Y21134   2.390   1.389   8.127  0.2151 -1.3198 -0.3265
  184SOPE  C31621135   2.375   1.467   8.319 -0.5778  0.4166 -0.5443
  184SOPE  H16X21136   2.421   1.473   8.420 -2.6232 -1.4129  0.5773
  184SOPE  H16Y21137   2.292   1.395   8.334  0.3016 -0.1874  1.6894
  184SOPE  C31721138   2.314   1.609   8.308 -0.9868  0.9255  0.1128
  184SOPE  H17X21139   2.278   1.628   8.205 -1.5192  1.5428  0.4025
  184SOPE  H17Y21140   2.396   1.684   8.312  0.7559 -0.7611 -1.9097
  184SOPE  C31821141   2.208   1.634   8.415  0.8058  0.3529 -0.3434
  184SOPE  H18X21142   2.122   1.566   8.398  1.4755 -0.8270  0.8300
  184SOPE  H18Y21143   2.177   1.739   8.393  0.1749  0.2194 -0.1048
  184SOPE  H18Z21144   2.248   1.611   8.516 -0.7337 -1.2523 -0.0532
  185SAPI   C1221145   5.240   0.216  11.071  0.8693  0.1054 -0.7579
  185SAPI    H221146   5.279   0.244  10.971 -1.2370  0.0807 -1.6362
  185SAPI    O221147   5.242   0.343  11.141 -0.0753 -0.0108 -0.1451
  185SAPI   HO221148   5.303   0.392  11.085  0.9980 -1.3349 -0.1801
  185SAPI   C1321149   5.098   0.162  11.052 -0.4824 -0.4817 -0.4324
  185SAPI    H321150   5.100   0.066  10.997  1.7178 -0.3540 -0.6534
  185SAPI    O321151   5.014   0.248  10.978 -0.1338  0.1623  0.5740
  185SAPI   HO321152   4.926   0.210  10.976  0.3519 -0.9844 -1.0963
  185SAPI   C1421153   5.038   0.136  11.187  0.1583 -0.9144  0.0373
  185SAPI    H421154   5.042   0.228  11.249  1.1075 -0.7623 -0.2401
  185SAPI    O421155   4.899   0.102  11.178 -0.0436 -0.3325  0.3341
  185SAPI   HO421156   4.893   0.016  11.221 -0.4492  0.5321  2.1042
  185SAPI   C1521157   5.120   0.028  11.256  0.3854 -0.0981 -0.6272
  185SAPI    H521158   5.120  -0.067  11.198 -0.9089  0.9329 -2.3946
  185SAPI    O521159   5.063   0.001  11.389 -0.2551  0.3371  0.2281
  185SAPI   HO521160   5.100  -0.078  11.428  1.1890  1.2434  0.7899
  185SAPI   C1621161   5.265   0.069  11.269  0.2908 -0.2465 -0.4884
  185SAPI    H621162   5.278   0.157  11.336 -0.1335  1.7124 -2.8138
  185SAPI    O621163   5.339  -0.042  11.321 -0.1249  0.3839  0.2391
  185SAPI   HO621164   5.417  -0.043  11.265 -0.6446 -1.1105 -0.5254
  185SAPI   C1121165   5.328   0.112  11.134 -0.4140 -0.3702 -0.4955
  185SAPI    H121166   5.321   0.021  11.072 -2.3321 -0.1594 -0.6348
  185SAPI     P21167   5.597   0.090  11.110  0.4898  0.1239 -0.0663
  185SAPI   O1321168   5.606  -0.043  11.176 -0.0323  0.5228  0.3811
  185SAPI   O1421169   5.713   0.182  11.131 -0.4385  0.3107 -0.2076
  185SAPI   O1221170   5.458   0.160  11.152  0.1259 -0.0430 -0.0433
  185SAPI   O1121171   5.564   0.069  10.957  0.0315  0.0194 -0.0935
  185SAPI    C121172   5.576   0.165  10.861  0.7623  0.0110  0.1542
  185SAPI    HA21173   5.475   0.209  10.848 -0.1075 -1.4814  1.4616
  185SAPI    HB21174   5.651   0.244  10.886 -0.4263  1.3617 -0.4388
  185SAPI    C221175   5.615   0.102  10.722  0.6764 -0.2076  0.3046
  185SAPI    HS21176   5.602   0.186  10.651 -0.6066  0.8110  1.6642
  185SAPI   O2121177   5.540  -0.014  10.686  0.7316  0.3740 -0.4300
  185SAPI   C2121178   5.413   0.012  10.650 -0.2207 -0.4193  0.3648
  185SAPI   O2221179   5.359   0.125  10.644 -0.1505  0.1619  0.3497
  185SAPI   C2221180   5.337  -0.107  10.596 -0.7979 -0.1700  0.1697
  185SAPI   H2R21181   5.339  -0.189  10.670 -0.5310  0.3643  0.7600
  185SAPI   H2S21182   5.233  -0.072  10.579 -0.1819  1.0754 -1.2476
  185SAPI    C321183   5.764   0.071  10.722 -0.1189  0.3339 -0.0477
  185SAPI    HX21184   5.785  -0.025  10.774  1.8158 -0.0239 -1.3808
  185SAPI    HY21185   5.820   0.137  10.792  2.7126 -2.0422  0.1505
  185SAPI   O3121186   5.813   0.084  10.589  0.6247 -1.0509  0.9194
  185SAPI   C3121187   5.821  -0.026  10.518  0.7850  0.6888 -0.5659
  185SAPI   O3221188   5.790  -0.138  10.554  0.1760  0.5900 -0.4888
  185SAPI   C3221189   5.867   0.010  10.378  0.0564  0.5778 -0.1867
  185SAPI   H2X21190   5.947  -0.063  10.353 -0.2286 -0.7826  2.4927
  185SAPI   H2Y21191   5.910   0.113  10.384 -1.9770  1.5087 -0.5939
  185SAPI   C2321192   5.395  -0.168  10.468 -0.5698  0.2259  0.7443
  185SAPI   H3R21193   5.321  -0.248  10.445 -1.4837  1.3720 -0.4294
  185SAPI   H3S21194   5.490  -0.223  10.489 -0.9160 -0.6465  0.0931
  185SAPI   C2421195   5.406  -0.064  10.349 -0.0243 -0.4364  0.1172
  185SAPI   H4R21196   5.480   0.019  10.359  1.6354 -1.5664 -2.0093
  185SAPI   H4S21197   5.308  -0.014  10.335 -0.3807 -1.4681 -1.2272
  185SAPI   C2521198   5.434  -0.159  10.231  0.5812  0.4422 -0.5139
  185SAPI   H5R21199   5.530  -0.212  10.244 -1.5071 -3.5987  0.1079
  185SAPI   C2621200   5.376  -0.162  10.110 -1.0404 -0.2146  0.0634
  185SAPI   H6R21201   5.418  -0.235  10.039 -0.2914  3.0999 -3.2325
  185SAPI   C2721202   5.262  -0.089  10.049  0.8511 -0.6911  0.9297
  185SAPI   H7R21203   5.202  -0.032  10.123  0.9832 -0.0356  0.5382
  185SAPI   H7S21204   5.178  -0.159  10.027 -0.3587  0.8284  0.5090
  185SAPI   C2821205   5.289   0.002   9.935  0.8147  1.3211  0.0172
  185SAPI   H8R21206   5.319   0.103   9.966 -0.3430  1.6919 -0.0084
  185SAPI   C2921207   5.291  -0.037   9.801  0.2981  0.5987  0.5630
  185SAPI   H9R21208   5.279   0.040   9.723 -1.2265  0.6214  0.7887
  185SAPI  C21021209   5.257  -0.176   9.753  0.2159  0.0505 -0.1498
  185SAPI  H10R21210   5.250  -0.255   9.831  0.1796  0.9887  0.8219
  185SAPI  H10S21211   5.334  -0.208   9.680 -0.8135 -1.8502 -0.4733
  185SAPI  C21121212   5.122  -0.167   9.686  0.0142  0.6413  0.3201
  185SAPI  H11R21213   5.040  -0.132   9.749  1.2957  1.8038  1.4103
  185SAPI  C21221214   5.092  -0.210   9.563  0.3631 -0.8042 -0.1534
  185SAPI  H12R21215   4.991  -0.207   9.519  0.6329  4.8675 -1.1307
  185SAPI  C21321216   5.184  -0.272   9.467  0.4244  0.2771  0.5358
  185SAPI  H13R21217   5.144  -0.369   9.428  1.3772  0.8401 -2.0401
  185SAPI  H13S21218   5.279  -0.304   9.515  0.1642  0.1421  0.9695
  185SAPI  C21421219   5.210  -0.190   9.344  0.1480 -0.0301 -0.3700
  185SAPI  H14R21220   5.298  -0.124   9.348  0.0391  0.0539  2.7679
  185SAPI  C21521221   5.127  -0.184   9.240 -0.4193 -0.2101  0.1415
  185SAPI  H15R21222   5.160  -0.121   9.156 -0.2728 -1.9969 -1.2133
  185SAPI  C21621223   4.997  -0.246   9.218  0.1251 -0.0986 -0.5336
  185SAPI  H16R21224   4.931  -0.159   9.197  1.6409  1.7923  1.9092
  185SAPI  H16S21225   4.956  -0.285   9.313 -0.2344  1.8903  0.1833
  185SAPI  C21721226   4.997  -0.356   9.105 -0.7813  0.0676 -0.8629
  185SAPI  H17R21227   4.902  -0.409   9.126 -0.0477 -0.3890  1.6802
  185SAPI  H17S21228   5.081  -0.428   9.119 -1.0386 -0.2878 -1.1028
  185SAPI  C21821229   4.994  -0.301   8.966 -0.2444  0.6133 -0.5132
  185SAPI  H18R21230   5.080  -0.233   8.947 -0.5886  0.8890 -1.0773
  185SAPI  H18S21231   4.910  -0.232   8.945 -1.2845  0.3222  2.2392
  185SAPI  C21921232   4.982  -0.420   8.860 -0.3857 -0.7324 -0.7014
  185SAPI  H19R21233   4.887  -0.473   8.882 -0.1345 -0.7031  0.5556
  185SAPI  H19S21234   5.061  -0.496   8.876 -0.5229 -0.3224  2.7640
  185SAPI  C22021235   4.961  -0.373   8.715 -0.2049 -0.6449 -0.1074
  185SAPI  H20R21236   4.862  -0.322   8.714  0.8122  1.4571  0.4597
  185SAPI  H20S21237   4.961  -0.458   8.644  3.2824  1.3653 -2.8743
  185SAPI  H20T21238   5.036  -0.298   8.681 -2.5957  1.2589 -1.5715
  185SAPI   C3321239   5.756   0.015  10.274 -0.2958  0.2585  0.4120
  185SAPI   H3X21240   5.689   0.098  10.303  1.3633  1.0164  2.3138
  185SAPI   H3Y21241   5.699  -0.081  10.269  0.4162 -0.0966 -2.9799
  185SAPI   C3421242   5.812   0.033  10.132 -0.0099 -0.3979  0.6186
  185SAPI   H4X21243   5.887  -0.044  10.104  0.0466  0.6311 -2.3994
  185SAPI   H4Y21244   5.861   0.127  10.099 -0.5607 -0.5435 -0.7084
  185SAPI   C3521245   5.703  -0.001  10.023 -0.4382  0.2737  0.0408
  185SAPI   H5X21246   5.608   0.057  10.027 -1.3849 -1.1410 -1.0830
  185SAPI   H5Y21247   5.677  -0.107  10.043 -0.8375  0.2959 -0.3497
  185SAPI   C3621248   5.746   0.031   9.882 -0.1138  0.1759  0.7133
  185SAPI   H6X21249   5.827  -0.044   9.870 -0.4337 -0.4070  2.0262
  185SAPI   H6Y21250   5.783   0.135   9.877  1.1953 -0.1151  2.8754
  185SAPI   C3721251   5.648  -0.006   9.770 -0.1196  0.1044  0.1710
  185SAPI   H7X21252   5.561   0.062   9.767  0.4065  0.7813  0.1444
  185SAPI   H7Y21253   5.603  -0.106   9.791 -0.5772 -0.0632 -1.4417
  185SAPI   C3821254   5.716  -0.009   9.629 -0.1263 -0.3006  0.6845
  185SAPI   H8X21255   5.808  -0.071   9.624 -1.9071 -3.0729  0.0073
  185SAPI   H8Y21256   5.746   0.095   9.601  0.9053 -0.7403  0.0887
  185SAPI   C3921257   5.633  -0.057   9.516  0.3369  0.6590  0.7067
  185SAPI   H9X21258   5.685  -0.057   9.418 -3.4380 -1.7027 -1.5971
  185SAPI   H9Y21259   5.537  -0.002   9.504 -0.5903 -0.8537  0.8915
  185SAPI  C31021260   5.587  -0.202   9.537  0.4175 -0.5450  0.1442
  185SAPI  H10X21261   5.489  -0.206   9.485  0.3613 -0.4839  0.2435
  185SAPI  H10Y21262   5.567  -0.235   9.642 -0.1957 -1.7145 -0.3180
  185SAPI  C31121263   5.678  -0.313   9.485  0.5963 -0.3422 -0.0527
  185SAPI  H11X21264   5.633  -0.408   9.521 -2.3223  0.5960 -1.0258
  185SAPI  H11Y21265   5.777  -0.305   9.535 -0.4776  0.3518  2.0889
  185SAPI  C31221266   5.683  -0.346   9.335  0.2033 -0.0545  0.4240
  185SAPI  H12X21267   5.734  -0.444   9.323 -1.4966 -0.6819 -2.9025
  185SAPI  H12Y21268   5.739  -0.259   9.293 -0.5965  1.2167  1.8995
  185SAPI  C31321269   5.541  -0.356   9.267  0.4767  0.0132  0.6343
  185SAPI  H13X21270   5.475  -0.270   9.294 -0.4339 -1.1267  2.2128
  185SAPI  H13Y21271   5.499  -0.451   9.307  1.5845 -0.4134  0.8047
  185SAPI  C31421272   5.548  -0.369   9.117 -0.1790 -0.3551  0.9528
  185SAPI  H14X21273   5.623  -0.298   9.075 -1.0787 -0.6600 -1.3029
  185SAPI  H14Y21274   5.449  -0.342   9.075  1.2588 -0.6031 -2.9603
  185SAPI  C31521275   5.591  -0.514   9.071 -0.1605 -0.2254 -0.0156
  185SAPI  H15X21276   5.511  -0.588   9.095  0.9231 -1.3325  0.2794
  185SAPI  H15Y21277   5.671  -0.540   9.144  2.4940  0.5347 -2.4844
  185SAPI  C31621278   5.601  -0.518   8.916  0.1080 -0.1795 -0.8275
  185SAPI  H16X21279   5.656  -0.433   8.871 -0.5674  1.5679  1.4442
  185SAPI  H16Y21280   5.501  -0.539   8.873 -1.6736  4.4853  0.4627
  185SAPI  C31721281   5.683  -0.644   8.877 -0.4775  0.5495 -0.2162
  185SAPI  H17X21282   5.645  -0.720   8.948 -0.1298  1.7595  1.3060
  185SAPI  H17Y21283   5.791  -0.634   8.900 -0.3714  2.2529 -1.3223
  185SAPI  C31821284   5.669  -0.684   8.729 -0.4572 -0.4359  0.1253
  185SAPI  H18X21285   5.730  -0.619   8.662  0.3013 -1.1458  0.1147
  185SAPI  H18Y21286   5.561  -0.695   8.702 -0.0548 -0.7920 -1.4763
  185SAPI  H18Z21287   5.712  -0.785   8.712 -1.7150 -0.9545 -0.1577
  186SAPI   C1221288   4.849   4.973  11.154  0.2985  0.1206  0.5764
  186SAPI    H221289   4.772   4.909  11.107  0.0484  0.0296  1.0991
  186SAPI    O221290   4.791   5.054  11.249 -0.2638 -0.1449 -0.2995
  186SAPI   HO221291   4.742   5.120  11.199  0.5479  0.7749  0.0858
  186SAPI   C1321292   4.946   4.888  11.217 -0.3872  0.6675  0.3385
  186SAPI    H321293   4.991   4.819  11.142  1.7498  2.9368 -0.6159
  186SAPI    O321294   4.885   4.803  11.307 -0.2560 -0.9658  0.2040
  186SAPI   HO321295   4.814   4.868  11.318 -1.3562 -1.8298 -1.4682
  186SAPI   C1421296   5.060   4.967  11.282 -0.3301 -0.1860  0.4042
  186SAPI    H421297   5.010   5.035  11.354 -3.2061 -2.8619  1.1916
  186SAPI    O421298   5.153   4.892  11.361  0.5317 -0.2480 -0.3384
  186SAPI   HO421299   5.230   4.858  11.316  0.6090 -0.1723 -0.2625
  186SAPI   C1521300   5.130   5.058  11.187 -0.2524  0.2603 -0.1469
  186SAPI    H521301   5.156   4.993  11.101 -0.9564  2.0365 -1.7781
  186SAPI    O521302   5.248   5.129  11.234 -0.0972 -0.3680 -0.6173
  186SAPI   HO521303   5.275   5.187  11.162 -1.0820  2.8536  1.3920
  186SAPI   C1621304   5.024   5.145  11.110  0.1304  0.1496  0.0294
  186SAPI    H621305   4.979   5.210  11.188 -1.5402  0.6639 -1.2884
  186SAPI    O621306   5.089   5.229  11.013 -0.6826 -0.4493  0.5630
  186SAPI   HO621307   5.053   5.318  11.021  0.8909  0.2159  0.6729
  186SAPI   C1121308   4.914   5.057  11.044  0.0882  0.3234  0.1165
  186SAPI    H121309   4.956   4.978  10.978 -0.2129 -1.3699  1.8593
  186SAPI     P21310   4.717   5.087  10.856  0.0080  0.0909  0.3186
  186SAPI   O1321311   4.590   5.165  10.868  0.1448  0.0326 -0.0562
  186SAPI   O1421312   4.712   4.940  10.864 -0.0516 -0.0053  0.3494
  186SAPI   O1221313   4.819   5.143  10.976 -0.0969 -0.4189 -0.3114
  186SAPI   O1121314   4.785   5.116  10.714  0.4170  0.0509 -0.5923
  186SAPI    C121315   4.908   5.184  10.692  0.0488 -1.3490 -0.6626
  186SAPI    HA21316   4.991   5.143  10.753  1.3801 -0.5112 -1.8508
  186SAPI    HB21317   4.937   5.165  10.586 -1.0329 -0.4578 -1.1410
  186SAPI    C221318   4.898   5.343  10.709  0.3647 -0.0346 -0.1304
  186SAPI    HS21319   4.879   5.344  10.819  1.9588 -0.7711  0.1860
  186SAPI   O2121320   4.785   5.393  10.628 -0.2153 -0.1616  0.2654
  186SAPI   C2121321   4.722   5.503  10.680  0.8084 -0.3681  0.5486
  186SAPI   O2221322   4.761   5.563  10.779  0.0940  0.1930 -0.2467
  186SAPI   C2221323   4.604   5.543  10.584  0.5911  0.3455 -0.3223
  186SAPI   H2R21324   4.600   5.469  10.501 -0.4872  0.2510 -0.1984
  186SAPI   H2S21325   4.506   5.547  10.637 -0.0608 -0.5343 -1.4222
  186SAPI    C321326   5.032   5.419  10.682 -0.1968  0.2812 -0.0961
  186SAPI    HX21327   5.099   5.360  10.748 -1.9634 -1.8137 -0.0566
  186SAPI    HY21328   5.024   5.519  10.729  1.1226 -0.5779  2.1000
  186SAPI   O3121329   5.084   5.413  10.549 -0.5350  0.0531 -0.0555
  186SAPI   C3121330   5.101   5.530  10.491 -0.1092  0.2741  0.5791
  186SAPI   O3221331   5.059   5.634  10.526 -0.2917 -0.2561 -0.4434
  186SAPI   C3221332   5.209   5.505  10.379 -0.1384  0.3550 -0.1616
  186SAPI   H2X21333   5.229   5.396  10.368  0.6980  0.3754  0.9542
  186SAPI   H2Y21334   5.303   5.540  10.427 -0.0542 -1.7401  1.3470
  186SAPI   C2321335   4.629   5.690  10.535 -0.1090  0.4299 -0.2404
  186SAPI   H3R21336   4.736   5.696  10.503  0.6190  1.1005  2.1127
  186SAPI   H3S21337   4.608   5.758  10.620 -0.1912  0.2187 -0.0896
  186SAPI   C2421338   4.533   5.738  10.425 -0.2799  0.8956  0.2070
  186SAPI   H4R21339   4.432   5.706  10.458  0.0990 -1.0306 -0.3778
  186SAPI   H4S21340   4.544   5.673  10.336  1.6764 -0.5049  1.4045
  186SAPI   C2521341   4.543   5.888  10.386  0.2094  0.1826 -0.0931
  186SAPI   H5R21342   4.487   5.952  10.456 -0.1617 -0.0084 -0.2137
  186SAPI   C2621343   4.611   5.945  10.285  0.2113  0.1528  0.0302
  186SAPI   H6R21344   4.617   6.055  10.286 -2.3256  0.3833  2.6287
  186SAPI   C2721345   4.692   5.875  10.179 -0.2466 -0.1106  0.8570
  186SAPI   H7R21346   4.739   5.781  10.214 -1.5266 -1.2612 -0.4176
  186SAPI   H7S21347   4.778   5.942  10.157  0.4684 -0.4429  2.4546
  186SAPI   C2821348   4.604   5.843  10.061 -0.2024 -0.6225  0.0247
  186SAPI   H8R21349   4.512   5.789  10.086 -0.4939  0.4960  1.5343
  186SAPI   C2921350   4.637   5.881   9.933  0.4657 -0.3271 -0.4701
  186SAPI   H9R21351   4.564   5.868   9.852  1.4624 -0.2108 -1.3987
  186SAPI  C21021352   4.752   5.972   9.894 -0.1155 -0.5505  0.0475
  186SAPI  H10R21353   4.827   5.923   9.828  0.3062  2.9309 -2.3124
  186SAPI  H10S21354   4.817   6.006   9.978  1.4341 -0.3916 -1.1705
  186SAPI  C21121355   4.713   6.096   9.822 -0.1444  0.4087  0.7462
  186SAPI  H11R21356   4.714   6.191   9.878 -0.7802  1.5374 -1.0382
  186SAPI  C21221357   4.679   6.102   9.692  0.2010  0.3929 -0.1757
  186SAPI  H12R21358   4.660   6.203   9.655  4.1403  2.0650  1.7041
  186SAPI  C21321359   4.674   5.987   9.598  0.9136 -0.2221  0.6058
  186SAPI  H13R21360   4.657   5.892   9.652 -0.4268  0.6252  1.7779
  186SAPI  H13S21361   4.772   5.977   9.548  1.4859  2.0025  1.1709
  186SAPI  C21421362   4.560   5.992   9.501  0.3837  0.1004  0.7864
  186SAPI  H14R21363   4.480   5.917   9.509 -0.1887  0.2725 -2.2161
  186SAPI  C21521364   4.538   6.092   9.416  0.3344  0.7559  0.8816
  186SAPI  H15R21365   4.436   6.089   9.376  0.4152  0.1938  0.7188
  186SAPI  C21621366   4.617   6.220   9.394  0.6081  0.3531  0.0225
  186SAPI  H16R21367   4.717   6.208   9.441  1.3087 -2.0484 -1.8688
  186SAPI  H16S21368   4.564   6.298   9.451  1.1554 -0.1108  1.2025
  186SAPI  C21721369   4.648   6.237   9.242  0.6089 -0.0326  0.3419
  186SAPI  H17R21370   4.691   6.142   9.204 -2.1573 -1.5515  0.6878
  186SAPI  H17S21371   4.729   6.313   9.240 -1.0477  1.8119  0.4518
  186SAPI  C21821372   4.535   6.283   9.146  0.4089  0.0444 -0.0776
  186SAPI  H18R21373   4.480   6.370   9.188 -4.6663 -0.8624 -3.8707
  186SAPI  H18S21374   4.452   6.211   9.127  0.3618  0.1175 -0.1515
  186SAPI  C21921375   4.591   6.339   9.006 -0.6711  0.5388  0.1328
  186SAPI  H19R21376   4.671   6.411   9.035 -0.4352 -0.0625  1.0415
  186SAPI  H19S21377   4.510   6.389   8.949 -0.7441 -1.2964 -1.4742
  186SAPI  C22021378   4.644   6.227   8.922 -0.6927 -0.1806  0.2970
  186SAPI  H20R21379   4.571   6.147   8.899  0.0095 -0.6306 -0.4294
  186SAPI  H20S21380   4.735   6.183   8.969  0.9290 -0.3495 -2.7771
  186SAPI  H20T21381   4.684   6.268   8.828  3.2822  0.2154  1.9604
  186SAPI   C3321382   5.188   5.586  10.248  0.6524 -0.6917  0.5696
  186SAPI   H3X21383   5.284   5.576  10.193 -0.3626  1.5459 -1.8400
  186SAPI   H3Y21384   5.197   5.696  10.253  0.8476 -0.6647 -0.2249
  186SAPI   C3421385   5.065   5.546  10.172 -0.4483  0.1214  0.1425
  186SAPI   H4X21386   4.979   5.520  10.237 -0.4948  0.7062  0.3194
  186SAPI   H4Y21387   5.082   5.454  10.112  0.8771  2.3671 -3.2519
  186SAPI   C3521388   5.030   5.648  10.062  0.0189 -0.1201  0.7664
  186SAPI   H5X21389   5.009   5.749  10.102 -1.9243  0.3851 -1.2730
  186SAPI   H5Y21390   4.933   5.618  10.016 -0.5443  0.8543  1.2947
  186SAPI   C3621391   5.133   5.650   9.950 -0.1131 -0.7861  0.6796
  186SAPI   H6X21392   5.151   5.543   9.927  0.5009 -0.7999  1.1841
  186SAPI   H6Y21393   5.236   5.683   9.977  0.2119 -0.4232 -0.9206
  186SAPI   C3721394   5.091   5.702   9.813  0.3038  0.0754 -0.3289
  186SAPI   H7X21395   5.048   5.804   9.815  1.0489  0.3819  1.2446
  186SAPI   H7Y21396   5.003   5.639   9.786 -1.0200  0.5000  2.5904
  186SAPI   C3821397   5.196   5.704   9.702  0.2039 -0.2880 -0.4547
  186SAPI   H8X21398   5.263   5.615   9.700 -2.0548 -2.1591  1.2185
  186SAPI   H8Y21399   5.270   5.786   9.707  0.0894 -0.2105 -0.0198
  186SAPI   C3921400   5.122   5.722   9.567 -0.2387  0.6548  0.6655
  186SAPI   H9X21401   5.085   5.825   9.546  1.4411  1.0262 -0.7198
  186SAPI   H9Y21402   5.030   5.660   9.567  1.0918 -1.3904 -0.1221
  186SAPI  C31021403   5.205   5.680   9.441 -0.7018  0.1412  0.6128
  186SAPI  H10X21404   5.284   5.607   9.468  0.2306  1.0540  0.4224
  186SAPI  H10Y21405   5.262   5.772   9.414 -0.5679  0.0863  0.7116
  186SAPI  C31121406   5.118   5.629   9.328 -0.3391 -0.0210  0.2505
  186SAPI  H11X21407   5.186   5.618   9.241 -1.1551 -1.3147 -0.2539
  186SAPI  H11Y21408   5.033   5.692   9.298 -0.8295 -1.8251 -2.4904
  186SAPI  C31221409   5.063   5.491   9.351  0.3787 -0.3306  1.0493
  186SAPI  H12X21410   4.978   5.503   9.422  0.5532  2.3109  0.8973
  186SAPI  H12Y21411   5.140   5.422   9.391  0.7241 -3.3131 -3.9511
  186SAPI  C31321412   4.988   5.430   9.231  0.1825 -0.2193  0.5919
  186SAPI  H13X21413   5.059   5.410   9.148 -1.3083 -2.1730 -0.3246
  186SAPI  H13Y21414   4.908   5.501   9.199  0.7804 -0.1772 -0.9065
  186SAPI  C31421415   4.929   5.293   9.263  0.6297  0.5110 -0.6074
  186SAPI  H14X21416   4.852   5.295   9.343 -0.6529 -0.3137 -1.7707
  186SAPI  H14Y21417   5.009   5.227   9.303  0.0828 -0.3869 -0.9741
  186SAPI  C31521418   4.860   5.217   9.149 -0.6474 -0.2828 -0.0465
  186SAPI  H15X21419   4.781   5.278   9.101  1.1086  2.1837  0.0362
  186SAPI  H15Y21420   4.822   5.122   9.193 -0.5940 -0.2643  0.0408
  186SAPI  C31621421   4.965   5.188   9.038 -0.0976  0.0614  0.7817
  186SAPI  H16X21422   5.036   5.113   9.078  2.0098  2.5853  2.0267
  186SAPI  H16Y21423   5.015   5.281   9.004 -1.5042  0.9956  1.1485
  186SAPI  C31721424   4.903   5.135   8.902  0.2190  0.0828  0.5351
  186SAPI  H17X21425   4.833   5.205   8.852  1.2016  0.3818 -0.4536
  186SAPI  H17Y21426   4.833   5.056   8.936 -0.3308 -0.1044 -0.9668
  186SAPI  C31821427   5.002   5.084   8.802 -0.3714  0.2967  0.3405
  186SAPI  H18X21428   5.074   5.011   8.847 -0.1305  0.3166 -0.0085
  186SAPI  H18Y21429   5.067   5.168   8.768 -0.9898  1.1050  1.1210
  186SAPI  H18Z21430   4.958   5.029   8.715 -2.6453  1.4465  0.6957
  187SAPI   C1221431   0.925   2.386   6.093 -0.0426 -1.6651  0.4302
  187SAPI    H221432   0.980   2.374   6.190  1.4332 -1.0428 -0.2985
  187SAPI    O221433   0.947   2.525   6.056 -0.4426 -0.2227  0.0231
  187SAPI   HO221434   0.939   2.576   6.137  0.7299 -0.9351  0.6095
  187SAPI   C1321435   0.984   2.287   5.993 -0.6905 -0.4421  0.4186
  187SAPI    H321436   0.975   2.183   6.032  1.9231 -0.0335  2.3693
  187SAPI    O321437   1.124   2.301   5.985  0.0877 -0.8118 -0.2340
  187SAPI   HO321438   1.150   2.254   5.905  2.8280 -1.0859  0.6882
  187SAPI   C1421439   0.918   2.297   5.858 -0.1660  0.5066  0.4635
  187SAPI    H421440   0.931   2.398   5.815 -1.0530  0.7206  0.6897
  187SAPI    O421441   0.978   2.198   5.772  0.1815 -0.3626 -0.1639
  187SAPI   HO421442   0.987   2.118   5.824  0.4591 -0.1737  0.0834
  187SAPI   C1521443   0.770   2.279   5.868  0.1309 -0.2758  0.1172
  187SAPI    H521444   0.751   2.178   5.909  1.6070 -0.8015 -0.4474
  187SAPI    O521445   0.711   2.293   5.739  0.0648  0.2189  0.6932
  187SAPI   HO521446   0.641   2.230   5.726  0.5228 -0.5039  1.6455
  187SAPI   C1621447   0.712   2.378   5.967 -0.4525  0.1864  0.1143
  187SAPI    H621448   0.743   2.481   5.939  2.6525 -0.9939 -1.2624
  187SAPI    O621449   0.565   2.368   5.973  0.1455 -0.1095  0.5058
  187SAPI   HO621450   0.554   2.350   6.066  1.4146  0.6854  0.8463
  187SAPI   C1121451   0.777   2.358   6.101 -0.4114 -1.1314 -0.9522
  187SAPI    H121452   0.763   2.251   6.129 -0.2529 -0.4229  2.0828
  187SAPI     P21453   0.606   2.404   6.313 -0.0949  0.0630  0.1597
  187SAPI   O1321454   0.525   2.301   6.241  0.1960  0.3283  0.3655
  187SAPI   O1421455   0.532   2.520   6.367  0.2657  0.1738 -0.3398
  187SAPI   O1221456   0.717   2.450   6.199 -0.0887 -0.2598  0.0756
  187SAPI   O1121457   0.692   2.328   6.423 -0.0146  0.1596  0.9507
  187SAPI    C121458   0.809   2.388   6.470 -0.7015  0.0763 -0.5612
  187SAPI    HA21459   0.897   2.344   6.418 -1.2750 -0.9795 -0.6686
  187SAPI    HB21460   0.821   2.497   6.453  0.9986 -0.1994 -1.3248
  187SAPI    C221461   0.831   2.363   6.622 -0.4016 -0.0247  0.7363
  187SAPI    HS21462   0.926   2.412   6.650 -1.2559  3.2783 -1.5621
  187SAPI   O2121463   0.843   2.218   6.626  0.3072 -0.0990 -0.8270
  187SAPI   C2121464   0.921   2.172   6.720 -0.3408 -0.5251  0.0561
  187SAPI   O2221465   0.993   2.237   6.795  0.4580  0.4323  0.0587
  187SAPI   C2221466   0.920   2.014   6.705  0.8261  0.1219 -0.4050
  187SAPI   H2R21467   0.926   1.973   6.808 -2.9742  0.7253  0.2149
  187SAPI   H2S21468   0.819   1.981   6.673 -0.5480  0.5037  3.0482
  187SAPI    C321469   0.730   2.425   6.720 -0.8168 -0.2447  0.1891
  187SAPI    HX21470   0.628   2.391   6.689 -1.0527 -0.5469  1.2317
  187SAPI    HY21471   0.736   2.535   6.715  2.2610 -0.3751 -1.0860
  187SAPI   O3121472   0.748   2.380   6.851  0.2914 -0.0262  0.1482
  187SAPI   C3121473   0.817   2.447   6.938 -0.1224 -0.1087  0.8490
  187SAPI   O3221474   0.862   2.558   6.916 -0.7500 -0.6890 -0.0914
  187SAPI   C3221475   0.836   2.361   7.064 -0.1178 -0.0879  0.0115
  187SAPI   H2X21476   0.946   2.342   7.070 -0.0307 -0.3887 -1.8272
  187SAPI   H2Y21477   0.772   2.272   7.048 -1.1506  0.4868  0.8464
  187SAPI   C2321478   1.033   1.970   6.610 -0.0745 -0.0506  0.2008
  187SAPI   H3R21479   1.041   2.043   6.526 -1.2365  0.1612  0.2645
  187SAPI   H3S21480   1.023   1.868   6.568 -1.6706  0.3734 -0.5049
  187SAPI   C2421481   1.171   1.962   6.670 -0.9487 -0.7486  1.5882
  187SAPI   H4R21482   1.206   2.064   6.698  2.5674 -0.5237 -2.5626
  187SAPI   H4S21483   1.242   1.928   6.591 -1.8793 -4.1705  2.0585
  187SAPI   C2521484   1.178   1.863   6.781 -0.3973 -0.6408 -0.0775
  187SAPI   H5R21485   1.146   1.761   6.755 -3.2113  0.3398 -0.8348
  187SAPI   C2621486   1.221   1.894   6.910  0.0357 -0.1222 -0.0046
  187SAPI   H6R21487   1.214   1.811   6.983  0.1510 -2.3195 -2.3337
  187SAPI   C2721488   1.265   2.027   6.964 -0.0867  0.1393  0.4017
  187SAPI   H7R21489   1.277   2.101   6.882  2.7610 -1.7903 -1.1167
  187SAPI   H7S21490   1.367   2.014   7.006  0.7264  1.4194 -1.0636
  187SAPI   C2821491   1.171   2.087   7.063  0.0694 -0.1464 -0.6310
  187SAPI   H8R21492   1.067   2.092   7.027  1.3888  0.3209 -4.9272
  187SAPI   C2921493   1.206   2.119   7.193  0.1328  0.1266  0.2655
  187SAPI   H9R21494   1.131   2.160   7.263 -1.0766 -1.5714  0.0220
  187SAPI  C21021495   1.343   2.097   7.248 -1.0927  0.8641 -0.0780
  187SAPI  H10R21496   1.420   2.096   7.168 -0.2881 -1.0915  0.6425
  187SAPI  H10S21497   1.342   1.996   7.295 -1.3110  0.3774 -1.0944
  187SAPI  C21121498   1.386   2.212   7.340  0.6662  0.4516 -0.2984
  187SAPI  H11R21499   1.410   2.303   7.284  1.2550  0.3365 -0.2340
  187SAPI  C21221500   1.406   2.204   7.476  0.6463  0.3427  0.4281
  187SAPI  H12R21501   1.436   2.292   7.534  0.0429 -0.8597  2.6686
  187SAPI  C21321502   1.382   2.079   7.561 -1.0383  0.3698 -0.2734
  187SAPI  H13R21503   1.450   2.082   7.649 -1.2692  2.5652 -0.1145
  187SAPI  H13S21504   1.407   1.986   7.504 -2.2368 -0.5055  0.5826
  187SAPI  C21421505   1.243   2.073   7.597 -0.3843  0.3950  0.1069
  187SAPI  H14R21506   1.169   2.045   7.521 -0.4941 -0.6517  0.5752
  187SAPI  C21521507   1.193   2.081   7.723 -0.0579 -0.2735 -1.0115
  187SAPI  H15R21508   1.084   2.066   7.728 -0.4534  1.9689 -1.6419
  187SAPI  C21621509   1.267   2.100   7.856 -0.6117 -0.4754  0.6749
  187SAPI  H16R21510   1.198   2.139   7.934  0.2324  0.3027  1.0551
  187SAPI  H16S21511   1.347   2.174   7.834 -1.9596  0.1048 -2.9551
  187SAPI  C21721512   1.318   1.964   7.911 -0.1116  0.7927 -0.7672
  187SAPI  H17R21513   1.392   1.918   7.843 -1.4365  0.4194 -2.0181
  187SAPI  H17S21514   1.230   1.897   7.927  0.9357 -0.4381  0.0107
  187SAPI  C21821515   1.388   1.993   8.043 -0.8687  0.6138  0.1576
  187SAPI  H18R21516   1.324   2.057   8.108 -1.5132  0.6572 -0.5093
  187SAPI  H18S21517   1.474   2.055   8.008  1.4301 -1.6672  1.3981
  187SAPI  C21921518   1.426   1.869   8.121  0.1873  0.0764  0.2126
  187SAPI  H19R21519   1.335   1.806   8.131 -0.8405  1.6240  1.1468
  187SAPI  H19S21520   1.456   1.897   8.224  0.7139 -1.7952  0.6038
  187SAPI  C22021521   1.535   1.774   8.063  0.3120  0.2997 -0.2885
  187SAPI  H20R21522   1.511   1.754   7.956 -1.2178 -1.1489  0.2694
  187SAPI  H20S21523   1.521   1.673   8.108  1.5325  1.0897  1.9779
  187SAPI  H20T21524   1.641   1.792   8.087 -0.5532  1.7408  2.9806
  187SAPI   C3321525   0.799   2.454   7.191 -0.0890 -0.1808  0.4025
  187SAPI   H3X21526   0.706   2.512   7.175 -1.5556 -2.5486 -0.2044
  187SAPI   H3Y21527   0.887   2.519   7.210 -1.0640  0.3994  3.3877
  187SAPI   C3421528   0.769   2.370   7.315 -0.4364  0.2139  0.1593
  187SAPI   H4X21529   0.686   2.298   7.302  0.5610 -0.9797  0.2009
  187SAPI   H4Y21530   0.734   2.429   7.402 -0.9394  0.9700 -0.5506
  187SAPI   C3521531   0.886   2.278   7.371  0.5539 -0.7260 -0.1793
  187SAPI   H5X21532   0.913   2.213   7.285 -0.3179  0.3207 -1.2738
  187SAPI   H5Y21533   0.841   2.211   7.448 -0.2136 -2.1862 -1.8346
  187SAPI   C3621534   1.016   2.351   7.419 -0.6360 -0.1156  0.4033
  187SAPI   H6X21535   1.037   2.410   7.327 -0.8646 -0.7206 -0.0464
  187SAPI   H6Y21536   1.106   2.287   7.435  1.6284  2.0927 -2.2391
  187SAPI   C3721537   0.998   2.438   7.547  0.4097 -0.1774 -0.5367
  187SAPI   H7X21538   0.981   2.379   7.640  0.7076  1.9022  0.9204
  187SAPI   H7Y21539   0.912   2.507   7.538 -0.1318 -0.8069 -0.3278
  187SAPI   C3821540   1.129   2.520   7.563 -0.3573 -0.1800  0.9859
  187SAPI   H8X21541   1.137   2.579   7.469  0.7766 -1.0212  0.5312
  187SAPI   H8Y21542   1.212   2.446   7.566  0.2013  0.1460 -2.3866
  187SAPI   C3921543   1.140   2.607   7.689  0.3393  0.3196 -0.1688
  187SAPI   H9X21544   1.058   2.681   7.687 -1.7482 -1.8778 -1.2365
  187SAPI   H9Y21545   1.231   2.668   7.670  1.2083 -1.5236 -2.5261
  187SAPI  C31021546   1.142   2.524   7.820  0.5975  1.0342  0.9496
  187SAPI  H10X21547   1.204   2.433   7.809 -1.8389 -0.5749 -0.4391
  187SAPI  H10Y21548   1.039   2.486   7.839  0.1703  1.9844  0.6307
  187SAPI  C31121549   1.182   2.595   7.949  1.1654  1.0028 -0.5172
  187SAPI  H11X21550   1.108   2.677   7.961  1.2915  1.0533 -0.0315
  187SAPI  H11Y21551   1.279   2.650   7.950  0.2383  2.7661  1.2327
  187SAPI  C31221552   1.169   2.510   8.077 -0.1038 -0.2692  0.1695
  187SAPI  H12X21553   1.224   2.570   8.152  0.7337  0.5131 -1.0379
  187SAPI  H12Y21554   1.236   2.424   8.058  0.5645  0.2122  0.3109
  187SAPI  C31321555   1.030   2.478   8.132  0.2129  0.8240 -0.2123
  187SAPI  H13X21556   0.982   2.400   8.070 -1.7395 -0.7707  2.9874
  187SAPI  H13Y21557   0.961   2.565   8.131  0.3848  0.9696 -1.6734
  187SAPI  C31421558   1.027   2.429   8.282  0.8173 -0.4547 -0.3120
  187SAPI  H14X21559   0.923   2.397   8.306  0.9267 -0.4171  0.2301
  187SAPI  H14Y21560   1.061   2.514   8.345  0.5540 -0.2376 -0.4636
  187SAPI  C31521561   1.129   2.322   8.314 -0.2261 -0.1300  0.0787
  187SAPI  H15X21562   1.230   2.361   8.292 -0.9756  1.9346  0.0692
  187SAPI  H15Y21563   1.113   2.242   8.238 -0.2699 -0.3008  0.2666
  187SAPI  C31621564   1.098   2.260   8.446 -0.4666  0.4795 -0.4911
  187SAPI  H16X21565   0.987   2.249   8.448 -0.5095  0.8350 -0.8925
  187SAPI  H16Y21566   1.121   2.315   8.540 -0.0626 -1.3030  0.5193
  187SAPI  C31721567   1.168   2.120   8.466 -0.2589  0.0715  0.1733
  187SAPI  H17X21568   1.277   2.129   8.447 -0.4445 -0.7489 -1.4607
  187SAPI  H17Y21569   1.136   2.063   8.376 -0.0064  2.2195 -1.3643
  187SAPI  C31821570   1.142   2.053   8.597  0.3501  0.7137 -0.0257
  187SAPI  H18X21571   1.034   2.065   8.621  0.6842  0.0504  1.9799
  187SAPI  H18Y21572   1.193   2.109   8.678  0.2476 -1.4640  1.6337
  187SAPI  H18Z21573   1.193   1.955   8.588 -0.4685  0.2607  0.1668
  188SAPI   C1221574   3.134   2.058   6.239  0.0054 -0.2927 -0.3355
  188SAPI    H221575   3.097   1.964   6.285  1.2789 -0.1259  1.1231
  188SAPI    O221576   3.220   2.031   6.127  0.2919  0.4223  0.2251
  188SAPI   HO221577   3.234   1.936   6.128 -0.9588  0.2325  0.8179
  188SAPI   C1321578   3.019   2.147   6.197  0.4605  0.5023  0.3824
  188SAPI    H321579   2.957   2.158   6.289  1.1839 -0.6474  1.0204
  188SAPI    O321580   2.934   2.096   6.099  0.4672  0.1547  0.8018
  188SAPI   HO321581   2.955   2.134   6.013  0.6841  0.1667  0.8608
  188SAPI   C1421582   3.074   2.288   6.163 -0.0723  0.0877  0.0697
  188SAPI    H421583   3.145   2.280   6.079  0.9117  0.3818  0.8539
  188SAPI    O421584   2.964   2.375   6.104 -0.4407  0.6322 -1.1076
  188SAPI   HO421585   2.901   2.386   6.176  1.3672 -2.6884  1.2392
  188SAPI   C1521586   3.144   2.356   6.273  0.0816 -0.0564  0.2590
  188SAPI    H521587   3.067   2.370   6.352  1.2722  2.4977  1.0932
  188SAPI    O521588   3.181   2.492   6.248 -0.6821  0.0594 -0.6774
  188SAPI   HO521589   3.243   2.501   6.174 -1.2760  0.1791 -1.1692
  188SAPI   C1621590   3.259   2.265   6.321 -0.3298  0.5402 -0.8310
  188SAPI    H621591   3.321   2.256   6.230 -1.6271  0.7571 -1.7528
  188SAPI    O621592   3.339   2.314   6.431  0.4073  0.3518 -0.3270
  188SAPI   HO621593   3.412   2.253   6.445  0.3859  0.7385  1.9301
  188SAPI   C1121594   3.209   2.129   6.353  0.4437  0.4347  0.4788
  188SAPI    H121595   3.139   2.132   6.439  0.6943 -1.4493  0.7993
  188SAPI     P21596   3.377   2.003   6.530  0.4154  0.0973 -0.1510
  188SAPI   O1321597   3.430   1.862   6.536  0.1813  0.1927  0.1201
  188SAPI   O1421598   3.276   2.039   6.632  0.1549  0.0217 -0.0415
  188SAPI   O1221599   3.313   2.026   6.382  0.7906 -0.3493  0.0305
  188SAPI   O1121600   3.492   2.107   6.539  0.4906 -0.1231 -0.0932
  188SAPI    C121601   3.626   2.066   6.507 -0.5578  0.7107  0.0605
  188SAPI    HA21602   3.633   1.976   6.442  0.6314  0.9493 -0.1646
  188SAPI    HB21603   3.674   2.146   6.445 -1.2840 -0.1539 -1.6987
  188SAPI    C221604   3.719   2.047   6.631 -0.1506 -0.3879  0.1895
  188SAPI    HS21605   3.827   2.040   6.606  0.5649  1.3041  2.4445
  188SAPI   O2121606   3.665   1.942   6.710  0.0247  1.0731 -0.2084
  188SAPI   C2121607   3.705   1.815   6.666 -0.3440 -1.4686  0.1198
  188SAPI   O2221608   3.778   1.797   6.571  0.1732 -0.0029 -0.1948
  188SAPI   C2221609   3.648   1.708   6.754  0.3452  0.4352  0.2155
  188SAPI   H2R21610   3.655   1.739   6.861  0.7607 -1.9997  0.9544
  188SAPI   H2S21611   3.540   1.711   6.726  0.6593 -1.3135 -1.3065
  188SAPI    C321612   3.712   2.176   6.714  0.4239  1.0694 -0.5543
  188SAPI    HX21613   3.614   2.158   6.764  0.3970  0.4054 -0.8366
  188SAPI    HY21614   3.693   2.267   6.654 -1.5138  1.3261  0.3827
  188SAPI   O3121615   3.820   2.181   6.814 -0.3470  0.0425 -0.0220
  188SAPI   C3121616   3.836   2.300   6.863  0.2563 -0.0016  0.1419
  188SAPI   O3221617   3.784   2.405   6.830  0.3326 -0.5407 -0.7735
  188SAPI   C3221618   3.942   2.276   6.972 -0.0076  0.3268 -0.4312
  188SAPI   H2X21619   4.039   2.255   6.924  1.4137  2.3290  1.3689
  188SAPI   H2Y21620   3.908   2.185   7.027 -2.3893  0.2489 -1.8911
  188SAPI   C2321621   3.706   1.566   6.740 -0.2811  0.2935  0.2276
  188SAPI   H3R21622   3.814   1.573   6.767 -0.9011 -0.3000  3.1600
  188SAPI   H3S21623   3.688   1.524   6.639 -0.9762 -0.9624  0.8513
  188SAPI   C2421624   3.638   1.465   6.842 -0.3713 -0.8318 -0.1432
  188SAPI   H4R21625   3.609   1.380   6.778 -2.9141 -1.8928  2.2066
  188SAPI   H4S21626   3.547   1.513   6.884  0.9686 -0.5064  2.6673
  188SAPI   C2521627   3.737   1.409   6.948  0.5326 -0.2642 -0.1545
  188SAPI   H5R21628   3.810   1.343   6.899  0.7899 -1.0013  1.1799
  188SAPI   C2621629   3.758   1.441   7.073  0.2182 -0.0349 -0.2168
  188SAPI   H6R21630   3.840   1.389   7.126  0.8406  3.1672  2.2497
  188SAPI   C2721631   3.678   1.547   7.155 -0.1055 -0.4907  0.4749
  188SAPI   H7R21632   3.621   1.488   7.229  0.9097 -3.1708 -0.7508
  188SAPI   H7S21633   3.593   1.589   7.096 -0.4168  1.5047  2.2587
  188SAPI   C2821634   3.768   1.647   7.227  0.1703  0.6067  0.5325
  188SAPI   H8R21635   3.809   1.724   7.159 -1.5935 -0.2146 -1.5795
  188SAPI   C2921636   3.805   1.649   7.355  0.1270  0.3773  0.7009
  188SAPI   H9R21637   3.868   1.737   7.374 -0.8243  1.0546  0.7675
  188SAPI  C21021638   3.775   1.543   7.461 -0.0494  0.0998 -0.1791
  188SAPI  H10R21639   3.732   1.447   7.426  0.6444 -0.4596  0.4707
  188SAPI  H10S21640   3.692   1.585   7.522  0.3085 -0.0277  0.4007
  188SAPI  C21121641   3.910   1.505   7.525  0.2887 -0.0628  0.2468
  188SAPI  H11R21642   3.993   1.497   7.453  0.7360  0.6608  0.6635
  188SAPI  C21221643   3.954   1.495   7.651 -0.9137 -0.1445 -0.6349
  188SAPI  H12R21644   4.062   1.478   7.667 -0.9349 -2.1983 -2.1597
  188SAPI  C21321645   3.887   1.528   7.787 -0.3741  0.2688 -0.0854
  188SAPI  H13R21646   3.953   1.495   7.870 -0.9734 -1.0940 -0.1391
  188SAPI  H13S21647   3.787   1.480   7.790  0.1810 -1.0459 -1.5744
  188SAPI  C21421648   3.858   1.671   7.823 -0.3619 -0.1866 -0.4486
  188SAPI  H14R21649   3.868   1.736   7.735  0.1518 -0.1636 -0.3756
  188SAPI  C21521650   3.824   1.722   7.940  0.2243 -0.4665 -0.6564
  188SAPI  H15R21651   3.789   1.826   7.942 -0.9842 -0.8659 -0.0258
  188SAPI  C21621652   3.815   1.646   8.077 -0.0270 -0.7799  0.7670
  188SAPI  H16R21653   3.850   1.718   8.153  1.4113  1.4837 -1.8437
  188SAPI  H16S21654   3.869   1.549   8.077  2.1832  0.3209 -1.5856
  188SAPI  C21721655   3.670   1.601   8.092 -0.5559 -1.0978 -0.4359
  188SAPI  H17R21656   3.657   1.516   8.162  0.3902  0.3272  1.5979
  188SAPI  H17S21657   3.625   1.569   7.996  1.3873  3.3594 -3.1471
  188SAPI  C21821658   3.582   1.715   8.152  0.6757 -0.6092 -0.2530
  188SAPI  H18R21659   3.480   1.726   8.109  0.6702 -0.1367 -0.1214
  188SAPI  H18S21660   3.631   1.812   8.134 -1.3814  0.4532 -0.4819
  188SAPI  C21921661   3.557   1.701   8.298  0.3364  0.6367 -0.0706
  188SAPI  H19R21662   3.655   1.670   8.340 -1.1108 -2.2862  1.4943
  188SAPI  H19S21663   3.489   1.614   8.315  0.8978  0.0340 -0.8399
  188SAPI  C22021664   3.504   1.826   8.370  0.4488  0.4051  0.3275
  188SAPI  H20R21665   3.394   1.834   8.356  0.2953  1.1372  1.7889
  188SAPI  H20S21666   3.564   1.916   8.344 -0.9322  1.2419 -0.0753
  188SAPI  H20T21667   3.508   1.818   8.480  0.9456 -2.0787  0.1809
  188SAPI   C3321668   3.957   2.394   7.068  0.0518  0.3215 -0.1107
  188SAPI   H3X21669   3.867   2.441   7.115  0.8764  2.0458 -0.1937
  188SAPI   H3Y21670   4.000   2.478   7.009  1.6016 -1.8073 -2.2121
  188SAPI   C3421671   4.058   2.356   7.183  0.1341 -0.3379  0.1065
  188SAPI   H4X21672   4.160   2.368   7.141 -0.0779 -2.6894 -1.2650
  188SAPI   H4Y21673   4.047   2.248   7.210 -2.1761 -0.2481 -0.3022
  188SAPI   C3521674   4.039   2.450   7.311 -0.2541 -0.5135  0.2941
  188SAPI   H5X21675   3.941   2.423   7.354 -1.6234 -0.9497 -2.8144
  188SAPI   H5Y21676   4.027   2.553   7.271 -0.9413 -1.0637 -0.9606
  188SAPI   C3621677   4.157   2.430   7.409 -0.0106 -0.3158  0.4241
  188SAPI   H6X21678   4.240   2.494   7.372 -1.0642  1.5120  1.0446
  188SAPI   H6Y21679   4.169   2.320   7.419  3.7611 -0.0963 -0.4042
  188SAPI   C3721680   4.135   2.483   7.546 -0.9844  0.0747  0.3719
  188SAPI   H7X21681   4.043   2.439   7.588 -2.2867  0.2585 -2.0755
  188SAPI   H7Y21682   4.125   2.594   7.537  0.4424  0.1955  0.0384
  188SAPI   C3821683   4.259   2.457   7.632  0.2656  0.2686 -0.0721
  188SAPI   H8X21684   4.353   2.479   7.577 -0.0274  2.7914  0.3140
  188SAPI   H8Y21685   4.258   2.349   7.659  2.0993  0.9635  3.3491
  188SAPI   C3921686   4.253   2.518   7.773  0.6488 -0.5849 -0.2904
  188SAPI   H9X21687   4.151   2.500   7.815  1.1734  0.4691  1.5585
  188SAPI   H9Y21688   4.263   2.628   7.772 -1.6668 -0.3288 -1.3963
  188SAPI  C31021689   4.353   2.451   7.881  0.0707 -0.2006  0.5111
  188SAPI  H10X21690   4.453   2.472   7.839 -1.3514  5.3380 -1.0269
  188SAPI  H10Y21691   4.321   2.346   7.897 -2.7185  0.0954 -2.0008
  188SAPI  C31121692   4.353   2.523   8.014  0.1007 -0.5891  0.0414
  188SAPI  H11X21693   4.370   2.630   7.989 -1.2257 -0.0143  1.4406
  188SAPI  H11Y21694   4.428   2.474   8.079  1.0060  0.3795 -0.2466
  188SAPI  C31221695   4.216   2.535   8.089 -0.3483  0.3695 -0.1827
  188SAPI  H12X21696   4.181   2.429   8.091  0.3298  0.1150  2.4898
  188SAPI  H12Y21697   4.130   2.590   8.044 -0.6328  0.8191  0.8796
  188SAPI  C31321698   4.237   2.570   8.239 -0.5762 -0.1603  0.0946
  188SAPI  H13X21699   4.255   2.679   8.238  0.6028 -0.3397  0.2945
  188SAPI  H13Y21700   4.331   2.528   8.282 -0.2444 -0.5850 -1.0219
  188SAPI  C31421701   4.109   2.549   8.324 -1.2481 -0.0411 -0.6922
  188SAPI  H14X21702   4.091   2.439   8.325  0.2927 -0.3528 -1.9936
  188SAPI  H14Y21703   4.025   2.603   8.277  1.0533  1.1323 -3.7638
  188SAPI  C31521704   4.120   2.594   8.470  0.4525 -0.3609  0.5920
  188SAPI  H15X21705   4.210   2.555   8.523 -0.4010 -0.8421  1.7221
  188SAPI  H15Y21706   4.033   2.548   8.521  0.1421  1.3926  1.7209
  188SAPI  C31621707   4.115   2.746   8.477  0.2456  0.2738 -0.0736
  188SAPI  H16X21708   4.040   2.773   8.400  0.6181 -0.8129 -0.8369
  188SAPI  H16Y21709   4.217   2.783   8.451 -0.1924  1.8815  0.3866
  188SAPI  C31721710   4.099   2.794   8.621 -0.2612  0.6791  0.7018
  188SAPI  H17X21711   4.187   2.774   8.686 -0.2306 -1.9255 -0.0394
  188SAPI  H17Y21712   4.005   2.764   8.672 -1.0448 -0.2278 -1.1824
  188SAPI  C31821713   4.088   2.950   8.628 -0.6518  0.0893  0.1444
  188SAPI  H18X21714   3.985   2.980   8.599 -0.8397  0.4897  1.1937
  188SAPI  H18Y21715   4.163   3.003   8.566 -0.5333  0.5463  0.6705
  188SAPI  H18Z21716   4.092   2.989   8.732 -0.0734  0.1705  0.0941
  189POPC     N21717   3.555   0.753  11.267  1.0125  0.6576 -1.1948
  189POPC   C1221718   3.557   0.749  11.112  0.0203 -0.2364  0.3931
  189POPC  H12A21719   3.588   0.651  11.078  2.1799  0.0379  1.4228
  189POPC  H12B21720   3.638   0.814  11.084  1.1696  0.3343  4.4346
  189POPC   C1321721   3.685   0.725  11.329 -0.0174 -0.4472  0.0522
  189POPC  H13A21722   3.750   0.799  11.286 -1.1874  0.6818  0.1443
  189POPC  H13B21723   3.680   0.740  11.436  1.7828  1.1216 -0.0324
  189POPC  H13C21724   3.721   0.631  11.290  0.3714  0.2095 -1.2165
  189POPC   C1421725   3.527   0.895  11.301 -0.0075 -1.0548  0.5716
  189POPC  H14A21726   3.538   0.910  11.407  1.9475 -0.2874  0.3076
  189POPC  H14B21727   3.606   0.955  11.259 -1.6012  2.2361  1.9200
  189POPC  H14C21728   3.433   0.939  11.271  1.8267  1.8896 -1.4519
  189POPC   C1521729   3.446   0.669  11.328 -0.1979  0.0469 -0.8004
  189POPC  H15A21730   3.443   0.561  11.318 -1.5050  0.0331 -0.4704
  189POPC  H15B21731   3.353   0.704  11.285  0.1140  1.8946 -0.0558
  189POPC  H15C21732   3.441   0.686  11.434  0.7328  0.2845 -0.7857
  189POPC   C1121733   3.430   0.806  11.031 -0.1027 -0.1306  0.4389
  189POPC  H11A21734   3.455   0.792  10.923 -2.8943  1.1103 -0.4657
  189POPC  H11B21735   3.431   0.915  11.050 -1.5119  0.4650 -2.3824
  189POPC     P21736   3.187   0.824  11.128 -0.4089 -0.1867 -0.5807
  189POPC   O1321737   3.221   0.966  11.149 -0.2735  0.2186  0.5089
  189POPC   O1421738   3.142   0.750  11.249  0.2037 -0.6825 -0.2792
  189POPC   O1221739   3.305   0.742  11.063 -0.8630 -0.7954 -0.2960
  189POPC   O1121740   3.066   0.826  11.035 -0.2248 -0.4030  0.1680
  189POPC    C121741   3.009   0.702  10.992  0.2641  0.1418 -0.1056
  189POPC    HA21742   2.900   0.720  10.985  0.5936  1.5630 -3.7730
  189POPC    HB21743   3.007   0.616  11.063  0.0335 -0.0205 -0.3058
  189POPC    C221744   3.055   0.648  10.855  0.0248  0.6816 -0.1345
  189POPC    HS21745   3.138   0.576  10.875 -1.2386 -0.4995  1.0766
  189POPC   O2121746   3.093   0.763  10.774 -0.1197 -0.3908 -0.7009
  189POPC   C2121747   3.215   0.760  10.738  1.0729  0.5102  0.4293
  189POPC   O2221748   3.304   0.682  10.764 -0.4646  0.5230  0.3889
  189POPC   C2221749   3.240   0.870  10.638  0.2112 -0.7947  0.0091
  189POPC   H2R21750   3.319   0.935  10.681 -1.5443  1.1898  0.4144
  189POPC   H2S21751   3.141   0.918  10.622  0.2948 -0.0750  1.4872
  189POPC    C321752   2.942   0.590  10.776 -0.0832  0.3639  0.9823
  189POPC    HX21753   2.874   0.671  10.741  1.3690  1.6601  1.0704
  189POPC    HY21754   2.881   0.526  10.843 -1.6726  1.2772  0.4665
  189POPC   O3121755   2.989   0.514  10.662 -0.0383  1.0441 -0.0652
  189POPC   C3121756   3.025   0.389  10.661  0.0196  0.5602 -0.0135
  189POPC   O3221757   3.032   0.316  10.766  0.2921 -0.1989 -0.1489
  189POPC   C3221758   3.075   0.342  10.525 -0.1463  0.4509  0.4557
  189POPC   H2X21759   2.984   0.310  10.470  1.4012 -2.3242 -0.6698
  189POPC   H2Y21760   3.144   0.257  10.540  0.6629  1.2391  1.3513
  189POPC   C2321761   3.290   0.815  10.504 -0.0620 -0.7386  0.1683
  189POPC   H3R21762   3.258   0.711  10.483  0.1850 -0.8999  0.5687
  189POPC   H3S21763   3.400   0.801  10.513 -0.1203 -2.4903 -1.3529
  189POPC   C2421764   3.258   0.903  10.385 -0.0924 -0.2188  0.1213
  189POPC   H4R21765   3.315   0.999  10.386 -1.7222  0.8352  2.6094
  189POPC   H4S21766   3.152   0.934  10.398  0.3146  0.6739  1.4743
  189POPC   C2521767   3.286   0.831  10.248 -0.1579  0.4103  0.5137
  189POPC   H5R21768   3.209   0.751  10.241  1.1810 -0.8234 -0.6490
  189POPC   H5S21769   3.390   0.794  10.260 -0.9030 -1.3618  1.8762
  189POPC   C2621770   3.273   0.922  10.125 -0.2780 -0.6355 -0.5484
  189POPC   H6R21771   3.374   0.952  10.088 -0.5133  0.9092 -0.0408
  189POPC   H6S21772   3.229   1.022  10.147  0.8641 -0.3127  0.4407
  189POPC   C2721773   3.206   0.838  10.014  0.6351 -0.0939  0.1736
  189POPC   H7R21774   3.181   0.911   9.934 -0.5070  0.4985  1.0458
  189POPC   H7S21775   3.104   0.800  10.037  0.0138  1.4903  0.1576
  189POPC   C2821776   3.296   0.725   9.962  0.3103 -0.0957 -0.3958
  189POPC   H8R21777   3.286   0.646  10.038  1.4730 -0.3792 -0.5227
  189POPC   H8S21778   3.402   0.757   9.953  0.2141 -0.3095 -3.2355
  189POPC   C2921779   3.248   0.679   9.830  0.7013  0.4529 -0.0361
  189POPC   H9121780   3.180   0.593   9.839  1.8030 -0.3449  1.1138
  189POPC  C21021781   3.290   0.729   9.709  0.2329 -1.1341  0.1320
  189POPC  H10121782   3.253   0.677   9.620  0.8807  0.3298 -1.0309
  189POPC  C21121783   3.393   0.840   9.686  0.2059  0.0776  0.0259
  189POPC  H11R21784   3.496   0.803   9.663  1.0385  1.3250  1.5815
  189POPC  H11S21785   3.409   0.902   9.776  1.6528  1.9335 -1.4048
  189POPC  C21221786   3.346   0.929   9.571  0.1618  0.2981 -0.0319
  189POPC  H12R21787   3.413   1.017   9.574  0.8252 -0.2268  0.9713
  189POPC  H12S21788   3.243   0.962   9.596 -0.1172 -0.4008 -0.2099
  189POPC  C21321789   3.337   0.867   9.431 -0.3961 -0.7708  0.7082
  189POPC  H13R21790   3.260   0.787   9.439 -1.9096  0.7943  3.3372
  189POPC  H13S21791   3.436   0.825   9.403  0.2556  0.0844  1.6860
  189POPC  C21421792   3.298   0.971   9.326 -0.5791  0.1317  0.0265
  189POPC  H14R21793   3.385   1.035   9.304 -1.3940  1.1906 -0.2041
  189POPC  H14S21794   3.210   1.022   9.372 -1.5226  0.5376 -2.0937
  189POPC  C21521795   3.243   0.910   9.201 -0.5539  0.0784  0.1898
  189POPC  H15R21796   3.199   0.985   9.132  0.2533  0.7373  0.3839
  189POPC  H15S21797   3.158   0.841   9.218 -1.1717  0.5735 -0.7853
  189POPC  C21621798   3.360   0.835   9.141  1.0047 -0.7992 -0.0277
  189POPC  H16R21799   3.390   0.746   9.201  0.9291 -1.4852 -0.9702
  189POPC  H16S21800   3.450   0.900   9.135 -1.0983  2.2657 -1.2046
  189POPC  C21721801   3.350   0.795   8.993  0.1082 -0.2333 -0.2287
  189POPC  H17R21802   3.320   0.880   8.928 -1.8415 -2.0997 -1.9364
  189POPC  H17S21803   3.261   0.727   8.988 -0.3126  0.3031 -0.1316
  189POPC  C21821804   3.466   0.714   8.933 -0.6418  0.2256  0.8041
  189POPC  H18R21805   3.563   0.767   8.948 -1.1449  0.9767  1.4501
  189POPC  H18S21806   3.439   0.688   8.829  1.5633  1.9013 -0.2694
  189POPC  H18T21807   3.486   0.620   8.988  0.8845 -0.0129 -0.0919
  189POPC   C3321808   3.144   0.456  10.451 -0.2875 -0.3816  0.3094
  189POPC   H3X21809   3.223   0.492  10.519  0.4714  1.4252 -1.4215
  189POPC   H3Y21810   3.073   0.540  10.435 -0.3457 -0.3751  0.6067
  189POPC   C3421811   3.209   0.398  10.322  0.0720  0.7104 -0.1138
  189POPC   H4X21812   3.275   0.312  10.347 -0.7327  0.0760 -0.1502
  189POPC   H4Y21813   3.287   0.469  10.286 -0.1286  1.4953  0.9634
  189POPC   C3521814   3.110   0.373  10.208  0.0731  0.7268 -0.2918
  189POPC   H5X21815   3.040   0.290  10.233 -0.2856  1.3193  0.7599
  189POPC   H5Y21816   3.167   0.339  10.118  3.3345  1.9604  1.1457
  189POPC   C3621817   3.016   0.490  10.172 -0.7798 -0.3305 -0.2795
  189POPC   H6X21818   3.097   0.564  10.158 -1.4185  0.5153  0.3754
  189POPC   H6Y21819   2.949   0.532  10.250 -2.4138 -0.8584 -1.3455
  189POPC   C3721820   2.935   0.484  10.044  1.0458  0.5086  0.8607
  189POPC   H7X21821   2.868   0.395  10.046  2.2109 -0.3807  2.2252
  189POPC   H7Y21822   2.992   0.471   9.950 -1.6069  0.0745 -0.7824
  189POPC   C3821823   2.846   0.604  10.025 -0.4278 -0.5483 -0.6709
  189POPC   H8X21824   2.909   0.694  10.017 -1.7111  0.2160 -2.9625
  189POPC   H8Y21825   2.769   0.611  10.105  0.7517 -1.8222  0.6457
  189POPC   C3921826   2.761   0.605   9.897 -0.0484 -0.1713 -0.7455
  189POPC   H9X21827   2.665   0.657   9.915  0.7845  2.0226 -2.2392
  189POPC   H9Y21828   2.738   0.497   9.885 -0.6955 -0.0216 -0.8885
  189POPC  C31021829   2.841   0.667   9.775 -0.0351  0.3276  0.5245
  189POPC  H10X21830   2.926   0.598   9.755  0.1289  0.4960  0.6412
  189POPC  H10Y21831   2.877   0.770   9.797 -4.7006  2.4448 -0.4054
  189POPC  C31121832   2.758   0.670   9.645  0.0152 -0.3940  0.1583
  189POPC  H11X21833   2.731   0.777   9.636  0.0573 -0.3217  0.8328
  189POPC  H11Y21834   2.677   0.593   9.647  0.7350 -1.1585  0.9437
  189POPC  C31221835   2.847   0.645   9.527  0.2048 -0.4513  0.2594
  189POPC  H12X21836   2.891   0.543   9.525  1.1759 -0.0857 -2.9339
  189POPC  H12Y21837   2.931   0.718   9.531  0.3542 -0.4641 -1.7310
  189POPC  C31321838   2.769   0.665   9.393  0.6970  1.1071  0.1896
  189POPC  H13X21839   2.763   0.775   9.382 -0.8009  1.4274  3.2444
  189POPC  H13Y21840   2.669   0.617   9.401  1.6880 -0.9959  0.7092
  189POPC  C31421841   2.861   0.604   9.293 -0.1722 -0.1485  0.2197
  189POPC  H14X21842   2.864   0.493   9.305 -1.6411 -0.4854 -1.9725
  189POPC  H14Y21843   2.962   0.648   9.310 -0.5269  0.7794 -0.0364
  189POPC  C31521844   2.809   0.649   9.153 -1.2279 -0.8934  0.2379
  189POPC  H15X21845   2.807   0.758   9.134  0.5309 -0.8912 -0.0852
  189POPC  H15Y21846   2.700   0.640   9.132 -2.2137  5.7971  0.4895
  189POPC  C31621847   2.881   0.577   9.039 -0.2276 -0.4357  1.1122
  189POPC  H16X21848   2.828   0.580   8.942  1.3985  0.4775  0.2117
  189POPC  H16Y21849   2.911   0.472   9.063 -0.0047 -0.8149 -0.6949
  189POPC  H16Z21850   2.977   0.625   9.010 -0.4391 -0.3456  0.5431
  190POPC     N21851   5.469   5.954  11.156  0.8095 -0.0602 -0.4398
  190POPC   C1221852   5.381   6.018  11.052 -0.5391  0.3961  0.5561
  190POPC  H12A21853   5.436   6.100  11.008 -1.3968  0.2132 -0.9239
  190POPC  H12B21854   5.289   6.047  11.102 -0.7932 -0.1225  0.3934
  190POPC   C1321855   5.408   5.819  11.183  0.1920  0.2561  0.0043
  190POPC  H13A21856   5.475   5.763  11.246 -0.7843  1.1916  1.9503
  190POPC  H13B21857   5.312   5.833  11.229  0.3318 -0.0698  0.3977
  190POPC  H13C21858   5.404   5.759  11.093  1.1040  0.4078 -0.1470
  190POPC   C1421859   5.604   5.934  11.114 -0.1962  0.0358  0.2425
  190POPC  H14A21860   5.590   5.888  11.017 -1.1986  1.3267 -0.2698
  190POPC  H14B21861   5.661   6.025  11.101 -2.0693  1.2471  0.0936
  190POPC  H14C21862   5.649   5.876  11.193 -2.1395 -0.5499  0.9813
  190POPC   C1521863   5.465   6.036  11.274 -0.5515  0.3538 -0.6895
  190POPC  H15A21864   5.464   6.142  11.250  2.0637 -0.0253 -2.9553
  190POPC  H15B21865   5.553   6.027  11.336 -0.8109  1.7487 -0.0730
  190POPC  H15C21866   5.385   6.007  11.339 -0.2024 -1.2373 -0.9354
  190POPC   C1121867   5.330   5.929  10.926 -0.9468 -0.0651 -0.5071
  190POPC  H11A21868   5.428   5.886  10.895 -0.2323  0.7544  0.5395
  190POPC  H11B21869   5.301   6.003  10.848 -0.0411 -2.0640 -2.8500
  190POPC     P21870   5.099   5.875  10.997 -0.0922  0.1606  0.1283
  190POPC   O1321871   5.104   5.962  11.115 -0.4299  0.1302 -0.1671
  190POPC   O1421872   5.006   5.761  11.001 -0.2014  0.1426 -0.4873
  190POPC   O1221873   5.241   5.823  10.959  0.0279  0.8449 -0.0525
  190POPC   O1121874   5.065   5.965  10.874 -0.2556 -0.1310 -0.0584
  190POPC    C121875   5.027   5.917  10.742  0.2910 -0.2220  0.2438
  190POPC    HA21876   4.923   5.878  10.738  0.6908 -1.3169  0.0769
  190POPC    HB21877   5.102   5.840  10.712  0.7745  0.2073  0.3321
  190POPC    C221878   5.030   6.030  10.632 -0.1670  0.3312 -0.4303
  190POPC    HS21879   5.129   6.081  10.644  0.7997 -1.1332 -1.8208
  190POPC   O2121880   4.919   6.120  10.653 -0.4678  0.1886  0.0366
  190POPC   C2121881   4.934   6.250  10.606 -0.4437 -0.2782  0.0829
  190POPC   O2221882   5.039   6.305  10.575  0.1189  0.0099 -0.5893
  190POPC   C2221883   4.795   6.310  10.583  0.4071 -0.6460  0.7318
  190POPC   H2R21884   4.800   6.420  10.578 -1.9446 -0.5164 -0.5333
  190POPC   H2S21885   4.729   6.268  10.662 -0.9315  0.5239  0.2697
  190POPC    C321886   5.031   5.974  10.484 -0.4993 -0.3206 -0.5705
  190POPC    HX21887   4.934   5.922  10.469 -0.3306 -0.1560 -2.3686
  190POPC    HY21888   5.099   5.888  10.471  2.6300  2.0875 -1.2695
  190POPC   O3121889   5.046   6.086  10.390 -0.0521  0.0570  0.4365
  190POPC   C3121890   5.175   6.115  10.362 -0.0089  0.0510 -1.0257
  190POPC   O3221891   5.269   6.057  10.419  0.3376 -0.0265  0.3575
  190POPC   C3221892   5.186   6.239  10.269  0.4809 -0.1732  0.3714
  190POPC   H2X21893   5.206   6.325  10.336 -3.6035 -0.0016  1.6435
  190POPC   H2Y21894   5.085   6.262  10.230  1.4567 -0.8455 -2.8567
  190POPC   C2321895   4.732   6.278  10.446 -1.0115 -0.7626 -0.0738
  190POPC   H3R21896   4.632   6.326  10.436  0.1481  2.1216  0.8869
  190POPC   H3S21897   4.720   6.168  10.439 -1.3777 -0.6688 -1.1597
  190POPC   C2421898   4.799   6.324  10.313 -0.4744  0.0896 -0.4075
  190POPC   H4R21899   4.760   6.263  10.228  2.3483  0.6558 -2.2412
  190POPC   H4S21900   4.909   6.312  10.304 -0.6782 -1.0413 -1.6281
  190POPC   C2521901   4.769   6.474  10.277  0.3400  0.7603 -0.0853
  190POPC   H5R21902   4.763   6.519  10.378 -1.0496  0.4586 -0.0182
  190POPC   H5S21903   4.670   6.489  10.229  1.3873  1.4393 -2.1653
  190POPC   C2621904   4.863   6.549  10.181  0.1595  0.1267  0.4581
  190POPC   H6R21905   4.966   6.550  10.223 -0.2518  0.8610  1.4721
  190POPC   H6S21906   4.825   6.653  10.177 -2.6650 -0.8014  1.2042
  190POPC   C2721907   4.872   6.498  10.036  0.0941 -0.1034 -0.2022
  190POPC   H7R21908   4.913   6.395  10.034  2.3480  0.7351 -2.8869
  190POPC   H7S21909   4.940   6.563   9.977 -1.2188 -0.9294 -2.7734
  190POPC   C2821910   4.735   6.499   9.961  1.0783 -0.2939 -0.0280
  190POPC   H8R21911   4.691   6.601   9.973 -1.6962 -1.2256 -1.3779
  190POPC   H8S21912   4.669   6.427  10.014  1.4468 -1.6195 -1.3232
  190POPC   C2921913   4.739   6.468   9.813 -0.3892  0.3318  0.0535
  190POPC   H9121914   4.813   6.390   9.787 -1.2705 -0.7768  0.7872
  190POPC  C21021915   4.669   6.522   9.713 -0.1582 -0.3434 -0.2831
  190POPC  H10121916   4.670   6.486   9.609  1.3476  0.6248 -0.6258
  190POPC  C21121917   4.564   6.633   9.728 -0.3464  0.4846 -0.4187
  190POPC  H11R21918   4.549   6.668   9.832  0.9278 -2.2510  0.7984
  190POPC  H11S21919   4.465   6.592   9.698 -1.0475  0.3124  1.9207
  190POPC  C21221920   4.592   6.757   9.650 -0.3389  0.0308  0.5213
  190POPC  H12R21921   4.678   6.809   9.697  0.7875  0.4278 -1.8308
  190POPC  H12S21922   4.508   6.829   9.649 -1.3765 -1.1375  1.1973
  190POPC  C21321923   4.643   6.734   9.500  0.2532 -0.2529 -0.3155
  190POPC  H13R21924   4.733   6.669   9.508 -0.9054 -1.8160  0.6654
  190POPC  H13S21925   4.666   6.835   9.460  0.4305  0.3646  1.2711
  190POPC  C21421926   4.537   6.668   9.415 -0.9605  0.0913 -0.1954
  190POPC  H14R21927   4.446   6.727   9.436  0.6404  3.5138 -2.0836
  190POPC  H14S21928   4.505   6.567   9.449  0.9545 -0.2016  0.8771
  190POPC  C21521929   4.564   6.678   9.268  0.5346 -0.3618  0.3426
  190POPC  H15R21930   4.641   6.604   9.241  1.4828  0.8748 -0.4553
  190POPC  H15S21931   4.610   6.778   9.253  0.4919 -0.3604  0.2180
  190POPC  C21621932   4.441   6.651   9.176  1.1994  0.4232  0.2399
  190POPC  H16R21933   4.351   6.616   9.230  0.9671 -2.3912 -1.7373
  190POPC  H16S21934   4.459   6.558   9.117 -2.4804 -0.8218  0.8558
  190POPC  C21721935   4.409   6.752   9.073  0.6775 -0.0687 -0.0741
  190POPC  H17R21936   4.501   6.786   9.022  1.2914  0.9427  1.6277
  190POPC  H17S21937   4.374   6.849   9.114  1.5187 -0.1206  0.7881
  190POPC  C21821938   4.307   6.696   8.969 -0.0868  0.2005  0.0002
  190POPC  H18R21939   4.210   6.661   9.012 -1.2564 -0.0756 -2.6348
  190POPC  H18S21940   4.344   6.610   8.909  0.5161 -0.8694  1.8190
  190POPC  H18T21941   4.271   6.778   8.902  2.1484  1.4608  0.2582
  190POPC   C3321942   5.291   6.222  10.153  0.1266  0.2379 -0.2091
  190POPC   H3X21943   5.357   6.133  10.162  0.7104  0.7020  0.1864
  190POPC   H3Y21944   5.353   6.314  10.165  1.0436 -0.6337  2.3514
  190POPC   C3421945   5.233   6.227  10.007 -0.3718 -0.6013  0.5777
  190POPC   H4X21946   5.321   6.262   9.948 -1.8017  2.8846  0.2788
  190POPC   H4Y21947   5.180   6.322   9.985  0.5414 -0.7231 -2.7393
  190POPC   C3521948   5.139   6.121   9.962  0.4198  0.7352 -0.2880
  190POPC   H5X21949   5.064   6.097  10.040  0.6144  0.1039 -0.2893
  190POPC   H5Y21950   5.197   6.029   9.939 -0.9047 -0.3262  0.4993
  190POPC   C3621951   5.072   6.163   9.832 -0.1150  0.0266 -0.0413
  190POPC   H6X21952   5.034   6.267   9.844 -0.7497 -0.2325  0.2373
  190POPC   H6Y21953   4.983   6.106   9.800 -1.1997  2.1862 -1.1004
  190POPC   C3721954   5.171   6.160   9.717 -0.3310  0.2890 -0.6137
  190POPC   H7X21955   5.238   6.071   9.725  2.1959  2.1935  1.3278
  190POPC   H7Y21956   5.247   6.240   9.720 -1.0824  1.0957 -2.1268
  190POPC   C3821957   5.105   6.150   9.578 -0.0572 -0.5210 -0.6295
  190POPC   H8X21958   5.070   6.253   9.556  0.6626  0.7230  3.3910
  190POPC   H8Y21959   5.021   6.078   9.572 -0.3982 -0.0283 -2.3671
  190POPC   C3921960   5.207   6.101   9.478  0.2052 -0.5102 -0.6963
  190POPC   H9X21961   5.239   6.002   9.517  1.4373  0.8578  2.0697
  190POPC   H9Y21962   5.303   6.158   9.483 -0.8397  1.2224  0.6292
  190POPC  C31021963   5.158   6.087   9.330 -0.2674  0.3506 -0.2731
  190POPC  H10X21964   5.109   6.179   9.293  0.8423  0.6884 -0.9389
  190POPC  H10Y21965   5.087   6.002   9.326  0.2878 -0.1438  0.1354
  190POPC  C31121966   5.277   6.057   9.239 -0.2461  1.2797 -0.0165
  190POPC  H11X21967   5.341   5.978   9.282 -0.6797  1.1833  0.4672
  190POPC  H11Y21968   5.343   6.146   9.238  1.0176  0.3661  0.2902
  190POPC  C31221969   5.228   6.022   9.096 -0.1538 -0.8082  0.6588
  190POPC  H12X21970   5.202   6.112   9.036 -1.6190 -1.6633 -0.0398
  190POPC  H12Y21971   5.136   5.961   9.107  0.0272 -1.1142  0.5024
  190POPC  C31321972   5.326   5.942   9.003  0.0653 -0.7629 -0.9833
  190POPC  H13X21973   5.326   5.837   9.039 -0.2915  0.2257  2.2799
  190POPC  H13Y21974   5.425   5.986   9.029 -0.5319 -0.6953  1.3646
  190POPC  C31421975   5.301   5.955   8.852 -0.0047  0.1914 -0.2749
  190POPC  H14X21976   5.322   6.059   8.819 -0.7012  0.8467  1.2539
  190POPC  H14Y21977   5.196   5.939   8.819  0.2514  1.0347 -1.5889
  190POPC  C31521978   5.387   5.852   8.775 -0.6082  0.0857  0.5663
  190POPC  H15X21979   5.366   5.751   8.817  0.1143  0.1104  0.9927
  190POPC  H15Y21980   5.496   5.870   8.787 -0.8389  1.3150  0.9208
  190POPC  C31621981   5.366   5.873   8.624 -0.6208 -0.0089  0.2577
  190POPC  H16X21982   5.438   5.813   8.565 -1.0801 -2.5614  2.1255
  190POPC  H16Y21983   5.345   5.978   8.591 -0.5065 -0.1935 -0.4225
  190POPC  H16Z21984   5.275   5.820   8.589  1.2808 -2.2600 -1.6068
  191POPC     N21985   5.729   0.061   6.002 -0.3462 -0.1200  0.7358
  191POPC   C1221986   5.643  -0.009   6.106 -0.5366 -0.5346  0.4224
  191POPC  H12A21987   5.582  -0.093   6.080 -0.6773 -1.3411  3.0298
  191POPC  H12B21988   5.568   0.068   6.123 -0.0012  0.0837  0.0480
  191POPC   C1321989   5.828  -0.034   5.940  0.0624 -0.1085  0.0158
  191POPC  H13A21990   5.779  -0.110   5.880 -0.0771  0.9097 -1.2062
  191POPC  H13B21991   5.886   0.031   5.876  1.8338 -1.0929  0.5653
  191POPC  H13C21992   5.885  -0.080   6.019 -1.2096 -1.9423 -0.0561
  191POPC   C1421993   5.641   0.115   5.890 -0.3284 -0.3451  0.2602
  191POPC  H14A21994   5.695   0.172   5.817 -1.0434 -1.2996 -1.0637
  191POPC  H14B21995   5.603   0.035   5.828 -2.2024  0.9550 -0.3536
  191POPC  H14C21996   5.558   0.175   5.924  0.7393  0.8682  0.7682
  191POPC   C1521997   5.808   0.170   6.064 -0.1307  0.0810 -0.1899
  191POPC  H15A21998   5.863   0.218   5.984 -1.4238 -1.6082 -2.2117
  191POPC  H15B21999   5.872   0.126   6.138 -0.1708  0.1054 -0.1411
  191POPC  H15C22000   5.748   0.247   6.110  2.4805  1.1618  1.6215
  191POPC   C1122001   5.698  -0.047   6.251  0.3778  0.1998  0.1358
  191POPC  H11A22002   5.609  -0.077   6.310  0.8825  0.8622  1.2785
  191POPC  H11B22003   5.743   0.045   6.296  1.1395 -0.2901  0.3921
  191POPC     P22004   5.938  -0.154   6.292 -0.1009 -0.2040 -0.4153
  191POPC   O1322005   5.997  -0.021   6.274  0.1554 -0.5558 -0.2043
  191POPC   O1422006   6.010  -0.271   6.233  0.5273  0.8804  0.1226
  191POPC   O1222007   5.790  -0.147   6.239  0.0881  0.3621  0.1347
  191POPC   O1122008   5.922  -0.185   6.450 -0.1474  0.0807  0.1601
  191POPC    C122009   5.855  -0.308   6.500  0.2902 -0.3109  0.7057
  191POPC    HA22010   5.825  -0.381   6.421 -0.0082 -0.2903  0.7995
  191POPC    HB22011   5.759  -0.278   6.546  0.7847  0.1017  1.4863
  191POPC    C222012   5.946  -0.380   6.601 -0.7385  0.0284  0.1319
  191POPC    HS22013   5.935  -0.490   6.598  2.6480 -0.5141  2.2750
  191POPC   O2122014   5.926  -0.334   6.741 -0.2711 -1.3908  0.5487
  191POPC   C2122015   5.825  -0.394   6.793 -0.4986  0.1502 -0.2059
  191POPC   O2222016   5.755  -0.481   6.736 -0.1498  0.0652 -0.4178
  191POPC   C2222017   5.816  -0.349   6.939 -0.0633 -0.4998 -0.4256
  191POPC   H2R22018   5.728  -0.384   6.997 -0.0938  0.3024  0.0265
  191POPC   H2S22019   5.805  -0.240   6.923 -1.9940 -0.9479 -2.8848
  191POPC    C322020   6.095  -0.350   6.565 -0.2376  0.1636  0.7687
  191POPC    HX22021   6.111  -0.240   6.568  0.7197  0.0857 -0.7961
  191POPC    HY22022   6.103  -0.366   6.455 -1.7223  0.8837  0.5331
  191POPC   O3122023   6.188  -0.420   6.658 -0.1761 -0.7244  0.2552
  191POPC   C3122024   6.314  -0.403   6.623 -0.3428  0.8804 -0.4848
  191POPC   O3222025   6.351  -0.348   6.524  0.0612 -0.5775 -0.3137
  191POPC   C3222026   6.412  -0.462   6.730  0.9868 -0.3934 -0.6416
  191POPC   H2X22027   6.504  -0.403   6.710 -0.5409  1.9904 -1.0437
  191POPC   H2Y22028   6.431  -0.569   6.708 -1.3291 -1.2524  1.0673
  191POPC   C2322029   5.945  -0.391   7.009 -0.0380  0.1156 -0.0498
  191POPC   H3R22030   6.031  -0.397   6.938 -0.0616  1.8213 -0.2633
  191POPC   H3S22031   5.935  -0.497   7.039  2.6675 -0.7034 -1.6638
  191POPC   C2422032   5.997  -0.295   7.117  0.2423 -0.1628 -0.0163
  191POPC   H4R22033   5.960  -0.194   7.090 -0.9667 -0.6007 -0.0332
  191POPC   H4S22034   6.108  -0.299   7.125  0.1997 -1.6482  0.0060
  191POPC   C2522035   5.949  -0.339   7.259  0.0642 -0.0732  0.0773
  191POPC   H5R22036   5.972  -0.447   7.269 -0.9309 -0.6249 -2.8419
  191POPC   H5S22037   5.838  -0.333   7.261  0.1163  1.2412  1.6852
  191POPC   C2622038   6.007  -0.256   7.376 -0.4535  0.2459  0.9476
  191POPC   H6R22039   6.004  -0.150   7.343  3.8460 -0.0972 -1.3560
  191POPC   H6S22040   6.117  -0.262   7.393 -0.4689  3.5821  3.1271
  191POPC   C2722041   5.930  -0.282   7.511 -0.0866 -0.2382  0.0739
  191POPC   H7R22042   5.949  -0.389   7.534  1.5651 -0.0733 -0.4283
  191POPC   H7S22043   5.822  -0.258   7.500 -0.6397 -0.8499  3.1076
  191POPC   C2822044   5.982  -0.185   7.619  0.0701 -0.2128 -0.2127
  191POPC   H8R22045   5.970  -0.082   7.579  1.0316  0.5348  1.3058
  191POPC   H8S22046   6.091  -0.201   7.634  0.2922  1.0369 -0.3323
  191POPC   C2922047   5.888  -0.194   7.739 -0.7649 -0.0618  0.1510
  191POPC   H9122048   5.784  -0.175   7.711 -0.9664 -0.2258  0.7771
  191POPC  C21022049   5.917  -0.225   7.868 -0.3802 -0.7167 -0.3659
  191POPC  H10122050   5.838  -0.240   7.942  0.2484  1.6659  0.8709
  191POPC  C21122051   6.055  -0.269   7.903  0.6053 -0.1340 -0.0884
  191POPC  H11R22052   6.106  -0.176   7.937 -0.1383  0.7922 -1.4278
  191POPC  H11S22053   6.105  -0.318   7.817 -0.4826  2.3832 -2.2952
  191POPC  C21222054   6.058  -0.350   8.032  0.2289 -0.2877  0.0249
  191POPC  H12R22055   6.160  -0.390   8.046  1.7758  3.2136 -0.1572
  191POPC  H12S22056   5.984  -0.433   8.037 -2.5651  2.0426  0.3463
  191POPC  C21322057   6.016  -0.273   8.161  0.1154  0.3138  0.0069
  191POPC  H13R22058   5.906  -0.279   8.170  0.2197  0.0000  1.2526
  191POPC  H13S22059   6.048  -0.166   8.156  0.8209  0.0934 -0.3330
  191POPC  C21422060   6.085  -0.318   8.283  0.4882  0.5955 -0.3212
  191POPC  H14R22061   6.193  -0.341   8.269  0.4619 -0.5232  1.0759
  191POPC  H14S22062   6.048  -0.421   8.300  0.9895  0.6667  1.3450
  191POPC  C21522063   6.056  -0.228   8.410 -0.0748  0.7371  0.6231
  191POPC  H15R22064   6.055  -0.294   8.499  0.2095  0.1049  0.1597
  191POPC  H15S22065   5.960  -0.174   8.395 -1.0989 -1.5011 -1.4152
  191POPC  C21622066   6.170  -0.130   8.424  0.3102  0.9867  0.6192
  191POPC  H16R22067   6.182  -0.066   8.334  1.4308  0.7690  0.6038
  191POPC  H16S22068   6.260  -0.194   8.434  0.0232  0.5616  0.4906
  191POPC  C21722069   6.148  -0.042   8.548 -0.6354 -0.1412 -0.1998
  191POPC  H17R22070   6.182  -0.095   8.639  3.2134  1.2597 -0.6420
  191POPC  H17S22071   6.041  -0.013   8.556 -0.4779  0.1397  1.0980
  191POPC  C21822072   6.217   0.097   8.540 -0.7542  0.6094  0.1859
  191POPC  H18R22073   6.155   0.166   8.602  1.1117 -0.2980  3.2377
  191POPC  H18S22074   6.221   0.130   8.434  2.1212 -0.0529  0.0261
  191POPC  H18T22075   6.321   0.094   8.578 -0.8020 -1.2341  0.2631
  191POPC   C3322076   6.364  -0.420   6.878  0.2688  0.1218  0.0555
  191POPC   H3X22077   6.261  -0.460   6.883  0.6789 -0.8010  2.6973
  191POPC   H3Y22078   6.365  -0.309   6.880 -2.1457  0.2666 -2.0025
  191POPC   C3422079   6.465  -0.466   6.989  0.0551 -0.5320  0.2883
  191POPC   H4X22080   6.562  -0.413   6.978 -0.8332  1.4843  1.5956
  191POPC   H4Y22081   6.478  -0.575   6.970 -1.0049 -0.5153 -0.6188
  191POPC   C3522082   6.410  -0.432   7.127 -0.2735 -0.1601 -0.0636
  191POPC   H5X22083   6.319  -0.493   7.144  0.2338 -0.3775  2.1102
  191POPC   H5Y22084   6.382  -0.325   7.116 -1.6056 -0.2292  2.2210
  191POPC   C3622085   6.503  -0.453   7.256 -0.3634 -0.0507  0.3856
  191POPC   H6X22086   6.602  -0.418   7.220  0.0063 -0.2740  1.1649
  191POPC   H6Y22087   6.526  -0.559   7.281 -1.1904 -0.5945 -1.0315
  191POPC   C3722088   6.468  -0.372   7.382 -1.0205 -0.1600  0.0759
  191POPC   H7X22089   6.446  -0.266   7.355 -1.8830 -0.5165 -0.6499
  191POPC   H7Y22090   6.549  -0.373   7.458 -1.0707  0.8822  0.1587
  191POPC   C3822091   6.340  -0.438   7.448 -0.4934  0.1624  0.1630
  191POPC   H8X22092   6.359  -0.547   7.462 -0.2154  0.1763 -0.0856
  191POPC   H8Y22093   6.262  -0.412   7.373  1.7184  1.2583 -1.8989
  191POPC   C3922094   6.309  -0.376   7.584 -0.4753  1.2029 -0.0771
  191POPC   H9X22095   6.218  -0.420   7.628 -0.0081 -0.7603 -0.9454
  191POPC   H9Y22096   6.274  -0.271   7.576 -4.2667  0.1192  0.3378
  191POPC  C31022097   6.421  -0.383   7.690  0.5858 -1.0253 -0.8574
  191POPC  H10X22098   6.493  -0.304   7.660  0.1892 -0.2110  0.2828
  191POPC  H10Y22099   6.482  -0.476   7.679  0.8501 -0.9520 -0.1033
  191POPC  C31122100   6.373  -0.358   7.835 -0.1900  0.0654  0.5881
  191POPC  H11X22101   6.308  -0.445   7.858  0.7163 -0.8983 -0.4232
  191POPC  H11Y22102   6.322  -0.261   7.857  2.0292  0.8872  2.5288
  191POPC  C31222103   6.494  -0.365   7.939  0.6701 -0.3107  0.5553
  191POPC  H12X22104   6.577  -0.309   7.891 -0.4331  1.5956  0.7409
  191POPC  H12Y22105   6.527  -0.470   7.929 -0.2980 -0.4486 -1.8666
  191POPC  C31322106   6.460  -0.321   8.079  0.5490  0.0208 -0.1806
  191POPC  H13X22107   6.362  -0.363   8.109 -0.4340  1.4235 -1.3011
  191POPC  H13Y22108   6.462  -0.211   8.068 -1.7005  0.4902  2.8732
  191POPC  C31422109   6.562  -0.347   8.184  0.6862 -0.4943  0.3934
  191POPC  H14X22110   6.644  -0.273   8.168 -0.3378  0.5119 -0.3150
  191POPC  H14Y22111   6.600  -0.450   8.170  1.6147  0.0969 -1.9439
  191POPC  C31522112   6.510  -0.316   8.328 -0.0546  0.3551 -0.0836
  191POPC  H15X22113   6.426  -0.388   8.333  0.8182 -0.8019 -1.3843
  191POPC  H15Y22114   6.477  -0.211   8.337 -0.6218  0.1344  0.5579
  191POPC  C31622115   6.623  -0.342   8.435  0.0405  0.2982  0.1841
  191POPC  H16X22116   6.721  -0.305   8.398  0.3178 -0.2451  0.3786
  191POPC  H16Y22117   6.632  -0.452   8.446 -0.1058 -0.0440 -2.4825
  191POPC  H16Z22118   6.601  -0.304   8.538 -0.1282  1.6489 -0.3222
  192POPC     N22119   5.370   2.461   5.932  0.7769 -0.0117  0.0869
  192POPC   C1222120   5.295   2.330   5.972  0.4046 -0.5708 -0.2098
  192POPC  H12A22121   5.314   2.254   5.897  1.4042  1.1151 -1.7563
  192POPC  H12B22122   5.190   2.355   5.971  0.7408  1.0696 -2.3637
  192POPC   C1322123   5.286   2.580   5.979 -0.2448 -0.2510 -0.1064
  192POPC  H13A22124   5.338   2.669   5.948  0.3686 -0.4137  0.4307
  192POPC  H13B22125   5.182   2.572   5.951 -0.2204 -1.9694  0.2056
  192POPC  H13C22126   5.279   2.593   6.086  0.7581 -0.1554 -0.0428
  192POPC   C1422127   5.497   2.463   5.994 -0.0547  0.1619  0.1436
  192POPC  H14A22128   5.557   2.548   5.963  2.2710 -1.3872  0.1050
  192POPC  H14B22129   5.492   2.473   6.101 -1.1992 -2.3177  0.3883
  192POPC  H14C22130   5.557   2.375   5.973 -0.8112 -0.4412  0.4660
  192POPC   C1522131   5.386   2.476   5.784 -0.3190  0.2197 -0.0677
  192POPC  H15A22132   5.448   2.560   5.756 -2.3029  1.2906 -1.4580
  192POPC  H15B22133   5.289   2.497   5.742 -0.3401  1.1982  0.4465
  192POPC  H15C22134   5.421   2.385   5.737 -0.1923 -0.5398  1.4261
  192POPC   C1122135   5.312   2.269   6.113  0.5915 -0.0217  0.0011
  192POPC  H11A22136   5.415   2.230   6.128  1.4067  1.6814 -0.9842
  192POPC  H11B22137   5.245   2.182   6.098  1.4413 -0.9471  1.3059
  192POPC     P22138   5.139   2.420   6.241  0.1586  0.0126 -0.1847
  192POPC   O1322139   5.077   2.370   6.367  0.0325  0.2413 -0.0714
  192POPC   O1422140   5.057   2.421   6.120 -0.0013 -0.0542 -0.2740
  192POPC   O1222141   5.276   2.360   6.217 -0.1732  0.3636  0.3226
  192POPC   O1122142   5.175   2.567   6.277  0.1351  0.0635 -0.0660
  192POPC    C122143   5.298   2.598   6.344  0.2324 -0.8899 -0.0718
  192POPC    HA22144   5.345   2.693   6.311 -0.3112 -0.4970  0.2621
  192POPC    HB22145   5.376   2.520   6.332 -0.3428 -1.8139  1.8478
  192POPC    C222146   5.279   2.628   6.498  0.4069 -0.1007 -0.1091
  192POPC    HS22147   5.371   2.678   6.537 -0.2883  2.1111 -1.1528
  192POPC   O2122148   5.249   2.513   6.570 -0.9316  0.3195  0.3032
  192POPC   C2122149   5.348   2.425   6.578 -0.3048  0.1294  0.8847
  192POPC   O2222150   5.455   2.428   6.522  0.3571 -0.1669  0.0509
  192POPC   C2222151   5.310   2.331   6.689 -0.1286  0.8486 -0.6822
  192POPC   H2R22152   5.362   2.233   6.688  1.7243  1.7617  0.2194
  192POPC   H2S22153   5.207   2.297   6.670 -0.0507 -0.8883  1.5860
  192POPC    C322154   5.163   2.720   6.532  0.4137 -0.3138 -0.0351
  192POPC    HX22155   5.074   2.654   6.520 -0.2895  0.5041  0.6260
  192POPC    HY22156   5.148   2.800   6.457 -1.9634 -0.6891 -0.0621
  192POPC   O3122157   5.165   2.782   6.665 -0.3176  0.0520 -0.2009
  192POPC   C3122158   5.081   2.726   6.753 -0.0100  0.6139 -0.6011
  192POPC   O3222159   5.018   2.624   6.732  0.2828 -0.3331  0.0105
  192POPC   C3222160   5.078   2.813   6.879 -0.5243  0.8296 -0.1494
  192POPC   H2X22161   5.026   2.903   6.839 -0.9556  0.7765  0.2807
  192POPC   H2Y22162   5.181   2.842   6.910 -0.4427 -0.3105  0.6700
  192POPC   C2322163   5.319   2.388   6.833  0.4291 -0.3336 -0.1021
  192POPC   H3R22164   5.256   2.479   6.837 -1.0964 -1.4060  1.9299
  192POPC   H3S22165   5.421   2.409   6.873  0.5902  3.6031 -2.1625
  192POPC   C2422166   5.249   2.289   6.929  0.4745  0.5332 -0.3973
  192POPC   H4R22167   5.293   2.187   6.923  1.7576  0.7751  2.9322
  192POPC   H4S22168   5.144   2.284   6.895 -0.2415 -0.3667  1.7596
  192POPC   C2522169   5.257   2.328   7.083  0.5267  0.2639  0.0006
  192POPC   H5R22170   5.173   2.293   7.147  0.6345 -0.1865 -0.0968
  192POPC   H5S22171   5.253   2.437   7.099 -0.8641  0.4060 -1.0653
  192POPC   C2622172   5.385   2.269   7.151 -0.3474 -0.1583 -0.1838
  192POPC   H6R22173   5.480   2.309   7.109 -1.4781  1.3934 -1.3944
  192POPC   H6S22174   5.381   2.161   7.125  1.2118  0.1306 -1.8624
  192POPC   C2722175   5.386   2.271   7.301 -0.0064  0.7584 -0.2131
  192POPC   H7R22176   5.457   2.189   7.326 -0.8578  0.0013 -0.2245
  192POPC   H7S22177   5.285   2.239   7.337  0.4672 -0.9592 -0.2957
  192POPC   C2822178   5.435   2.404   7.357 -0.2489 -0.1017 -0.4864
  192POPC   H8R22179   5.359   2.473   7.314 -1.6816 -2.1360 -1.4245
  192POPC   H8S22180   5.532   2.441   7.317  0.6145 -2.7828 -1.1158
  192POPC   C2922181   5.431   2.406   7.507 -0.1173  0.2105 -0.8807
  192POPC   H9122182   5.332   2.424   7.551  0.8082  2.3296  0.4886
  192POPC  C21022183   5.535   2.378   7.580 -0.6849  0.3932 -0.0863
  192POPC  H10122184   5.521   2.368   7.689 -3.1628 -3.1898 -0.5749
  192POPC  C21122185   5.671   2.336   7.526 -0.3829 -0.1533  0.5348
  192POPC  H11R22186   5.655   2.261   7.445 -2.6548  1.7257 -0.8985
  192POPC  H11S22187   5.726   2.286   7.608 -0.6425 -0.9175  0.2546
  192POPC  C21222188   5.764   2.443   7.471  0.2662  0.0533  0.0435
  192POPC  H12R22189   5.827   2.480   7.555  2.8306 -1.3862 -1.1266
  192POPC  H12S22190   5.709   2.534   7.439 -2.0594 -0.9213  1.0194
  192POPC  C21322191   5.863   2.400   7.361  0.5210 -0.0678  0.3647
  192POPC  H13R22192   5.908   2.304   7.393 -1.1688 -0.8160  0.5516
  192POPC  H13S22193   5.954   2.464   7.348  0.2396  0.6530  1.6813
  192POPC  C21422194   5.798   2.376   7.229  0.1535  0.4094 -0.0527
  192POPC  H14R22195   5.790   2.473   7.177 -0.3763  0.2805 -0.2178
  192POPC  H14S22196   5.694   2.340   7.247  0.6730 -0.5975  1.0534
  192POPC  C21522197   5.862   2.259   7.153 -0.4311 -1.0063  0.4045
  192POPC  H15R22198   5.887   2.174   7.220  2.2679 -1.1920 -0.7104
  192POPC  H15S22199   5.957   2.297   7.110 -1.0547 -0.9134 -0.9297
  192POPC  C21622200   5.766   2.194   7.049  0.5050 -0.0009 -0.5176
  192POPC  H16R22201   5.662   2.189   7.088  0.7100 -1.1094 -0.0630
  192POPC  H16S22202   5.791   2.087   7.032 -1.1982 -0.4551 -0.3312
  192POPC  C21722203   5.752   2.273   6.917  0.2183  0.9835  0.4350
  192POPC  H17R22204   5.730   2.379   6.939 -1.0565  0.8669 -0.2062
  192POPC  H17S22205   5.665   2.228   6.864  0.8081  0.6545 -0.2756
  192POPC  C21822206   5.873   2.253   6.821 -0.5190  0.4603 -0.7128
  192POPC  H18R22207   5.966   2.287   6.871 -0.2702  2.2421 -2.2803
  192POPC  H18S22208   5.874   2.321   6.733 -0.3120  0.8897 -0.3873
  192POPC  H18T22209   5.884   2.150   6.783 -0.0552  0.2321  0.0171
  192POPC   C3322210   5.000   2.758   7.002 -0.4956  0.2290 -0.6178
  192POPC   H3X22211   4.902   2.714   6.973  0.5315 -2.2587 -0.6336
  192POPC   H3Y22212   4.990   2.839   7.077  2.5078  0.2726 -0.1363
  192POPC   C3422213   5.067   2.634   7.054 -0.4585  0.2176  0.2699
  192POPC   H4X22214   5.175   2.653   7.069 -0.4762  3.0294 -2.2539
  192POPC   H4Y22215   5.048   2.551   6.982 -2.0319  2.0253 -1.5127
  192POPC   C3522216   5.019   2.581   7.195 -0.2575  0.2947  0.8123
  192POPC   H5X22217   5.080   2.490   7.218 -0.0921 -0.0159 -0.7307
  192POPC   H5Y22218   4.913   2.549   7.203 -0.6616  1.1417 -0.7209
  192POPC   C3622219   5.044   2.664   7.317  0.5527 -0.3323  0.1426
  192POPC   H6X22220   4.979   2.754   7.313  1.6173  0.6052  2.2172
  192POPC   H6Y22221   5.147   2.706   7.317  1.0249 -1.4323 -0.5269
  192POPC   C3722222   5.005   2.596   7.448  0.3126  0.0260 -0.1093
  192POPC   H7X22223   5.067   2.505   7.466  0.8116  0.6484  1.4012
  192POPC   H7Y22224   4.908   2.547   7.426 -0.5103  1.5674 -0.0117
  192POPC   C3822225   4.999   2.692   7.565 -0.0538 -0.1040 -0.0596
  192POPC   H8X22226   4.938   2.658   7.651  0.5101  2.2496  1.3620
  192POPC   H8Y22227   4.952   2.784   7.524  1.8488  0.5794 -0.8294
  192POPC   C3922228   5.143   2.730   7.602 -0.1542 -0.1523 -0.7215
  192POPC   H9X22229   5.180   2.812   7.537 -1.0973  0.4544 -0.5119
  192POPC   H9Y22230   5.202   2.636   7.591 -0.2783 -0.2351 -0.6856
  192POPC  C31022231   5.165   2.798   7.742  0.1092  0.7052 -0.1993
  192POPC  H10X22232   5.108   2.743   7.819  0.1710  0.4335 -0.3428
  192POPC  H10Y22233   5.143   2.906   7.736 -0.7950  0.5099 -0.5593
  192POPC  C31122234   5.315   2.784   7.778 -0.4840 -0.7471  0.4057
  192POPC  H11X22235   5.346   2.869   7.843  0.5801  0.2595 -1.3371
  192POPC  H11Y22236   5.381   2.798   7.690 -2.1133  1.1555 -0.5980
  192POPC  C31222237   5.335   2.650   7.851  0.4243 -0.0701  0.1855
  192POPC  H12X22238   5.303   2.568   7.782 -1.3371  0.5564  0.2157
  192POPC  H12Y22239   5.254   2.637   7.925 -1.5133  0.6395 -1.7048
  192POPC  C31322240   5.475   2.613   7.888 -0.4575 -0.0236 -0.2545
  192POPC  H13X22241   5.544   2.636   7.804 -0.1074  3.5104  0.8221
  192POPC  H13Y22242   5.488   2.504   7.904  0.5393 -0.0034 -0.8547
  192POPC  C31422243   5.528   2.695   8.008  0.0768 -1.0194 -0.0274
  192POPC  H14X22244   5.457   2.673   8.091  0.1811  1.0231  0.6416
  192POPC  H14Y22245   5.518   2.803   7.986  0.2383 -1.0409 -0.2089
  192POPC  C31522246   5.678   2.665   8.033 -0.6235  0.8319  0.5198
  192POPC  H15X22247   5.734   2.680   7.938  0.5068  0.9681  1.1886
  192POPC  H15Y22248   5.685   2.558   8.062 -0.1448  0.6067 -0.3684
  192POPC  C31622249   5.727   2.751   8.150  0.4394 -0.5465  0.0209
  192POPC  H16X22250   5.663   2.750   8.241  0.4834 -1.2837  0.0500
  192POPC  H16Y22251   5.734   2.856   8.116  1.1796 -0.1900  1.2323
  192POPC  H16Z22252   5.826   2.710   8.181 -0.5812 -2.1092  1.3823
  193SOD    SOD22253   6.002   2.083  16.884 -0.3176 -0.6326 -0.3475
  194SOD    SOD22254   5.760   3.967   1.554 -0.0308  0.0505 -0.4647
  195SOD    SOD22255   6.294   3.598  16.027 -0.2062 -0.2356 -0.0527
  196SOD    SOD22256   0.861   6.263  12.692  0.0090  0.4683 -0.2163
  197SOD    SOD22257   5.745   3.419   2.256 -0.1714 -0.1605  0.0592
  198SOD    SOD22258   5.109   4.587   3.329 -0.6515 -0.4502  0.0595
  199SOD    SOD22259   2.585   6.080   4.918 -0.2286 -0.1058 -0.8499
  200SOD    SOD22260   1.318   3.767   6.714 -0.0647 -0.2294 -0.1406
  201SOD    SOD22261   6.612   5.048  13.710 -0.1020 -0.0464 -0.0770
  202SOD    SOD22262   6.439   6.641   6.428  0.0632 -0.1168 -0.2040
  203SOD    SOD22263   1.200   2.466  16.640  0.1345  0.0095 -0.3658
  204SOD    SOD22264   3.636   3.012  11.082 -0.4597 -0.2147 -0.4209
  205SOD    SOD22265   0.603   1.812   1.624  0.3799 -0.2266  0.1066
  206SOD    SOD22266   1.412   3.226  12.266  0.3992  0.2943 -0.0977
  207SOD    SOD22267   5.227   3.066   0.522  0.1188  0.4188  0.2121
  208SOD    SOD22268   3.425   1.405  13.460  0.0146 -0.2662 -0.2010
  209SOD    SOD22269   2.133   2.924   4.524 -0.1966 -0.0188 -0.0486
  210SOD    SOD22270   5.379   2.229   3.333  0.3906 -0.0119 -0.7495
  211SOD    SOD22271   3.712   0.271  14.310 -0.0335  0.0449 -0.1693
  212SOD    SOD22272   5.129   1.634  15.717 -0.0540  0.2852  0.0665
  213SOD    SOD22273   5.796   1.146  13.435  0.6151  0.3708 -0.5460
  214SOD    SOD22274   1.542   4.626   6.326 -0.5278  0.4918  0.0118
  215SOD    SOD22275   3.370   3.872  13.649  0.1365  0.1618  0.0272
  216SOD    SOD22276   3.861   0.122  12.531  0.1140 -0.1749 -0.0029
  217SOD    SOD22277   4.186   5.903   6.132  0.5068  0.0314 -0.2043
  218SOD    SOD22278   0.556   5.881  10.571  0.1697 -0.2701  0.4632
  219SOD    SOD22279   0.162   6.766   3.383 -0.0857  0.1545  0.3475
  220SOD    SOD22280   5.950   6.217   3.267 -0.0356 -0.1972  0.0025
  221SOD    SOD22281   5.538   1.027  16.631 -0.2255  0.1493 -0.0666
  222SOD    SOD22282   4.022   0.074   0.355 -0.4318 -0.0194 -0.4406
  223SOD    SOD22283   0.302   2.519  16.351  0.1736 -0.3577  0.0110
  224SOD    SOD22284   3.985   6.431   5.020 -0.0710 -0.2661 -0.3816
  225SOD    SOD22285   2.984   4.111  16.940  0.1201 -0.1775 -0.0372
  226SOD    SOD22286   2.305   6.671   4.876  0.2950  0.0419 -0.2346
  227SOD    SOD22287   3.714   4.341  12.729  0.9376  0.4249  0.3465
  228SOD    SOD22288   2.716   3.448   1.640  0.0306 -0.1077  0.5528
  229SOD    SOD22289   2.067   3.111   6.414 -0.4334 -0.2403 -0.5938
  230SOD    SOD22290   1.743   0.329  12.257 -0.1776  0.1063 -0.3396
  231SOD    SOD22291   6.563   0.168  11.973 -0.3060 -0.0414 -0.1783
  232SOD    SOD22292   5.495   6.235   0.151 -0.3951  0.1072 -0.3888
  233SOD    SOD22293   2.461   5.100  14.209 -0.2690 -0.0134  0.1097
  234SOD    SOD22294   2.687   0.825   6.432  0.1355  0.1581 -0.0173
  235SOD    SOD22295   6.019   1.252   5.196 -0.4317  0.0434  0.1863
  236SOD    SOD22296   0.722   6.091  16.626  0.1730 -0.3561 -0.1020
  237SOD    SOD22297   4.385   2.422  16.420 -0.4800 -0.1755 -0.4895
  238SOD    SOD22298   6.213   5.142   4.119  0.2011  0.2415 -0.4586
  239SOD    SOD22299   1.599   5.133  11.541  0.1886 -0.5923  0.1361
  240SOD    SOD22300   2.049   4.802  14.652 -0.2032  0.2183 -0.5626
  241SOD    SOD22301   2.964   3.365   1.123 -0.5936  0.0594 -0.3386
  242SOD    SOD22302   0.308   6.748   1.810 -0.2686 -0.0170 -0.2212
  243SOD    SOD22303   5.349   5.881   6.268  0.0195  0.2348  0.4653
  244SOD    SOD22304   5.423   2.544  11.152  0.5134 -0.2495  0.0319
  245SOD    SOD22305   0.526   2.864  13.641  0.1274  0.0364  0.4634
  246SOD    SOD22306   4.757   4.611  11.385 -0.2694  0.0235 -0.3290
  247SOD    SOD22307   5.250   0.391  12.331  0.4514 -0.0189 -0.4254
  248SOD    SOD22308   5.092   0.372   2.112  0.2288  0.0098 -0.0333
  249SOD    SOD22309   2.646   3.097   3.620 -0.4381  0.3199 -0.0870
  250SOD    SOD22310   5.520   0.199   0.053 -0.2624 -0.5966 -0.0575
  251SOD    SOD22311   2.110   5.545  12.197  0.2511 -0.4325 -0.4196
  252SOD    SOD22312   1.316   1.979  14.960 -0.0505 -0.3860  0.0124
  253SOD    SOD22313   0.774   1.398  12.549  0.0127 -0.1225 -0.2309
  254SOD    SOD22314   2.216   4.307   5.645 -0.3570 -0.6117 -0.3376
  255SOD    SOD22315   3.672   3.914  14.895  0.3418 -0.0626 -0.3381
  256SOD    SOD22316   4.643   0.188  11.154  0.4735 -0.0542  0.1436
  257SOD    SOD22317   2.750   5.673  10.661  0.0824  0.1225  0.4765
  258SOD    SOD22318   2.140   4.015  16.632 -0.1890  0.2831 -0.2180
  259SOD    SOD22319   4.420   3.837   5.912  0.3857  0.1399 -0.6227
  260SOD    SOD22320   6.307   0.370   5.079  0.1779 -0.0442 -0.0553
  261SOD    SOD22321   4.703   3.312   5.199  0.2377 -0.2547 -0.2116
  262SOD    SOD22322   0.086   2.159   1.161  0.1788  0.0733  0.0904
  263SOD    SOD22323   4.943   3.935  13.032  0.2732 -0.9042  0.0600
  264SOD    SOD22324   3.101   5.804   1.292  0.6922  0.1784 -0.1920
  265SOD    SOD22325   5.101   5.045   0.907 -0.0570  0.0788 -0.1548
  266SOD    SOD22326   5.041   2.951  11.933  0.0153 -0.3440  0.2859
  267SOD    SOD22327   6.707   2.401   5.628 -0.0710 -0.1058  0.0516
  268SOD    SOD22328   3.102   0.139  10.889  0.2894  0.2223  0.6074
  269SOD    SOD22329   3.725   5.108  11.185 -0.3412 -0.3359 -0.2047
  270CLA    CLA22330   4.007   1.537   3.431  0.2182  0.0806  0.2445
  271CLA    CLA22331   3.496   4.122  13.195 -0.0137 -0.1724  0.3852
  272CLA    CLA22332   2.873   2.435  14.355 -0.2476 -0.3653 -0.2099
  273CLA    CLA22333   5.999   0.493   0.381 -0.3230  0.0627 -0.1545
  274CLA    CLA22334   1.246   1.969  13.532 -0.0544  0.0289 -0.2477
  275CLA    CLA22335   2.089   4.130   2.089 -0.4607  0.1901  0.1652
  276CLA    CLA22336   0.934   4.008  13.625 -0.0006 -0.1271 -0.2475
  277CLA    CLA22337   1.325   1.660   2.711 -0.1768 -0.0598 -0.0939
  278CLA    CLA22338   5.565   1.944   2.941  0.0870  0.2704 -0.1859
  279CLA    CLA22339   6.275   1.501  16.435 -0.4188  0.0314 -0.1278
  280CLA    CLA22340   0.339   3.098  15.372 -0.0847  0.2340 -0.3327
  281CLA    CLA22341   2.707   5.014   0.618  0.4188 -0.1789 -0.0539
  282CLA    CLA22342   5.757   3.404   4.150  0.2582 -0.0278  0.3187
  283CLA    CLA22343   6.130   2.234  15.974  0.0033  0.2483 -0.0888
  284CLA    CLA22344   6.060   0.190  15.424 -0.4538  0.0958 -0.1459
  285CLA    CLA22345   1.111   5.639  16.230 -0.3548 -0.2030  0.0573
  286CLA    CLA22346   3.355   2.981  13.976 -0.1499 -0.2693  0.0189
  287CLA    CLA22347   1.953   1.518  16.564 -0.0735  0.3142  0.0391
  288CLA    CLA22348   4.030   3.786  13.627  0.4880 -0.2756 -0.0865
  289CLA    CLA22349   0.817   6.390  15.004 -0.4482  0.2751  0.2610
  290CLA    CLA22350   2.390   0.124   1.467  0.2299  0.1986  0.0011
  291CLA    CLA22351   6.343   1.278   0.183  0.3874 -0.2127 -0.0097
  292CLA    CLA22352   0.792   5.223   3.920  0.3891  0.3219  0.0341
  293CLA    CLA22353   0.162   2.971  16.527 -0.7859  0.4208 -0.1339
  294CLA    CLA22354   3.245   3.489  14.769 -0.1623  0.4411 -0.5230
  295CLA    CLA22355   0.850   5.602  16.956  0.0585  0.1607 -0.0350
  296CLA    CLA22356   1.965   6.404   4.971 -0.1668  0.4205  0.5919
  297CLA    CLA22357   2.194   3.147   1.220  0.2675 -0.0320 -0.0714
  298CLA    CLA22358   6.265   2.460   2.662  0.0186  0.0396 -0.0084
  299CLA    CLA22359   6.759   4.851  12.190  0.3277 -0.2775  0.5140
  300CLA    CLA22360   5.509   3.495  16.248  0.3140 -0.0629  0.1140
  301CLA    CLA22361   2.997   1.676  15.675  0.4112 -0.1722  0.4961
  302CLA    CLA22362   4.237   0.465  13.456 -0.1562  0.3601 -0.1303
  303CLA    CLA22363   4.554   3.903   5.209  0.0254 -0.1965  0.2410
  304CLA    CLA22364   4.447   5.221   1.277 -0.0303  0.0855  0.4498
  305CLA    CLA22365   2.066   4.430  16.519  0.1987  0.4305 -0.1883
  306CLA    CLA22366   5.933   5.396  13.725  0.2474  0.2306 -0.2300
  307CLA    CLA22367   4.152   4.693  16.967  0.3889 -0.0892 -0.0408
  308CLA    CLA22368   5.127   1.383   4.826  0.3176  0.4386  0.2240
  309CLA    CLA22369   0.942   3.883   6.075 -0.1713  0.0840 -0.0454
  310CLA    CLA22370   0.213   6.353  14.308 -0.1826  0.1749  0.1414
  311CLA    CLA22371   3.363   5.067  11.543  0.1307  0.1301  0.2090
  312CLA    CLA22372   4.941   3.094  13.513 -0.0184  0.3944  0.4556
  313CLA    CLA22373   1.262   6.240   1.292  0.3185 -0.0401 -0.0773
  314CLA    CLA22374   0.003   3.470   1.234  0.1535 -0.0633  0.0946
  315CLA    CLA22375   3.763   0.851  12.403 -0.2592  0.5611 -0.1625
  316CLA    CLA22376   2.860   0.179  14.844 -0.1840 -0.1155  0.0078
  317CLA    CLA22377   4.914   0.022  13.779 -0.3571  0.0999 -0.0818
  318CLA    CLA22378   3.223   4.719   3.806  0.2097  0.2985  0.1938
  319CLA    CLA22379   6.585   3.953  13.540 -0.0032  0.0251 -0.1663
  320CLA    CLA22380   0.006   1.208   0.903  0.3891 -0.2162 -0.0560
  321CLA    CLA22381   3.425   4.115   3.889 -0.0626  0.2399  0.4996
  322CLA    CLA22382   5.746   4.317   5.267 -0.3281  0.3624  0.0802
  323TIP3   OH222383   3.480   3.882  12.233  0.0502  0.1460  0.1250
  323TIP3    H122384   3.501   3.957  12.288  3.8697  0.0927 -0.9554
  323TIP3    H222385   3.512   3.806  12.283 -2.7474 -0.7674  0.7211
  324TIP3   OH222386   0.465   3.896  14.222  0.4892 -0.2695 -0.2440
  324TIP3    H122387   0.527   3.842  14.173 -0.5601 -0.1276 -1.7857
  324TIP3    H222388   0.495   3.986  14.210  0.2156 -0.2323 -0.6766
  325TIP3   OH222389   3.856   3.632   5.158 -0.2739  0.1772  0.1922
  325TIP3    H122390   3.923   3.700   5.166  0.5568 -0.6651  0.5961
  325TIP3    H222391   3.803   3.642   5.237  1.1003 -0.9267  1.3164
  326TIP3   OH222392   0.754   5.457   5.865 -0.1186  0.1063 -0.2651
  326TIP3    H122393   0.664   5.465   5.895  0.3832 -0.5674  1.5447
  326TIP3    H222394   0.780   5.547   5.843 -1.1122  0.3506 -0.5082
  327TIP3   OH222395   3.435   2.075  15.974 -0.1987 -0.7194 -0.0169
  327TIP3    H122396   3.386   2.157  15.964  1.1453 -0.0512 -1.6423
  327TIP3    H222397   3.404   2.038  16.056 -1.3233  1.0871  0.4239
  328TIP3   OH222398   3.658   5.116  15.596  0.0365  0.6404 -0.1157
  328TIP3    H122399   3.721   5.127  15.666  0.4824  0.2727 -0.4541
  328TIP3    H222400   3.704   5.066  15.529  0.0635  2.1465 -1.2731
  329TIP3   OH222401   0.836   3.022   1.034  0.1015  0.2584 -0.0160
  329TIP3    H122402   0.778   2.947   1.031  0.7944 -0.2702 -0.5330
  329TIP3    H222403   0.922   2.985   1.056  0.3260  0.9777  0.3841
  330TIP3   OH222404   0.215   4.250   2.393  0.6177  0.0932 -0.1255
  330TIP3    H122405   0.188   4.197   2.318  1.7512 -1.6708  0.6536
  330TIP3    H222406   0.292   4.297   2.363  1.0189 -0.5458 -0.1146
  331TIP3   OH222407   3.899   5.694  12.927  0.5108  0.1392  0.3236
  331TIP3    H122408   3.951   5.754  12.874  0.6697  1.6136  2.0311
  331TIP3    H222409   3.951   5.614  12.930  1.2049  0.5431 -0.5158
  332TIP3   OH222410   2.531   4.702   1.845  0.2436  0.4140  0.4740
  332TIP3    H122411   2.525   4.798   1.844  0.9747  0.4616  0.2060
  332TIP3    H222412   2.547   4.678   1.753 -2.6396 -0.1681  0.0155
  333TIP3   OH222413   1.573   2.738  11.990 -0.0507 -0.2043 -0.6082
  333TIP3    H122414   1.614   2.666  12.037  0.0902  0.2819  0.0282
  333TIP3    H222415   1.604   2.817  12.035 -0.4335  0.2385 -1.1071
  334TIP3   OH222416   2.191   0.897  16.457  0.0931 -0.0244  0.7371
  334TIP3    H122417   2.112   0.915  16.407  0.2485 -1.2621  0.0146
  334TIP3    H222418   2.261   0.891  16.392  1.2395  3.1588  1.5088
  335TIP3   OH222419   1.123   4.037  17.068  0.0084 -0.0465  0.4813
  335TIP3    H122420   1.098   4.129  17.054 -0.9375 -0.2603  0.6802
  335TIP3    H222421   1.072   4.010  17.144 -2.1628 -1.6378 -1.3926
  336TIP3   OH222422   3.222   2.893   3.992  0.1699 -0.2052  0.1372
  336TIP3    H122423   3.254   2.802   3.998  2.6614  0.5485 -0.5113
  336TIP3    H222424   3.128   2.884   3.977  0.2606 -2.6650  0.5521
  337TIP3   OH222425   0.843   0.482   5.801 -0.4770 -0.5019  0.2311
  337TIP3    H122426   0.765   0.533   5.782 -0.5329 -0.2422  1.0934
  337TIP3    H222427   0.888   0.531   5.870  0.8463 -0.2505 -0.7759
  338TIP3   OH222428   2.402   1.258  12.162  0.0878  1.3785 -0.5944
  338TIP3    H122429   2.380   1.190  12.099 -1.3723  0.4978  0.7740
  338TIP3    H222430   2.448   1.212  12.232 -0.2648  1.9173  0.0046
  339TIP3   OH222431   1.194   4.421  10.864  0.6069  0.2908 -0.0290
  339TIP3    H122432   1.147   4.503  10.854  1.4596  1.0476  1.8207
  339TIP3    H222433   1.129   4.353  10.844 -0.2303  1.3739 -1.0997
  340TIP3   OH222434   1.374   6.004   1.903 -0.7034  0.3521 -0.1365
  340TIP3    H122435   1.355   6.032   1.813 -0.2170 -0.0716 -0.3768
  340TIP3    H222436   1.468   5.987   1.904 -1.0737 -2.2074 -0.3144
  341TIP3   OH222437   5.909   1.416   4.371 -0.1322 -0.1199 -0.4772
  341TIP3    H122438   5.852   1.346   4.340 -0.3041 -0.4041  0.4458
  341TIP3    H222439   5.862   1.496   4.351 -1.3420 -0.3768  1.1397
  342TIP3   OH222440   2.108   6.665   4.503  0.5522 -0.5903  0.3307
  342TIP3    H122441   2.172   6.723   4.463 -0.8504  1.3743  0.8268
  342TIP3    H222442   2.141   6.577   4.484  1.9531  0.3088 -1.7243
  343TIP3   OH222443   3.678   5.495  14.473  0.3380 -0.1229 -0.2761
  343TIP3    H122444   3.674   5.409  14.430  1.7068  0.3379 -1.3787
  343TIP3    H222445   3.706   5.555  14.405  1.5208  0.8326  0.9821
  344TIP3   OH222446   3.091   2.045   0.437 -0.2832 -0.0688  0.1948
  344TIP3    H122447   3.117   2.012   0.351 -1.4496 -0.2000 -0.1145
  344TIP3    H222448   3.002   2.013   0.450 -1.1099  2.1071  0.3081
  345TIP3   OH222449   4.211   2.023  15.323 -0.2790 -0.2309  0.8334
  345TIP3    H122450   4.136   2.039  15.265 -0.4128  2.5764  1.6285
  345TIP3    H222451   4.172   2.010  15.409  0.0471 -1.8464  0.7623
  346TIP3   OH222452   4.844   4.531  10.919 -0.1141 -0.0591 -0.1869
  346TIP3    H122453   4.933   4.498  10.906 -0.0000  0.4368 -0.7494
  346TIP3    H222454   4.792   4.485  10.853 -0.4899 -1.0985  0.7923
  347TIP3   OH222455   0.706   6.519  14.018 -0.4701  0.2703 -0.2251
  347TIP3    H122456   0.775   6.552  14.076 -0.0835  1.7086 -1.4288
  347TIP3    H222457   0.630   6.509  14.074  0.0677  1.0005  0.6588
  348TIP3   OH222458   5.289   2.515  12.987 -0.3553 -0.2437 -0.1406
  348TIP3    H122459   5.331   2.430  13.003  1.1847  0.5012  0.0248
  348TIP3    H222460   5.199   2.504  13.017  0.2502 -1.3325  1.4100
  349TIP3   OH222461   4.873   3.982   5.430  0.4908  0.4187  0.4543
  349TIP3    H122462   4.808   3.927   5.387  1.6411 -0.9745  0.4295
  349TIP3    H222463   4.875   3.950   5.520  1.5205  0.0778  0.3171
  350TIP3   OH222464   2.500   5.178   6.285 -0.7981 -0.0207  0.5706
  350TIP3    H122465   2.593   5.153   6.290 -0.7003  0.0690 -0.5750
  350TIP3    H222466   2.499   5.271   6.308 -0.5329  0.0975  0.1255
  351TIP3   OH222467   4.827   0.123  13.007 -0.6143  0.1698  0.1953
  351TIP3    H122468   4.859   0.189  13.069 -0.9600  0.9317 -0.4115
  351TIP3    H222469   4.896   0.057  13.004 -0.4958  0.2249  1.2257
  352TIP3   OH222470   1.895   6.284  10.914 -0.4770 -0.0410  0.1260
  352TIP3    H122471   1.888   6.349  10.844  0.5384  1.2262  1.1524
  352TIP3    H222472   1.989   6.266  10.921 -0.5635 -0.1601  1.1428
  353TIP3   OH222473   5.896   3.556  16.536 -0.3477 -0.1521 -0.4216
  353TIP3    H122474   5.916   3.572  16.628 -1.8857  1.1069 -0.2737
  353TIP3    H222475   5.971   3.591  16.489  0.8262 -1.5102  0.3433
  354TIP3   OH222476   1.334   1.652   0.282  0.2080  0.4824  0.5574
  354TIP3    H122477   1.370   1.736   0.257  0.5690  0.6487  1.5972
  354TIP3    H222478   1.242   1.670   0.302  0.5852  0.9192  2.0522
  355TIP3   OH222479   2.431   2.435   4.606  0.4990 -0.0079 -0.6301
  355TIP3    H122480   2.521   2.415   4.578  0.9316  1.4613 -0.3809
  355TIP3    H222481   2.441   2.507   4.669 -0.8889  0.5686 -1.0291
  356TIP3   OH222482   1.103   0.797  11.071 -0.1579 -0.2528  0.1870
  356TIP3    H122483   1.179   0.811  11.127 -0.6638 -1.1557  1.1398
  356TIP3    H222484   1.060   0.719  11.107 -2.5041  1.2207  0.7748
  357TIP3   OH222485   1.244   5.291   1.987  0.3199 -0.0796  0.6393
  357TIP3    H122486   1.271   5.268   2.076  0.0710 -0.9986  0.4821
  357TIP3    H222487   1.158   5.251   1.976  0.2606  0.1982  0.0566
  358TIP3   OH222488   6.544   6.651  16.205  0.6116  0.0175  0.0298
  358TIP3    H122489   6.625   6.694  16.235  0.5738  0.0975  0.0171
  358TIP3    H222490   6.486   6.654  16.281  0.3579  0.6081 -0.1870
  359TIP3   OH222491   1.752   6.610   3.120 -0.8632 -0.0746 -0.5657
  359TIP3    H122492   1.813   6.658   3.065 -1.4170 -0.9358 -2.0072
  359TIP3    H222493   1.674   6.600   3.066 -1.4640 -0.9008  0.4068
  360TIP3   OH222494   5.356   0.424  16.675  0.4135 -0.1336 -0.4798
  360TIP3    H122495   5.371   0.435  16.581 -0.8899 -0.0023 -0.6947
  360TIP3    H222496   5.363   0.329  16.689 -1.0033 -0.3488 -1.0400
  361TIP3   OH222497   5.013   4.357  13.667  0.2849 -0.5506  0.4070
  361TIP3    H122498   5.027   4.434  13.722 -0.1096  0.2760 -0.6222
  361TIP3    H222499   5.089   4.355  13.608  0.0666 -0.6765  0.1246
  362TIP3   OH222500   3.367   3.611  15.594 -0.0825  0.4625  0.4019
  362TIP3    H122501   3.340   3.535  15.543  0.2893  0.0349  0.8311
  362TIP3    H222502   3.451   3.637  15.555 -0.1809  0.6119  0.2924
  363TIP3   OH222503   2.620   1.679  16.111 -0.0092  0.8841 -0.0964
  363TIP3    H122504   2.675   1.615  16.066  0.7449  1.3256  0.1778
  363TIP3    H222505   2.630   1.659  16.204  1.2576  2.1800  0.0813
  364TIP3   OH222506   0.649   4.597  14.958  0.3040  0.1660 -0.2178
  364TIP3    H122507   0.713   4.529  14.934 -2.6182 -3.4658  1.3363
  364TIP3    H222508   0.582   4.591  14.891 -0.4179  0.9307  0.4199
  365TIP3   OH222509   6.130   3.279   2.568 -0.3308  0.5477 -0.0596
  365TIP3    H122510   6.186   3.299   2.494 -0.8802 -1.1032 -0.9599
  365TIP3    H222511   6.166   3.199   2.605 -1.4701  0.0330 -0.0291
  366TIP3   OH222512   5.463   1.743  15.189 -0.3643  0.0767 -0.5698
  366TIP3    H122513   5.391   1.777  15.243  0.5336 -0.2866  0.9095
  366TIP3    H222514   5.542   1.771  15.234  0.4106 -1.3536 -0.9967
  367TIP3   OH222515   4.588   5.845   4.113 -0.0329  0.3245 -0.5537
  367TIP3    H122516   4.625   5.767   4.071  0.1549 -0.5887  1.2016
  367TIP3    H222517   4.662   5.905   4.122  0.5133 -0.4985  0.7028
  368TIP3   OH222518   6.601   0.497  12.770  0.4435  0.0131  0.0419
  368TIP3    H122519   6.664   0.546  12.822  0.5124 -0.7333  0.6918
  368TIP3    H222520   6.524   0.554  12.764  1.5716  1.4538 -1.8007
  369TIP3   OH222521   1.156   5.022   5.435 -0.3963  0.2912 -0.6643
  369TIP3    H122522   1.096   5.091   5.407 -1.6601 -0.0848  0.9689
  369TIP3    H222523   1.149   5.021   5.531  1.8717 -0.0955 -0.4466
  370TIP3   OH222524   2.330   5.333  11.751  0.2756  0.2971 -0.3121
  370TIP3    H122525   2.296   5.244  11.755  0.1545  0.3787  0.8501
  370TIP3    H222526   2.290   5.370  11.672 -0.1434 -0.4799 -0.4805
  371TIP3   OH222527   4.420   3.527  16.501 -0.2993  0.0750 -0.1096
  371TIP3    H122528   4.420   3.619  16.527  1.2293  0.4704 -1.3618
  371TIP3    H222529   4.389   3.528  16.410  2.5248 -0.2301 -1.1886
  372TIP3   OH222530   2.871   2.715  11.531 -0.0483  0.3021  0.3911
  372TIP3    H122531   2.931   2.646  11.502  0.3341  0.1951  1.3920
  372TIP3    H222532   2.798   2.668  11.571  0.8390  0.4558  2.2916
  373TIP3   OH222533   4.305   6.161   0.013  0.1390 -0.6026 -0.2787
  373TIP3    H122534   4.258   6.237   0.047  1.1249  0.4332 -1.1448
  373TIP3    H222535   4.390   6.163   0.058  0.4218 -0.8050 -0.7878
  374TIP3   OH222536   3.196   0.058   1.373  0.1481 -0.5710  0.0911
  374TIP3    H122537   3.286   0.053   1.341  0.1769 -0.6899  0.1872
  374TIP3    H222538   3.150   0.112   1.309  0.6312  0.7730  0.8398
  375TIP3   OH222539   6.776   2.142   4.163  0.4856  0.2789  0.3621
  375TIP3    H122540   6.751   2.234   4.177 -0.2291 -0.1162  1.9708
  375TIP3    H222541   6.860   2.133   4.208 -0.6011 -0.3886  2.3989
  376TIP3   OH222542   1.337   5.132  10.852  0.1475  0.6738 -0.6148
  376TIP3    H122543   1.397   5.103  10.783 -1.5426  2.1523 -2.8598
  376TIP3    H222544   1.279   5.058  10.867 -2.7845  1.8088 -4.7371
  377TIP3   OH222545   6.650   0.940  14.136 -0.2612  0.4856 -0.1836
  377TIP3    H122546   6.722   0.989  14.175 -0.9284  0.4401  1.1835
  377TIP3    H222547   6.692   0.867  14.090  0.5644  0.2916  0.8447
  378TIP3   OH222548   0.026   0.339  15.780  0.0318  0.0375 -0.0761
  378TIP3    H122549  -0.053   0.388  15.803  0.4808  0.9260 -0.3987
  378TIP3    H222550   0.077   0.399  15.725  0.0912 -1.1649 -1.4081
  379TIP3   OH222551   0.887   5.292  12.952 -0.7256  0.3856  0.2295
  379TIP3    H122552   0.888   5.306  12.857  1.0016 -1.4941 -0.0875
  379TIP3    H222553   0.796   5.307  12.977 -0.9174  2.4283 -1.4481
  380TIP3   OH222554   4.405   5.889   1.972  0.1021 -0.1688  0.4870
  380TIP3    H122555   4.384   5.821   2.036 -0.8554 -0.9892 -0.6456
  380TIP3    H222556   4.467   5.847   1.912 -0.5675 -0.0960 -0.2725
  381TIP3   OH222557   0.092   3.428   0.348 -0.0452  0.6110  0.2652
  381TIP3    H122558   0.113   3.381   0.267 -0.2505  1.9270 -0.5780
  381TIP3    H222559   0.002   3.404   0.367 -0.2811  0.9701 -0.3793
  382TIP3   OH222560   6.546   4.416  15.384 -0.0953  0.8226  0.0381
  382TIP3    H122561   6.533   4.465  15.303  1.9540  2.1319  0.4304
  382TIP3    H222562   6.638   4.430  15.406 -1.0728  2.5104  3.8398
  383TIP3   OH222563   4.535   1.230  13.432 -0.3192  0.1229 -0.0814
  383TIP3    H122564   4.489   1.197  13.509  0.1659 -0.5712 -0.0842
  383TIP3    H222565   4.606   1.168  13.418  0.2389  0.8418 -0.4542
  384TIP3   OH222566   6.418   6.421   0.272 -0.9313 -0.6077 -1.1257
  384TIP3    H122567   6.474   6.495   0.248 -0.8449  0.5208  2.1130
  384TIP3    H222568   6.478   6.354   0.303 -1.1956 -0.8843 -1.2055
  385TIP3   OH222569   4.428   4.384  15.879 -0.8560  0.2772 -0.2474
  385TIP3    H122570   4.381   4.311  15.919 -0.7283  0.1002 -0.4196
  385TIP3    H222571   4.480   4.422  15.950  0.6816 -1.0767 -0.6034
  386TIP3   OH222572   2.261   0.545   5.563  0.0772  0.4413 -0.2218
  386TIP3    H122573   2.329   0.549   5.496 -0.0037 -1.0632 -0.4368
  386TIP3    H222574   2.214   0.628   5.555 -2.0215 -0.8384 -4.2863
  387TIP3   OH222575   0.717   2.581  13.419 -1.0017  0.3595 -0.6777
  387TIP3    H122576   0.799   2.611  13.460  0.1344 -1.1164 -1.7428
  387TIP3    H222577   0.682   2.659  13.377  0.0991  0.9364 -0.5743
  388TIP3   OH222578   0.994   5.451  12.713  0.3674  0.3549  0.1609
  388TIP3    H122579   0.929   5.516  12.684  0.9092  1.0859  0.5539
  388TIP3    H222580   1.008   5.396  12.636  0.2498  0.9925 -0.3247
  389TIP3   OH222581   2.964   0.929   0.697  0.3978  0.5972 -0.4237
  389TIP3    H122582   3.057   0.930   0.673  0.5397 -0.6239  0.0021
  389TIP3    H222583   2.918   0.947   0.615  1.0089  2.5794 -0.3971
  390TIP3   OH222584   4.240   4.825  11.234  0.2601 -1.1307  0.0196
  390TIP3    H122585   4.215   4.760  11.168 -0.1075 -0.2705 -0.7117
  390TIP3    H222586   4.311   4.875  11.193 -0.9724  0.3803 -0.3488
  391TIP3   OH222587   1.764   1.432   5.145  0.5458 -0.1723  0.3002
  391TIP3    H122588   1.727   1.504   5.194  0.5772 -0.0867  0.2002
  391TIP3    H222589   1.763   1.461   5.054 -0.4220 -0.7206  0.1277
  392TIP3   OH222590   2.229   5.556  13.577  0.2277 -0.2240  0.1027
  392TIP3    H122591   2.192   5.477  13.617 -2.4643  0.4802 -0.7843
  392TIP3    H222592   2.209   5.547  13.484  1.7397  0.5686 -0.3195
  393TIP3   OH222593   6.559   2.832  14.254 -0.6776 -0.0688  0.2219
  393TIP3    H122594   6.595   2.871  14.175 -2.1158  2.9952  0.9401
  393TIP3    H222595   6.497   2.766  14.223 -0.2808  0.1775 -1.1547
  394TIP3   OH222596   3.479   2.622  15.361 -0.1420  0.2218 -0.1330
  394TIP3    H122597   3.536   2.644  15.288 -2.4725  1.0689 -1.8318
  394TIP3    H222598   3.451   2.532  15.345  2.0576 -0.8832  1.7178
  395TIP3   OH222599   1.003   3.514   0.322 -0.2617 -0.4544  0.0028
  395TIP3    H122600   1.071   3.447   0.325  1.3884  0.8175 -3.7705
  395TIP3    H222601   0.949   3.490   0.247 -1.8227  0.5745  0.7394
  396TIP3   OH222602   1.811   0.668  14.423 -0.3006 -0.4421 -0.3064
  396TIP3    H122603   1.841   0.585  14.461 -0.9715  0.2140  1.7666
  396TIP3    H222604   1.717   0.657  14.412 -0.6068  0.4547  1.1856
  397TIP3   OH222605   5.545   0.003   4.563 -0.0540  0.4435  0.1772
  397TIP3    H122606   5.505   0.005   4.476 -0.6019  0.0544  0.4125
  397TIP3    H222607   5.494  -0.062   4.611  0.0905  0.8292  0.8648
  398TIP3   OH222608   0.814   0.118  13.686 -0.5036  0.2772 -0.6645
  398TIP3    H122609   0.772   0.182  13.744 -1.9862 -1.2818  0.0786
  398TIP3    H222610   0.832   0.166  13.606 -1.0687  1.7631  0.0628
  399TIP3   OH222611   3.262   6.609   2.887 -0.2449 -0.2641 -0.1075
  399TIP3    H122612   3.333   6.570   2.837  2.6151  3.1568  0.8078
  399TIP3    H222613   3.194   6.628   2.822  1.6283  0.3886 -1.9880
  400TIP3   OH222614   3.192   5.537  17.095  0.0642  0.1089  0.5131
  400TIP3    H122615   3.115   5.577  17.134 -0.2238  0.6946 -0.6200
  400TIP3    H222616   3.253   5.526  17.168 -0.3244  1.4804  1.0727
  401TIP3   OH222617   4.282   2.594   1.324  0.2069 -0.0561 -0.1238
  401TIP3    H122618   4.194   2.605   1.289 -0.3989  0.6520  1.5168
  401TIP3    H222619   4.268   2.567   1.415  1.7017 -2.5638 -0.5569
  402TIP3   OH222620   2.697   5.611   4.200  0.0861 -0.0029 -0.7669
  402TIP3    H122621   2.747   5.650   4.128 -2.0201  1.0282 -1.7894
  402TIP3    H222622   2.622   5.670   4.211  0.0092 -0.4810  1.8981
  403TIP3   OH222623   3.908   2.340   0.098  0.3878 -0.0495  0.2150
  403TIP3    H122624   3.882   2.407   0.161 -2.0285 -1.1468  0.5113
  403TIP3    H222625   3.880   2.257   0.137  1.4731 -1.0523 -1.0190
  404TIP3   OH222626   5.692   5.242  16.922 -0.2517 -0.0183  0.8814
  404TIP3    H122627   5.677   5.292  17.003  0.4367  1.2887  0.2269
  404TIP3    H222628   5.785   5.216  16.927  0.0847  0.9890  0.0240
  405TIP3   OH222629   5.937   3.943  15.275  0.2916 -0.5689 -0.0293
  405TIP3    H122630   5.894   3.863  15.307  1.2743 -0.4193  1.8252
  405TIP3    H222631   5.999   3.912  15.209 -0.5734 -1.0998 -0.6238
  406TIP3   OH222632   5.569   5.224   3.084  0.4586 -0.2395 -0.5243
  406TIP3    H122633   5.486   5.255   3.120  1.2844 -0.0478  1.3459
  406TIP3    H222634   5.622   5.303   3.073  1.2833 -0.5850  0.7851
  407TIP3   OH222635   5.520   2.648  17.230  0.1457 -0.4279 -0.5738
  407TIP3    H122636   5.485   2.565  17.263  0.2379 -0.3301 -0.2214
  407TIP3    H222637   5.448   2.687  17.182 -0.8407  0.5812  1.5801
  408TIP3   OH222638   5.876   3.834   4.448 -0.5987 -0.0363  0.1923
  408TIP3    H122639   5.959   3.866   4.412 -0.4898 -0.0516  0.4316
  408TIP3    H222640   5.877   3.861   4.539  0.0698 -1.7971  0.7554
  409TIP3   OH222641   4.196   5.356   1.447  0.2332 -0.6082 -0.0208
  409TIP3    H122642   4.262   5.333   1.381 -0.2646 -2.4560  0.0660
  409TIP3    H222643   4.173   5.273   1.489 -1.6926  0.0576  0.3849
  410TIP3   OH222644   4.458   1.702  16.617 -0.0310  0.0762  0.1311
  410TIP3    H122645   4.504   1.765  16.562 -0.8437 -0.2049 -0.8961
  410TIP3    H222646   4.405   1.650  16.556 -0.4111 -0.7107  1.1001
  411TIP3   OH222647   3.405   0.509  10.950 -0.0023 -0.4493  0.2650
  411TIP3    H122648   3.378   0.538  11.037  1.6022 -1.3348  1.0977
  411TIP3    H222649   3.377   0.580  10.892  1.6705  1.7249  1.9175
  412TIP3   OH222650   6.514   0.921  15.307  0.8137  0.3086 -0.2626
  412TIP3    H122651   6.574   0.938  15.234  1.0732  0.1995 -0.0756
  412TIP3    H222652   6.466   0.843  15.281  0.7083  0.4321 -0.4408
  413TIP3   OH222653   5.971   5.662   6.165 -0.4671 -0.2893  0.7576
  413TIP3    H122654   6.042   5.633   6.222 -0.0869 -0.6617  0.0995
  413TIP3    H222655   5.898   5.676   6.224 -0.2065 -1.0883  1.2856
  414TIP3   OH222656   1.269   1.044   4.025 -0.5711 -0.3435 -0.4688
  414TIP3    H122657   1.221   1.092   3.957  0.9672  0.7059 -0.8740
  414TIP3    H222658   1.358   1.036   3.990  0.2279  0.0769  1.3421
  415TIP3   OH222659   2.076   1.008  13.540  0.3557  0.2355 -0.0478
  415TIP3    H122660   2.134   1.003  13.616  0.8291 -0.8354 -0.4569
  415TIP3    H222661   2.067   1.102  13.523 -0.5946  0.5481  1.9340
  416TIP3   OH222662   4.836   0.822   2.627  0.1350 -0.1790 -0.2086
  416TIP3    H122663   4.808   0.877   2.554 -0.0624 -0.2157 -0.1613
  416TIP3    H222664   4.796   0.863   2.704  1.7805  0.9302  0.1358
  417TIP3   OH222665   1.668   0.465  11.808  0.2242 -0.7185 -0.7164
  417TIP3    H122666   1.645   0.399  11.743  0.0580 -1.2010 -0.1809
  417TIP3    H222667   1.688   0.415  11.887  0.7033 -0.1608 -0.4720
  418TIP3   OH222668   3.293   1.182  14.852  1.1338  0.3701 -0.1075
  418TIP3    H122669   3.249   1.164  14.935  0.0868  0.1069 -0.7118
  418TIP3    H222670   3.261   1.268  14.825  0.7179  0.0297 -0.7216
  419TIP3   OH222671   0.229   5.272   1.134 -0.0575  0.1033 -0.0010
  419TIP3    H122672   0.197   5.211   1.068  0.6356 -1.3110  0.9240
  419TIP3    H222673   0.154   5.287   1.192  0.1377 -0.9834  0.5548
  420TIP3   OH222674   4.496   4.345  14.311 -0.7716 -0.5002 -0.0972
  420TIP3    H122675   4.455   4.345  14.225 -0.1020 -2.6108 -0.4696
  420TIP3    H222676   4.547   4.427  14.313  0.7398 -1.2898 -2.5114
  421TIP3   OH222677   4.891   4.652   6.220  0.2367 -0.2036 -0.6058
  421TIP3    H122678   4.946   4.699   6.283  1.0621 -0.6483 -0.9852
  421TIP3    H222679   4.867   4.571   6.265 -1.1727  0.5473  0.0424
  422TIP3   OH222680   3.383   3.006  14.448 -0.1867 -0.0057  0.4123
  422TIP3    H122681   3.414   2.938  14.387 -0.4858  1.6822 -1.7644
  422TIP3    H222682   3.288   3.005  14.438 -0.2094  0.5274  0.5610
  423TIP3   OH222683   1.548   2.403   1.992 -0.3313  0.1807 -0.1945
  423TIP3    H122684   1.605   2.344   1.943  0.9754  0.5555  0.8121
  423TIP3    H222685   1.555   2.487   1.947  1.0423  0.5827  0.7020
  424TIP3   OH222686   6.665   4.863   4.945  0.4025  0.1731  0.0637
  424TIP3    H122687   6.646   4.770   4.962 -3.5869  0.6792 -0.5854
  424TIP3    H222688   6.621   4.910   5.016 -1.0389  1.6251 -1.6776
  425TIP3   OH222689   6.301   1.737  15.310  0.1101  0.4789 -0.0169
  425TIP3    H122690   6.314   1.739  15.405  1.7060  0.3590 -0.2191
  425TIP3    H222691   6.219   1.784  15.296 -0.9423 -0.7678  1.5385
  426TIP3   OH222692   6.600   2.880   2.336  0.0000 -0.4084 -0.2024
  426TIP3    H122693   6.548   2.933   2.397  0.6876 -0.3761  0.3781
  426TIP3    H222694   6.601   2.792   2.375 -1.5196 -0.9980 -1.3968
  427TIP3   OH222695   4.550   4.825  11.898  0.4197  0.0402 -0.0966
  427TIP3    H122696   4.514   4.820  11.986 -0.6756 -0.0424 -0.5287
  427TIP3    H222697   4.511   4.751  11.852  1.8217 -0.5499 -0.3653
  428TIP3   OH222698   1.231   1.794   3.294 -0.3674 -0.1394  0.2314
  428TIP3    H122699   1.205   1.822   3.382 -2.7638 -0.7749 -0.2023
  428TIP3    H222700   1.270   1.708   3.307 -1.1702 -0.4520  0.6397
  429TIP3   OH222701   2.586   5.515  17.210 -0.1212 -0.0991 -0.4622
  429TIP3    H122702   2.521   5.522  17.280 -1.4051  2.2993 -1.7619
  429TIP3    H222703   2.583   5.423  17.184 -1.8985 -0.3803  0.5581
  430TIP3   OH222704   2.807   1.889   5.278  0.0360  0.4801 -0.3014
  430TIP3    H122705   2.793   1.829   5.205  1.2794  1.3935 -1.3399
  430TIP3    H222706   2.740   1.957   5.266  0.4778  0.8313 -0.8389
  431TIP3   OH222707   0.004   4.468   2.328 -0.5794 -0.4916  0.0950
  431TIP3    H122708   0.022   4.443   2.237  2.5845 -0.1308  0.5121
  431TIP3    H222709   0.021   4.389   2.379 -0.1810 -0.1182  0.5488
  432TIP3   OH222710   2.763   3.799   1.885  0.3464  0.3600  0.1970
  432TIP3    H122711   2.739   3.720   1.932  1.7719  0.4492  1.1138
  432TIP3    H222712   2.712   3.869   1.927  1.4460  0.4065  1.5204
  433TIP3   OH222713   0.638   4.177   2.953  0.7171 -0.2645 -0.6079
  433TIP3    H122714   0.626   4.082   2.962 -1.8176  0.2058  3.2418
  433TIP3    H222715   0.598   4.198   2.869 -0.5096 -2.3949 -0.6421
  434TIP3   OH222716   4.954   2.341   6.636 -0.0469  0.3560 -0.0482
  434TIP3    H122717   4.997   2.400   6.698  0.3355 -1.3485  1.3940
  434TIP3    H222718   4.997   2.359   6.552  1.9884  0.2756  0.9075
  435TIP3   OH222719   4.601   4.510  16.073 -0.3188  0.0789  0.4079
  435TIP3    H122720   4.655   4.440  16.109  0.8005 -0.5705 -2.3083
  435TIP3    H222721   4.633   4.589  16.117 -1.6565 -0.9874  3.5845
  436TIP3   OH222722   4.225   0.944  12.985  0.2331  0.0601  0.1956
  436TIP3    H122723   4.247   0.860  12.944 -1.2190 -0.2690  0.0373
  436TIP3    H222724   4.164   0.985  12.924  0.3360  0.8941  0.6420
  437TIP3   OH222725   1.534   4.494   1.560 -0.5173 -0.0449  0.5786
  437TIP3    H122726   1.516   4.446   1.480  0.6785  1.6931 -0.8028
  437TIP3    H222727   1.482   4.574   1.553  0.9847  0.9927  0.5885
  438TIP3   OH222728   2.989   2.734   4.320  0.2104  0.4917  0.2610
  438TIP3    H122729   3.026   2.676   4.254  0.7419 -0.1975  1.1476
  438TIP3    H222730   2.916   2.778   4.275 -0.5137 -1.1932 -0.3095
  439TIP3   OH222731   6.386   5.109   4.976 -0.3056  0.1606  0.3753
  439TIP3    H122732   6.294   5.099   4.954 -0.4904 -1.1132  1.5515
  439TIP3    H222733   6.431   5.112   4.892 -1.3763  0.3035 -0.2073
  440TIP3   OH222734   1.863   2.544   4.112  0.4560 -0.2566 -0.3042
  440TIP3    H122735   1.768   2.557   4.108  0.5129  0.2211 -0.1948
  440TIP3    H222736   1.875   2.452   4.093  0.0398 -0.1018 -1.3601
  441TIP3   OH222737   6.499   4.051   0.918 -0.5239  0.2557 -0.6851
  441TIP3    H122738   6.411   4.028   0.946 -0.4907  0.6079 -0.2895
  441TIP3    H222739   6.487   4.125   0.858 -0.3184  2.2337  1.5762
  442TIP3   OH222740   5.694   4.485  15.356  0.4390 -0.9155 -0.2524
  442TIP3    H122741   5.706   4.417  15.290  0.4459 -0.9067 -0.2600
  442TIP3    H222742   5.645   4.442  15.427 -0.7539 -0.5824 -0.8430
  443TIP3   OH222743   4.654   0.624   2.167 -0.2422  0.3598  0.3651
  443TIP3    H122744   4.562   0.629   2.141  0.0280  0.5286 -0.5814
  443TIP3    H222745   4.694   0.702   2.129  0.3894  0.0472  0.3802
  444TIP3   OH222746   3.165   2.456   1.242  0.1756 -0.2334 -0.3330
  444TIP3    H122747   3.210   2.538   1.265 -3.0214  1.7221 -0.5261
  444TIP3    H222748   3.099   2.445   1.311 -2.2127 -0.3158 -2.4858
  445TIP3   OH222749   4.079   2.837   0.578 -0.0779  0.0965 -0.1060
  445TIP3    H122750   4.043   2.922   0.553  0.9403  0.6626  0.3033
  445TIP3    H222751   4.032   2.775   0.523 -1.1947  0.8627 -0.0608
  446TIP3   OH222752   6.357   1.646   1.229  0.1196 -0.1835  0.3054
  446TIP3    H122753   6.402   1.674   1.149 -0.5403  0.1028  0.0248
  446TIP3    H222754   6.342   1.553   1.217  0.1688 -0.1737  0.1673
  447TIP3   OH222755   6.436   2.510   5.020 -0.0597  0.2292  0.1748
  447TIP3    H122756   6.435   2.537   4.928 -0.0754  1.1426  0.4355
  447TIP3    H222757   6.345   2.515   5.048 -0.2103 -1.0034 -0.0109
  448TIP3   OH222758   3.229   4.601   2.071  0.6924 -0.5470  0.1870
  448TIP3    H122759   3.317   4.634   2.055  0.7164 -0.0741  1.2119
  448TIP3    H222760   3.173   4.654   2.014  0.9043  0.2482  0.6934
  449TIP3   OH222761   5.851   6.653   0.898  0.4216 -0.1396 -0.1135
  449TIP3    H122762   5.876   6.718   0.963 -1.0250  1.2644 -0.8749
  449TIP3    H222763   5.755   6.654   0.898  0.3619 -1.9686 -0.4775
  450TIP3   OH222764   2.137   4.708  17.225 -0.5484  0.2038 -0.0062
  450TIP3    H122765   2.077   4.783  17.230 -0.4348  0.3449 -0.6806
  450TIP3    H222766   2.083   4.633  17.252 -0.6521  0.5258  0.7099
  451TIP3   OH222767   3.974   6.323  13.390 -0.3282 -0.2698  0.3033
  451TIP3    H122768   3.920   6.263  13.339 -1.1355  1.1159 -0.5395
  451TIP3    H222769   3.912   6.368  13.448  0.0476  0.6555  0.0067
  452TIP3   OH222770   3.790   6.357   4.532 -0.7290 -0.1834 -0.4963
  452TIP3    H122771   3.822   6.394   4.449 -1.4832 -1.6359 -1.4891
  452TIP3    H222772   3.867   6.316   4.571 -0.7339 -1.1797 -1.4660
  453TIP3   OH222773   2.887   1.807  12.079  0.2629 -0.1756 -0.1220
  453TIP3    H122774   2.830   1.845  12.145  1.7461  0.3016  0.9211
  453TIP3    H222775   2.937   1.881  12.045  1.0605 -0.7541 -0.2147
  454TIP3   OH222776   3.757   4.676  16.470 -0.2141  0.3162 -0.2664
  454TIP3    H122777   3.727   4.586  16.479  1.0928 -0.0517  0.6615
  454TIP3    H222778   3.814   4.690  16.545 -0.0424  1.7810 -0.6432
  455TIP3   OH222779   4.572   5.928   0.578 -0.5744 -0.0117  0.1808
  455TIP3    H122780   4.547   5.848   0.532  0.5356  0.1994 -0.8375
  455TIP3    H222781   4.642   5.900   0.637  2.0400  0.6407 -2.3657
  456TIP3   OH222782   5.716   6.074   1.025 -0.0904  0.5220  0.5476
  456TIP3    H122783   5.664   6.000   0.996 -0.1928  1.7075 -2.7093
  456TIP3    H222784   5.806   6.044   1.019 -0.0912  0.7701 -1.4543
  457TIP3   OH222785   0.223   5.324  12.781 -0.1589  0.5754 -0.3446
  457TIP3    H122786   0.246   5.250  12.838 -0.0267 -0.3946 -1.6328
  457TIP3    H222787   0.236   5.291  12.692 -0.6165  1.9867 -0.9557
  458TIP3   OH222788   2.512   6.345  16.460 -0.1193 -0.0679 -0.0665
  458TIP3    H122789   2.431   6.349  16.511  0.8245 -3.3788  2.0278
  458TIP3    H222790   2.512   6.256  16.424  1.3468  0.7757 -2.3960
  459TIP3   OH222791   5.907   1.991  17.110 -0.3069  0.1804 -0.2260
  459TIP3    H122792   5.954   1.934  17.171 -1.7902  1.5160  2.3315
  459TIP3    H222793   5.833   2.025  17.160 -1.4993  1.5941 -2.7304
  460TIP3   OH222794   3.774   3.167   1.102 -0.3694  0.1966 -0.0942
  460TIP3    H122795   3.855   3.205   1.134  1.2670 -2.7739 -0.3745
  460TIP3    H222796   3.728   3.240   1.061  1.4309  2.2886  1.3522
  461TIP3   OH222797   5.518   3.544   6.090 -0.3745  0.1777  0.4019
  461TIP3    H122798   5.554   3.457   6.110 -2.3906 -0.7639  0.2480
  461TIP3    H222799   5.593   3.595   6.062  0.5805 -2.2675 -1.9388
  462TIP3   OH222800   1.615   0.143   1.815 -0.2967 -0.1475 -0.0771
  462TIP3    H122801   1.654   0.072   1.866 -1.0717 -0.8509 -0.4402
  462TIP3    H222802   1.560   0.098   1.750  0.3180  0.7367 -1.2536
  463TIP3   OH222803   5.332   6.706  14.782 -0.5947 -0.1427 -0.1352
  463TIP3    H122804   5.389   6.721  14.857 -1.3441  1.5040  0.1636
  463TIP3    H222805   5.283   6.788  14.773 -1.0767 -0.5837 -1.9467
  464TIP3   OH222806   3.935   3.510   5.504 -0.1376 -0.5850 -0.3568
  464TIP3    H122807   3.873   3.445   5.472 -1.1853 -0.4841  1.3186
  464TIP3    H222808   3.915   3.590   5.454 -1.1698 -0.6395 -0.0484
  465TIP3   OH222809   0.358   0.274   0.689  0.8752  0.8191 -0.1233
  465TIP3    H122810   0.389   0.194   0.647  0.2383  1.1800 -1.3396
  465TIP3    H222811   0.310   0.244   0.766  0.5516  0.0223 -0.6260
  466TIP3   OH222812   1.269   1.597   4.882 -0.3112 -0.6972 -0.2750
  466TIP3    H122813   1.208   1.582   4.955 -1.9955  0.6057 -1.3536
  466TIP3    H222814   1.279   1.692   4.878 -0.6212 -0.7013 -2.0006
  467TIP3   OH222815   5.749   0.150  15.565 -0.6390  0.8224 -0.0045
  467TIP3    H122816   5.709   0.167  15.479 -0.4086  0.7743 -0.1203
  467TIP3    H222817   5.821   0.091  15.546 -0.9385  0.3543  0.2941
  468TIP3   OH222818   4.223   4.474  12.312 -0.5725 -0.3463 -0.5732
  468TIP3    H122819   4.281   4.430  12.250 -1.6278 -0.6691 -1.3630
  468TIP3    H222820   4.145   4.495  12.261 -1.3226 -0.2867  0.5622
  469TIP3   OH222821   1.706   2.275  12.971  0.7333  0.0703  0.2466
  469TIP3    H122822   1.645   2.327  12.918  0.3976 -2.5859 -2.1832
  469TIP3    H222823   1.790   2.321  12.962  0.0914  1.1947 -0.2641
  470TIP3   OH222824   4.075   0.718   5.623  0.4231 -0.6572 -0.1182
  470TIP3    H122825   4.156   0.689   5.581 -0.2636 -2.2891 -0.3819
  470TIP3    H222826   4.005   0.677   5.572 -0.7449  2.3876 -1.2184
  471TIP3   OH222827   5.827   6.745   4.620  0.2303 -0.1838  0.3173
  471TIP3    H122828   5.855   6.677   4.558 -0.4413  0.9742 -1.3190
  471TIP3    H222829   5.746   6.780   4.582 -0.1546  0.6325  1.8234
  472TIP3   OH222830   2.779   2.865   1.294 -0.2861  1.1004  0.0122
  472TIP3    H122831   2.690   2.859   1.258  0.3933  1.2448 -1.8178
  472TIP3    H222832   2.833   2.819   1.230  0.8084 -0.2463  1.8214
  473TIP3   OH222833   5.825   3.934   6.531 -0.5609  0.1132  0.3753
  473TIP3    H122834   5.873   3.988   6.468 -2.1295  3.0253  1.4900
  473TIP3    H222835   5.893   3.882   6.574  1.2438  1.9310 -0.0812
  474TIP3   OH222836   6.546   2.863  12.024 -0.0646  0.0683  0.2642
  474TIP3    H122837   6.502   2.788  12.065  0.5087 -0.7590 -0.6144
  474TIP3    H222838   6.481   2.933  12.031 -0.2454 -0.2037  1.9836
  475TIP3   OH222839   3.600   0.559  10.478  0.5928  0.3247  0.4811
  475TIP3    H122840   3.583   0.644  10.519  0.9289  0.8001 -0.3230
  475TIP3    H222841   3.686   0.569  10.438  0.4020 -0.2138 -0.0807
  476TIP3   OH222842   5.230   2.744   3.877 -0.1415  0.2170  0.0860
  476TIP3    H122843   5.278   2.822   3.904 -1.9490  0.5990  2.5258
  476TIP3    H222844   5.154   2.779   3.829 -0.8548 -0.0155  1.0203
  477TIP3   OH222845   1.061   3.617  11.904 -0.4589  0.4423  0.0565
  477TIP3    H122846   1.137   3.628  11.848 -0.5028  0.1786 -0.0584
  477TIP3    H222847   0.995   3.576  11.847 -1.0938  1.7241 -0.1821
  478TIP3   OH222848   6.432   0.300   3.993 -0.1381  1.4987 -0.0288
  478TIP3    H122849   6.378   0.345   3.928 -0.4067  0.1870 -0.7395
  478TIP3    H222850   6.369   0.253   4.048  0.2289  0.2141 -0.6668
  479TIP3   OH222851   6.121   5.851  14.455 -0.0925 -0.4708  0.0193
  479TIP3    H122852   6.190   5.904  14.415 -0.3529  0.1543  0.3832
  479TIP3    H222853   6.055   5.842  14.387  0.5175 -1.4058 -0.4629
  480TIP3   OH222854   0.930   1.571  12.582  0.0943  0.3955 -1.1248
  480TIP3    H122855   1.014   1.586  12.540  0.7986 -0.9980 -0.2845
  480TIP3    H222856   0.938   1.612  12.668 -0.1796  0.4927 -1.1445
  481TIP3   OH222857   4.366   5.317  13.885  0.6583 -0.6992  0.1779
  481TIP3    H122858   4.422   5.329  13.808 -2.3921  0.4138 -2.0789
  481TIP3    H222859   4.401   5.377  13.950  2.6494 -0.8090 -0.7236
  482TIP3   OH222860   5.462   1.049  17.208  0.1045  0.4786  0.2622
  482TIP3    H122861   5.445   0.959  17.180  0.3915 -0.0624  1.7223
  482TIP3    H222862   5.378   1.094  17.198 -0.1747 -0.0936  0.0051
  483TIP3   OH222863   5.353   6.183   1.491  0.6211  0.0265  0.3632
  483TIP3    H122864   5.365   6.271   1.526  2.6115 -0.3630  0.7730
  483TIP3    H222865   5.430   6.168   1.435 -0.4531 -0.8838 -0.9606
  484TIP3   OH222866   0.041   4.484  14.245 -0.0368 -0.5931 -0.6946
  484TIP3    H122867  -0.053   4.466  14.245 -0.1564  0.0029 -0.8480
  484TIP3    H222868   0.053   4.550  14.313  0.3318 -0.9561 -0.4028
  485TIP3   OH222869   4.222   2.499  15.508  0.1471 -0.8532  0.0008
  485TIP3    H122870   4.148   2.541  15.464  0.7472 -0.8394 -1.0326
  485TIP3    H222871   4.253   2.433  15.445  1.4802 -0.3348  0.0742
  486TIP3   OH222872   1.216   0.549   2.078  0.2397 -0.2141 -0.1347
  486TIP3    H122873   1.163   0.588   2.009 -0.4295  0.3225  0.6646
  486TIP3    H222874   1.190   0.594   2.158  0.3685 -1.4100  0.6188
  487TIP3   OH222875   4.428   2.530   0.453 -0.2533 -0.6883 -0.1268
  487TIP3    H122876   4.394   2.443   0.430 -1.4066 -0.5121  0.7750
  487TIP3    H222877   4.375   2.591   0.401  1.8593 -0.5421 -2.2628
  488TIP3   OH222878   5.544   3.253   0.300  0.5442  0.3788  0.2672
  488TIP3    H122879   5.599   3.316   0.253  0.6160  0.6765  0.7493
  488TIP3    H222880   5.459   3.260   0.257  0.7584  0.2303 -0.1960
  489TIP3   OH222881   2.192   2.559  16.254  0.2547  0.1762 -0.1676
  489TIP3    H122882   2.277   2.603  16.263  0.4470  0.1356 -1.5509
  489TIP3    H222883   2.187   2.537  16.161 -1.5962  0.8150 -0.2419
  490TIP3   OH222884   0.798   1.122   4.226 -0.2335 -0.5160  0.5348
  490TIP3    H122885   0.797   1.211   4.260 -0.3576 -0.4368  0.3252
  490TIP3    H222886   0.769   1.130   4.135  0.9627 -0.6152  0.1318
  491TIP3   OH222887   5.924   2.768   1.902 -0.2738  0.0032  0.9080
  491TIP3    H122888   6.004   2.720   1.879  0.7047  1.0619  1.9566
  491TIP3    H222889   5.939   2.797   1.992 -1.3338  1.2829  0.6936
  492TIP3   OH222890   3.794   6.282  13.143  0.0231 -0.1310 -0.2415
  492TIP3    H122891   3.723   6.332  13.183  0.8117 -0.7414  2.0768
  492TIP3    H222892   3.751   6.226  13.077 -1.6281 -0.3454  0.9696
  493TIP3   OH222893   5.543   4.744   2.357  0.1598  0.2018 -0.4214
  493TIP3    H122894   5.522   4.790   2.437 -0.3088 -1.2891  0.3543
  493TIP3    H222895   5.460   4.738   2.310  0.3348  0.6488 -0.7916
  494TIP3   OH222896   5.351   4.615   0.039 -0.0799  0.2847  0.1141
  494TIP3    H122897   5.260   4.588   0.051 -0.3566  1.5209  1.0672
  494TIP3    H222898   5.352   4.659  -0.046 -0.5527  0.8996  0.4166
  495TIP3   OH222899   3.693   1.061  15.489 -0.1546 -0.1484 -0.3940
  495TIP3    H122900   3.613   1.111  15.501 -0.1286  0.2419 -1.7220
  495TIP3    H222901   3.764   1.125  15.498  0.0319 -0.5260  0.9656
  496TIP3   OH222902   0.190   0.436   5.456 -0.1134 -0.5135  0.0819
  496TIP3    H122903   0.175   0.365   5.393 -0.4424 -0.3285 -0.0509
  496TIP3    H222904   0.192   0.516   5.402 -0.7491 -0.3154  0.3412
  497TIP3   OH222905   5.578   2.192   4.032  0.1724 -0.7806 -0.5335
  497TIP3    H122906   5.493   2.211   3.992  0.4333 -0.5164 -0.9736
  497TIP3    H222907   5.641   2.208   3.962  0.6880  0.1718  0.1235
  498TIP3   OH222908   3.575   0.445  16.316 -0.0771 -0.7093 -0.1502
  498TIP3    H122909   3.669   0.447  16.296 -0.2863 -2.1396 -1.3821
  498TIP3    H222910   3.571   0.401  16.401  0.2756 -2.6890 -1.0923
  499TIP3   OH222911   0.488   2.512   2.583 -0.0781 -0.5348  0.7077
  499TIP3    H122912   0.563   2.527   2.525  0.1507 -1.5940  0.7158
  499TIP3    H222913   0.525   2.463   2.656 -0.8894 -1.5916  0.4253
  500TIP3   OH222914   1.587   0.148  14.287 -0.8640  0.0428  0.6121
  500TIP3    H122915   1.545   0.078  14.337  1.2150 -0.2038  2.1242
  500TIP3    H222916   1.671   0.112  14.260 -0.6987  1.2089 -0.5405
  501TIP3   OH222917   5.439   4.230   0.914  0.0741  0.3510  0.1826
  501TIP3    H122918   5.518   4.278   0.890  2.4833 -2.9702  0.7239
  501TIP3    H222919   5.446   4.147   0.867 -2.3938 -0.6106  1.3263
  502TIP3   OH222920   4.003   3.626  14.915 -0.2863 -0.4057  0.5908
  502TIP3    H122921   3.997   3.531  14.917 -1.7334 -0.3197  1.4553
  502TIP3    H222922   4.002   3.652  15.007 -0.2956  0.4780  0.3542
  503TIP3   OH222923   6.482   6.142   4.764 -0.5382 -0.2266  0.1975
  503TIP3    H122924   6.448   6.229   4.746  0.7198  0.3834  0.6548
  503TIP3    H222925   6.498   6.104   4.677 -1.3813 -0.1434 -0.0062
  504TIP3   OH222926   1.113   3.433   4.693  0.5359  0.2011  0.0973
  504TIP3    H122927   1.103   3.347   4.734 -0.6494  0.3582  0.1583
  504TIP3    H222928   1.095   3.495   4.764  0.6197  0.4980 -0.1413
  505TIP3   OH222929   2.613   2.087  15.580 -0.5051  0.3728  0.0603
  505TIP3    H122930   2.523   2.120  15.588 -0.2297  1.6457 -1.5385
  505TIP3    H222931   2.630   2.044  15.664 -1.9056  1.8382  1.1714
  506TIP3   OH222932   4.333   6.117  14.784 -0.2786 -0.2692 -0.5911
  506TIP3    H122933   4.411   6.173  14.786  0.7319 -1.6145  1.5931
  506TIP3    H222934   4.283   6.143  14.861 -1.2418 -0.4529 -1.1389
  507TIP3   OH222935   4.865   5.213  12.706  0.1635 -0.2026  0.2686
  507TIP3    H122936   4.932   5.185  12.644  0.8121  1.0039  0.3939
  507TIP3    H222937   4.908   5.279  12.760 -0.8925  0.0077  0.8849
  508TIP3   OH222938   2.075   4.748   5.995  0.1080 -0.2614 -0.1091
  508TIP3    H122939   2.080   4.730   5.901  1.1897 -1.4841  0.1661
  508TIP3    H222940   2.023   4.676   6.031  0.8048 -0.5218  0.4037
  509TIP3   OH222941   0.842   2.114   1.212 -0.2130  0.6507 -0.0374
  509TIP3    H122942   0.830   2.169   1.134  0.8365  2.5142  1.0672
  509TIP3    H222943   0.920   2.063   1.193 -1.0724 -0.3684 -0.9825
  510TIP3   OH222944   1.643   3.361   3.269  0.5055  0.2706  0.1302
  510TIP3    H122945   1.600   3.328   3.348 -1.8873  2.6784 -0.0128
  510TIP3    H222946   1.707   3.424   3.301  0.2867  0.4606  0.1978
  511TIP3   OH222947   4.778   6.013   0.387 -0.1507 -0.2974 -0.2117
  511TIP3    H122948   4.707   5.985   0.445 -0.2961  0.2075 -0.1402
  511TIP3    H222949   4.772   6.109   0.387  1.0665 -0.2088  0.4592
  512TIP3   OH222950   1.869   1.579  12.399  0.3604  0.2985 -0.0779
  512TIP3    H122951   1.963   1.563  12.392  0.2839 -0.5082  0.5842
  512TIP3    H222952   1.832   1.534  12.323  0.3072 -1.4330  0.9107
  513TIP3   OH222953   0.191   5.347  11.955 -0.1420 -0.2428  0.4986
  513TIP3    H122954   0.203   5.357  11.861  1.5244 -0.9394  0.6037
  513TIP3    H222955   0.097   5.358  11.969 -0.6732 -1.8471 -1.4568
  514TIP3   OH222956   4.442   6.284  15.538 -0.0609  0.2923 -0.1227
  514TIP3    H122957   4.434   6.189  15.548  0.2496 -0.1230 -2.8775
  514TIP3    H222958   4.472   6.315  15.623  1.0182 -2.2435  0.5160
  515TIP3   OH222959   3.082   1.254  11.637 -0.2839 -0.2396 -0.1827
  515TIP3    H122960   3.129   1.216  11.711 -1.9295 -1.4993  0.2773
  515TIP3    H222961   2.992   1.263  11.669 -0.5855  1.2481 -1.3289
  516TIP3   OH222962   3.643   1.707   5.353  0.2792 -0.1308 -0.0948
  516TIP3    H122963   3.605   1.721   5.439 -0.4731 -0.1403 -0.4219
  516TIP3    H222964   3.582   1.749   5.292  0.8742  0.0000 -0.6119
  517TIP3   OH222965   0.917   4.987  17.164 -0.1177  0.2039  0.4067
  517TIP3    H122966   0.861   5.024  17.231 -2.4293 -0.3794 -1.0994
  517TIP3    H222967   0.922   5.054  17.096  1.1425  0.2932  0.5552
  518TIP3   OH222968   4.152   6.415   2.352 -0.2714  0.4727  0.4646
  518TIP3    H122969   4.139   6.322   2.339 -1.2023  0.8200 -1.4129
  518TIP3    H222970   4.173   6.450   2.265 -1.7898  2.2687  0.7437
  519TIP3   OH222971   0.304   1.310   1.960  0.2839 -0.0010 -0.1683
  519TIP3    H122972   0.303   1.406   1.958 -0.3643  0.3493  4.4819
  519TIP3    H222973   0.215   1.285   1.933 -0.2278  0.9178  0.5745
  520TIP3   OH222974   3.917   6.713  15.590 -0.3916  0.5349 -0.2462
  520TIP3    H122975   3.888   6.762  15.513 -1.0402 -0.4719 -0.6623
  520TIP3    H222976   4.007   6.742  15.604  0.1075 -0.0167 -2.0209
  521TIP3   OH222977   0.751   2.570   1.935  0.6178  0.2762  0.5423
  521TIP3    H122978   0.677   2.585   1.876 -0.5998  0.8641  2.1461
  521TIP3    H222979   0.789   2.657   1.949 -0.6642  0.5818  2.5254
  522TIP3   OH222980   5.843   5.245  14.542  0.2130 -1.1825  0.4433
  522TIP3    H122981   5.916   5.200  14.500  0.3302  0.3386 -1.0791
  522TIP3    H222982   5.778   5.257  14.473 -0.3163 -0.1034  1.0947
  523TIP3   OH222983   4.530   1.901  16.866  0.3049 -0.3241  0.1828
  523TIP3    H122984   4.596   1.912  16.798 -0.5381 -4.0657 -1.5306
  523TIP3    H222985   4.581   1.896  16.948  1.9802 -1.0383 -0.8380
  524TIP3   OH222986   5.219   2.662  12.758  0.0762 -0.2573 -0.2733
  524TIP3    H122987   5.125   2.656  12.777 -0.4732  3.6149 -0.8766
  524TIP3    H222988   5.262   2.634  12.838 -1.4514 -3.4121 -0.4123
  525TIP3   OH222989   3.792   3.212  15.556 -0.4315 -0.0800 -0.3037
  525TIP3    H122990   3.725   3.280  15.554 -0.0983  0.3848 -4.7619
  525TIP3    H222991   3.745   3.131  15.537 -0.1440 -0.3054 -0.0705
  526TIP3   OH222992   4.893   6.314  14.083 -0.2108 -0.1168 -0.3502
  526TIP3    H122993   4.855   6.362  14.157 -0.7672  0.3376 -0.9223
  526TIP3    H222994   4.821   6.261  14.049  0.2166 -0.8246 -0.1680
  527TIP3   OH222995   0.773   1.233  13.996  0.0575  0.0223 -0.4048
  527TIP3    H122996   0.789   1.325  13.976  0.5164  0.1130  0.3445
  527TIP3    H222997   0.794   1.224  14.089  0.7167 -0.9875 -0.6293
  528TIP3   OH222998   3.905   5.358  15.533  0.1467 -0.9953 -0.0250
  528TIP3    H122999   3.856   5.291  15.580  0.3230  0.8561  3.0275
  528TIP3    H223000   3.844   5.391  15.467 -1.2998 -1.4677  1.0285
  529TIP3   OH223001   1.801   2.047  13.465  0.1281  0.4206 -0.0198
  529TIP3    H123002   1.713   2.039  13.428  1.4990  0.9088 -3.9110
  529TIP3    H223003   1.848   1.971  13.430  1.5140  0.7382  1.0788
  530TIP3   OH223004   4.669   1.854   2.457  0.6103  0.8243 -0.5147
  530TIP3    H123005   4.584   1.887   2.483  0.7066  0.4119  0.3536
  530TIP3    H223006   4.731   1.923   2.482  0.3382  2.3050 -3.4805
  531TIP3   OH223007   5.640   1.542  11.797  0.4725  0.1847  0.2280
  531TIP3    H123008   5.637   1.595  11.717 -1.5817 -2.8473 -1.9498
  531TIP3    H223009   5.733   1.523  11.809  0.9002  1.2812 -1.0200
  532TIP3   OH223010   1.848   3.311  14.283 -0.5440 -0.0008 -0.2308
  532TIP3    H123011   1.896   3.258  14.220 -0.3019  0.7784 -0.7212
  532TIP3    H223012   1.851   3.261  14.364  0.6376 -0.2291 -0.3921
  533TIP3   OH223013   2.073   5.981  12.217 -0.5846 -0.1530  0.3478
  533TIP3    H123014   2.049   5.934  12.138 -0.2760  0.0327  0.1413
  533TIP3    H223015   2.148   5.933  12.252  1.2002  1.4277 -1.0748
  534TIP3   OH223016   5.244   4.629  16.066 -0.0549 -0.4877  0.6819
  534TIP3    H123017   5.190   4.692  16.114  0.5188 -0.7719  1.7230
  534TIP3    H223018   5.250   4.553  16.124  1.5090 -0.4384  0.6218
  535TIP3   OH223019   1.336   4.086  15.186 -0.0749 -0.3542 -0.3151
  535TIP3    H123020   1.351   4.084  15.281 -1.3346 -1.5023 -0.1134
  535TIP3    H223021   1.340   3.994  15.159 -0.5948 -0.1223 -1.2306
  536TIP3   OH223022   5.194   2.300  10.725  0.6460  0.1471 -0.2884
  536TIP3    H123023   5.264   2.267  10.668 -0.0057  0.3722 -1.2557
  536TIP3    H223024   5.217   2.392  10.741  1.2243 -0.1189  0.4472
  537TIP3   OH223025   2.442   1.066  11.913 -0.0408 -0.1082 -0.0386
  537TIP3    H123026   2.536   1.046  11.911 -0.4006 -2.6869 -4.5468
  537TIP3    H223027   2.400   0.984  11.937 -1.1307 -0.3933 -2.5659
  538TIP3   OH223028   4.792   3.003  12.755  0.2180 -0.0220 -0.4218
  538TIP3    H123029   4.812   2.912  12.732 -1.2834 -0.2753 -0.8098
  538TIP3    H223030   4.784   3.002  12.850 -2.3118 -0.8933 -0.5656
  539TIP3   OH223031   5.427   5.274  10.809  0.0889 -0.1010  0.0780
  539TIP3    H123032   5.333   5.293  10.806 -0.0944 -0.7422  1.0595
  539TIP3    H223033   5.433   5.182  10.783  0.5540  0.1973 -0.9107
  540TIP3   OH223034   1.864   4.194   0.403 -0.3607 -0.4592 -0.5940
  540TIP3    H123035   1.904   4.272   0.365 -1.7475  1.6983  2.0409
  540TIP3    H223036   1.799   4.167   0.339  2.1815 -1.4761 -2.9806
  541TIP3   OH223037   3.897   3.739   1.498 -0.1124  0.3945  0.2153
  541TIP3    H123038   3.813   3.778   1.475  0.6286  1.4238 -0.8912
  541TIP3    H223039   3.915   3.676   1.429 -0.0451  0.0537  0.5396
  542TIP3   OH223040   5.022   4.532  12.910  0.3446  0.6279 -0.2206
  542TIP3    H123041   5.115   4.535  12.934  0.6766 -3.4467 -0.2717
  542TIP3    H223042   4.980   4.591  12.971  2.5293 -0.7510  2.9002
  543TIP3   OH223043   5.643   2.811   0.335  0.4693  0.1987 -0.5295
  543TIP3    H123044   5.674   2.801   0.245  1.5381 -1.9672 -0.0135
  543TIP3    H223045   5.675   2.732   0.379 -1.1231  0.5791  1.4421
  544TIP3   OH223046   4.072   1.503   3.955 -0.0779  0.1369 -0.2357
  544TIP3    H123047   4.046   1.446   3.883 -0.8405  0.5125 -0.2634
  544TIP3    H223048   4.160   1.473   3.978 -0.3391 -0.8352 -0.4560
  545TIP3   OH223049   0.746   0.851   6.176 -0.3169  0.6347  0.0827
  545TIP3    H123050   0.840   0.834   6.176 -0.4941 -0.5741 -1.5104
  545TIP3    H223051   0.739   0.947   6.171  0.8630  0.6925 -1.0060
  546TIP3   OH223052   2.743   0.282   2.483 -0.4623  0.3547  0.6398
  546TIP3    H123053   2.697   0.329   2.414  0.4341  1.5767  0.8412
  546TIP3    H223054   2.678   0.273   2.553 -1.4028 -0.9665 -0.3396
  547TIP3   OH223055   0.253   2.783   3.851 -0.3423  0.3326  0.3180
  547TIP3    H123056   0.271   2.694   3.879  0.9449  0.6272  0.5241
  547TIP3    H223057   0.256   2.779   3.755  0.7607  0.3206  0.3338
  548TIP3   OH223058   2.185   4.659  15.094 -0.6587 -0.7800  0.0959
  548TIP3    H123059   2.253   4.717  15.059 -1.2154  0.5611  1.1563
  548TIP3    H223060   2.217   4.634  15.181 -0.8458 -1.3596  0.0028
  549TIP3   OH223061   6.617   3.938  15.750 -1.0906  0.0464 -0.0664
  549TIP3    H123062   6.701   3.941  15.795 -1.5691 -1.4246  1.0171
  549TIP3    H223063   6.580   4.025  15.760  0.6858  1.0249 -1.4004
  550TIP3   OH223064   1.509   1.907   3.070  0.3187 -0.2257  0.0504
  550TIP3    H123065   1.568   1.911   3.145  0.7558  2.1556 -0.3370
  550TIP3    H223066   1.466   1.822   3.077  2.3432 -1.1957  1.4500
  551TIP3   OH223067   3.012   4.021   2.856 -0.5550 -0.1530  0.3863
  551TIP3    H123068   3.073   4.012   2.929  2.8123  1.6109 -1.8813
  551TIP3    H223069   3.019   3.939   2.808 -1.8705 -0.8600  1.3543
  552TIP3   OH223070   2.137   6.166   4.312  0.8285 -0.3680 -0.0189
  552TIP3    H123071   2.105   6.129   4.230  0.3427 -0.3079  0.1430
  552TIP3    H223072   2.063   6.161   4.372  0.5636  1.3175 -0.1352
  553TIP3   OH223073   1.292   3.336   3.879  0.2135  0.0183 -0.3268
  553TIP3    H123074   1.201   3.349   3.905  0.1438  1.1032 -1.0211
  553TIP3    H223075   1.339   3.324   3.961 -0.3905  0.6071  0.1213
  554TIP3   OH223076   1.256   5.085   2.502 -0.1525 -0.1453  0.2825
  554TIP3    H123077   1.293   5.150   2.563  1.5141 -0.6944 -0.0859
  554TIP3    H223078   1.166   5.073   2.531 -0.4803  2.1999  0.4746
  555TIP3   OH223079   2.725   6.423   2.252  0.1693  0.5849  0.7653
  555TIP3    H123080   2.771   6.349   2.214 -0.2088 -0.0334  1.4965
  555TIP3    H223081   2.735   6.413   2.346 -0.7306  0.9065  0.9121
  556TIP3   OH223082   0.719   4.839  16.288  0.0991  0.2917 -0.0800
  556TIP3    H123083   0.719   4.747  16.263  1.0924  0.5022 -0.9252
  556TIP3    H223084   0.694   4.886  16.208 -0.3980  0.7541  0.3407
  557TIP3   OH223085   0.922   5.849   5.552  0.3245  0.4925  0.0441
  557TIP3    H123086   0.842   5.859   5.500  0.9630  1.6002 -0.7762
  557TIP3    H223087   0.987   5.818   5.489  0.7892  0.6022  0.4709
  558TIP3   OH223088   1.094   2.645  12.860 -0.1579 -0.4238  0.7433
  558TIP3    H123089   1.150   2.579  12.901  0.2550 -0.8446 -0.4565
  558TIP3    H223090   1.155   2.712  12.829 -0.4245 -0.3092  0.4594
  559TIP3   OH223091   4.281   3.629  13.196 -0.5387 -0.6848  1.0927
  559TIP3    H123092   4.210   3.616  13.259 -3.4074 -0.4047 -1.8487
  559TIP3    H223093   4.268   3.560  13.131  0.9670  0.3150 -0.3485
  560TIP3   OH223094   1.876   5.044   1.700 -0.3760 -0.2973  0.0573
  560TIP3    H123095   1.795   4.999   1.674 -0.9700  2.4533 -3.6456
  560TIP3    H223096   1.946   4.996   1.655 -0.4419 -0.2265 -0.1200
  561TIP3   OH223097   1.888   6.005  14.289  0.2917 -0.2993 -0.5453
  561TIP3    H123098   1.945   6.078  14.266 -1.4289  1.1576 -0.4516
  561TIP3    H223099   1.891   5.946  14.214  2.2127 -0.5077 -0.3495
  562TIP3   OH223100   2.721   0.963   3.946 -0.2083 -0.2799 -0.6159
  562TIP3    H123101   2.810   0.982   3.976 -1.0664  0.1012  1.9538
  562TIP3    H223102   2.727   0.964   3.850  2.2869  0.9770 -0.5289
  563TIP3   OH223103   6.040   0.326   2.358 -0.6507 -0.4894  0.0957
  563TIP3    H123104   6.110   0.380   2.323 -0.8105 -1.0170 -1.0941
  563TIP3    H223105   6.066   0.236   2.337 -2.8955 -0.5956 -2.8593
  564TIP3   OH223106   0.297   4.823   4.688  0.0722 -1.0322 -0.6223
  564TIP3    H123107   0.244   4.749   4.718  0.8090 -1.4259 -0.2751
  564TIP3    H223108   0.383   4.786   4.670  1.1431  0.0808  1.6933
  565TIP3   OH223109   1.647   3.229  13.086  0.1559 -0.7978  0.5248
  565TIP3    H123110   1.672   3.235  13.178  1.0593 -0.2755  0.2587
  565TIP3    H223111   1.647   3.136  13.066  0.8661 -0.8649  0.8222
  566TIP3   OH223112   2.677   6.681   5.863  0.2961  0.3105  0.4227
  566TIP3    H123113   2.602   6.737   5.881 -0.8709 -1.2801  0.7992
  566TIP3    H223114   2.753   6.730   5.893 -0.9380  0.4738  3.6026
  567TIP3   OH223115   4.946   2.297   2.332 -0.2981 -0.3777  0.2778
  567TIP3    H123116   4.997   2.246   2.395  0.1458 -0.4018 -0.0950
  567TIP3    H223117   4.901   2.232   2.279  0.2621 -0.3964 -0.1927
  568TIP3   OH223118   4.594   0.207  16.655 -0.0435  0.0273  0.0938
  568TIP3    H123119   4.638   0.289  16.676  0.1015 -0.1957  0.7088
  568TIP3    H223120   4.603   0.197  16.561 -0.1099  0.7422  0.0057
  569TIP3   OH223121   4.374   3.176  11.699  0.1218  0.6226  0.2519
  569TIP3    H123122   4.318   3.253  11.708 -0.3466  0.4566 -1.0556
  569TIP3    H223123   4.462   3.212  11.684 -0.3523  0.9973 -2.1313
  570TIP3   OH223124   2.312   4.728   3.767 -0.1568 -0.4627  0.0937
  570TIP3    H123125   2.329   4.642   3.726  0.6548  0.1367 -0.8827
  570TIP3    H223126   2.389   4.743   3.822 -1.0330 -1.0551  1.5154
  571TIP3   OH223127   3.097   0.269  14.611  0.1154 -0.1359  0.9879
  571TIP3    H123128   3.048   0.270  14.694 -0.6497 -0.2352  0.5476
  571TIP3    H223129   3.051   0.204  14.558 -0.6684  1.3662 -0.2532
  572TIP3   OH223130   2.686   2.252   3.054 -0.3055 -0.5149  0.2959
  572TIP3    H123131   2.739   2.225   3.129 -1.0075 -0.2016  0.9244
  572TIP3    H223132   2.606   2.287   3.093 -1.4243 -1.8928 -0.6454
  573TIP3   OH223133   2.686   0.885  11.705  0.3705  0.4106  0.2480
  573TIP3    H123134   2.684   0.870  11.799 -0.1332 -0.6424  0.0850
  573TIP3    H223135   2.775   0.859  11.679  0.3611  0.2590  0.3649
  574TIP3   OH223136   0.422   6.084  10.597  0.2982 -0.1709  0.3947
  574TIP3    H123137   0.327   6.089  10.587  0.3574 -1.9931 -2.1134
  574TIP3    H223138   0.457   6.132  10.521  1.2891 -1.2354  0.1328
  575TIP3   OH223139   5.261   2.462   0.960  0.4043 -0.2787 -0.1413
  575TIP3    H123140   5.338   2.518   0.963  0.8629 -0.8714  2.7487
  575TIP3    H223141   5.218   2.483   0.877  2.2412  2.0025 -0.6038
  576TIP3   OH223142   2.886   2.334  15.171  0.5495 -0.0136 -0.0386
  576TIP3    H123143   2.852   2.272  15.235  0.5259 -0.1157 -0.1505
  576TIP3    H223144   2.929   2.401  15.224  0.5355 -0.1011  0.0843
  577TIP3   OH223145   6.369   1.529   1.917 -0.6946 -0.2944 -0.6862
  577TIP3    H123146   6.404   1.606   1.962  0.1385  0.2820 -2.2320
  577TIP3    H223147   6.311   1.565   1.850  0.7293 -0.8556 -2.3242
  578TIP3   OH223148   6.772   2.066  13.859 -0.1331  0.1052  0.1696
  578TIP3    H123149   6.866   2.063  13.879  0.1699 -0.9101 -1.2093
  578TIP3    H223150   6.763   2.141  13.800 -0.2351  0.3811  0.5387
  579TIP3   OH223151   1.390   3.529   4.824  0.4201  0.0579  0.0442
  579TIP3    H123152   1.375   3.541   4.917 -0.3083 -0.5069  0.0069
  579TIP3    H223153   1.401   3.618   4.790 -2.0187  0.5234  0.2383
  580TIP3   OH223154   2.979   0.764   4.473 -0.0834 -0.5402  0.0904
  580TIP3    H123155   3.028   0.794   4.550  1.6835  0.7538 -1.4234
  580TIP3    H223156   2.918   0.836   4.455  1.7991  0.7602 -1.5538
  581TIP3   OH223157   5.076   3.215   1.804  1.2456  0.2545  0.1722
  581TIP3    H123158   4.985   3.244   1.798  1.0318 -0.5816 -1.0922
  581TIP3    H223159   5.081   3.140   1.745  2.7950  0.3805  0.1022
  582TIP3   OH223160   0.273   2.623   0.989 -0.0707  0.1328 -0.3919
  582TIP3    H123161   0.353   2.589   1.030  1.2996 -0.0187 -2.9878
  582TIP3    H223162   0.215   2.547   0.986 -0.3508  0.2206  1.4353
  583TIP3   OH223163   1.382   4.505  14.341  0.6197 -0.4843 -0.0262
  583TIP3    H123164   1.401   4.423  14.386  0.4187  0.5378  2.0246
  583TIP3    H223165   1.290   4.523  14.362  1.3643  1.5274  1.7467
  584TIP3   OH223166   0.833   3.736  15.983 -0.1045 -0.2403  0.0850
  584TIP3    H123167   0.858   3.823  16.014 -0.3353 -0.3652  0.6459
  584TIP3    H223168   0.895   3.716  15.913  1.0396 -0.3245  1.0879
  585TIP3   OH223169   2.789   6.361  11.631  0.4198  0.5549 -0.0410
  585TIP3    H123170   2.758   6.425  11.695  1.3964  0.2733  0.7505
  585TIP3    H223171   2.725   6.290  11.635 -0.8490  1.6045 -1.1697
  586TIP3   OH223172   0.786   6.097  15.166 -0.7411 -1.0108  0.0904
  586TIP3    H123173   0.798   6.187  15.134 -1.0480 -1.1430 -0.4111
  586TIP3    H223174   0.692   6.090  15.182 -0.8089 -1.4273 -0.4506
  587TIP3   OH223175   3.522   4.672   1.861  0.1910  0.1592 -0.7837
  587TIP3    H123176   3.578   4.597   1.843  1.6497  1.2945 -1.2021
  587TIP3    H223177   3.478   4.689   1.777 -0.0814 -0.1728 -0.7095
  588TIP3   OH223178   2.158   4.449  16.206 -0.1054  0.3687 -0.1015
  588TIP3    H123179   2.204   4.366  16.194 -1.4635 -0.2365 -1.3400
  588TIP3    H223180   2.124   4.445  16.296  0.3306 -0.1500  0.0467
  589TIP3   OH223181   3.667   3.258  16.944  0.1604 -0.5832  0.8274
  589TIP3    H123182   3.584   3.242  16.899  0.2289 -0.8008  0.7775
  589TIP3    H223183   3.657   3.345  16.983 -0.4443 -0.9902  1.6031
  590TIP3   OH223184   1.113   0.175  13.670  0.7166  0.3490  0.1196
  590TIP3    H123185   1.063   0.235  13.726  0.1427 -0.3181  0.3367
  590TIP3    H223186   1.116   0.218  13.585 -1.6978 -0.3172 -0.3844
  591TIP3   OH223187   0.990   6.103  16.592  0.0716  0.0332 -0.3487
  591TIP3    H123188   1.062   6.119  16.653 -0.8234 -2.0234  1.3649
  591TIP3    H223189   1.033   6.087  16.508  1.4925  0.4678  0.2647
  592TIP3   OH223190   3.576   6.240   5.950  0.4790 -0.6210  0.4758
  592TIP3    H123191   3.544   6.229   6.040  1.8576 -0.0269  1.0763
  592TIP3    H223192   3.512   6.194   5.896 -1.3588  0.4692  1.5900
  593TIP3   OH223193   3.633   3.508   1.534  0.7252 -0.1326  0.0965
  593TIP3    H123194   3.582   3.571   1.585  1.2732  0.2024  0.2423
  593TIP3    H223195   3.665   3.444   1.598 -0.5571 -1.0802 -0.1710
  594TIP3   OH223196   3.868   2.576   1.052  0.1276  0.2845 -0.1449
  594TIP3    H123197   3.817   2.596   0.974 -1.2129 -0.6954  0.4204
  594TIP3    H223198   3.846   2.484   1.071  2.3007 -0.2638  0.0181
  595TIP3   OH223199   2.084   0.477   3.506  0.8553  0.2746 -0.0438
  595TIP3    H123200   2.162   0.531   3.493  0.8511  0.8796  2.0832
  595TIP3    H223201   2.029   0.527   3.567 -0.1915 -1.1072  0.2076
  596TIP3   OH223202   4.169   3.614   4.278  0.1064  0.2282 -0.4007
  596TIP3    H123203   4.261   3.620   4.251  0.0354  1.6806 -0.3555
  596TIP3    H223204   4.119   3.650   4.205 -0.4912 -1.0656 -0.6594
  597TIP3   OH223205   6.215   6.096  11.379 -0.0393 -0.0385  0.0120
  597TIP3    H123206   6.135   6.117  11.426 -1.1810 -2.9645 -0.4367
  597TIP3    H223207   6.190   6.029  11.316  2.6198 -0.5496 -0.6415
  598TIP3   OH223208   4.891   6.121  13.327  0.5734  0.5924 -0.3260
  598TIP3    H123209   4.800   6.118  13.298  1.2329  0.8132 -2.5653
  598TIP3    H223210   4.917   6.029  13.331  0.7136  0.5779 -1.3143
  599TIP3   OH223211   1.584   5.155  14.903  0.0271  0.4657 -0.6415
  599TIP3    H123212   1.491   5.151  14.881  0.0301  0.5103 -0.6614
  599TIP3    H223213   1.629   5.118  14.827  0.0479  0.7808 -0.7836
  600TIP3   OH223214   2.556   5.440   0.476 -0.7353  0.6496 -0.0759
  600TIP3    H123215   2.583   5.463   0.566 -0.1722  0.6285 -0.2333
  600TIP3    H223216   2.535   5.525   0.436  0.2472  0.8008 -0.3071
  601TIP3   OH223217   5.015   4.293  15.978 -0.4260  0.2513 -0.0851
  601TIP3    H123218   4.927   4.311  15.945 -0.5920  0.1508  0.2893
  601TIP3    H223219   5.073   4.344  15.922 -0.6582 -0.3121 -0.8469
  602TIP3   OH223220   4.571   2.329  15.449 -0.3852  0.1498 -0.7419
  602TIP3    H123221   4.591   2.419  15.426 -1.4432  0.2606 -1.2936
  602TIP3    H223222   4.485   2.313  15.410 -0.3478 -0.9959 -0.3876
  603TIP3   OH223223   4.874   0.542  15.526  0.2734 -0.1382  0.3055
  603TIP3    H123224   4.908   0.628  15.552 -0.7827  0.8163 -1.2885
  603TIP3    H223225   4.808   0.522  15.593 -0.4217  0.9457 -0.0318
  604TIP3   OH223226   4.393   6.610  11.587 -0.5461  0.0270  0.0214
  604TIP3    H123227   4.416   6.702  11.596  0.4904 -0.2115  0.0426
  604TIP3    H223228   4.477   6.564  11.592 -1.1820 -1.0472  1.8064
  605TIP3   OH223229   4.479   4.345  13.783 -0.2688  0.0503 -0.5079
  605TIP3    H123230   4.432   4.275  13.737  0.5507 -0.8748  0.0272
  605TIP3    H223231   4.566   4.309  13.799 -0.2655  0.6738  1.0125
  606TIP3   OH223232   5.743   5.165   0.029  0.5790 -0.4344 -0.2156
  606TIP3    H123233   5.759   5.146  -0.064 -0.0870 -0.6128 -0.2974
  606TIP3    H223234   5.722   5.079   0.067  0.4617 -0.3007  0.0190
  607TIP3   OH223235   3.313   4.247   4.576 -0.3779 -0.2935  0.8521
  607TIP3    H123236   3.248   4.305   4.616 -0.3629  0.8961 -0.7264
  607TIP3    H223237   3.362   4.305   4.517  0.2382 -1.7584 -0.1128
  608TIP3   OH223238   6.496   2.535   5.643  0.2753  0.5685  0.4357
  608TIP3    H123239   6.448   2.526   5.725 -0.7142  0.5671 -0.1234
  608TIP3    H223240   6.464   2.617   5.606  0.6076  0.5010 -0.0096
  609TIP3   OH223241   2.257   5.291   4.285 -0.3487  0.2983 -0.3575
  609TIP3    H123242   2.213   5.365   4.326  0.1162  0.6054 -0.4111
  609TIP3    H223243   2.291   5.326   4.203 -0.0644  0.0445 -0.3489
  610TIP3   OH223244   1.259   3.349   3.343  0.0104  0.1416  0.0813
  610TIP3    H123245   1.171   3.332   3.376  0.2325  0.6473  0.9811
  610TIP3    H223246   1.306   3.386   3.418  1.3078 -1.1429 -0.0578
  611TIP3   OH223247   3.400   4.094  13.711  0.1207  0.9007 -0.1872
  611TIP3    H123248   3.408   4.104  13.806  1.9653 -2.8548  0.2496
  611TIP3    H223249   3.485   4.122  13.677 -0.4368  1.9713 -0.7426
  612TIP3   OH223250   0.979   6.224  14.486  0.6528 -0.4077  0.1130
  612TIP3    H123251   0.924   6.252  14.413  1.7679 -0.6664 -0.8533
  612TIP3    H223252   0.925   6.237  14.563 -0.3435  0.4418 -0.7047
  613TIP3   OH223253   4.372   3.452   0.085 -0.4636 -0.1766  0.0582
  613TIP3    H123254   4.420   3.370   0.096  0.2222 -0.1559 -2.1407
  613TIP3    H223255   4.329   3.466   0.169 -1.0709 -3.0809  0.3554
  614TIP3   OH223256   4.687   0.463   6.498  0.0605  0.5373 -0.3931
  614TIP3    H123257   4.761   0.501   6.450  1.5272  0.2684  1.5169
  614TIP3    H223258   4.650   0.537   6.548 -1.4121  0.8056 -1.7961
  615TIP3   OH223259   3.547   3.414   2.734  0.5918  0.2516 -0.2000
  615TIP3    H123260   3.452   3.418   2.727  0.3014  1.0586  2.8267
  615TIP3    H223261   3.579   3.471   2.664 -0.9417 -2.0201 -2.9787
  616TIP3   OH223262   6.585   4.933   0.493  0.0978 -0.0194  0.2962
  616TIP3    H123263   6.607   4.989   0.419  1.2312 -0.3015  0.4059
  616TIP3    H223264   6.653   4.951   0.558 -0.7077 -0.0022  1.1600
  617TIP3   OH223265   1.361   4.199   2.105  0.6010  0.0977  0.5794
  617TIP3    H123266   1.362   4.294   2.115  0.0066  0.5451 -2.4947
  617TIP3    H223267   1.273   4.173   2.133  0.0855  0.7668 -0.3546
  618TIP3   OH223268   5.115   4.764   3.510 -0.0806  0.1772  0.0097
  618TIP3    H123269   5.105   4.859   3.517 -0.1512  0.2868 -1.3592
  618TIP3    H223270   5.062   4.730   3.582  0.3803  1.1760  0.8553
  619TIP3   OH223271   0.633   0.577  17.251 -0.0203  0.1495 -0.7258
  619TIP3    H123272   0.651   0.526  17.172 -1.3046  0.9374 -1.5647
  619TIP3    H223273   0.592   0.658  17.219  0.6066  1.0590  0.6696
  620TIP3   OH223274   0.680   0.359  12.973  0.3541  0.0292  0.0522
  620TIP3    H123275   0.658   0.270  12.946 -0.2703  0.0962  0.3285
  620TIP3    H223276   0.676   0.356  13.069 -0.2466  0.5029  0.0416
  621TIP3   OH223277   5.559   3.366  14.075 -0.6426  0.2492  0.7049
  621TIP3    H123278   5.490   3.419  14.114 -2.0356  1.5798 -3.0865
  621TIP3    H223279   5.515   3.286  14.046 -0.2568  0.3543 -0.2195
  622TIP3   OH223280   0.181   4.679   2.207 -0.5691  0.2092 -0.0703
  622TIP3    H123281   0.156   4.630   2.129  1.1932 -1.4735  0.3566
  622TIP3    H223282   0.141   4.631   2.280  1.2194 -0.7110  0.3543
  623TIP3   OH223283   0.780   2.020   3.882 -0.0840  0.1163  0.0771
  623TIP3    H123284   0.785   2.014   3.787 -1.4117 -0.5450  0.0269
  623TIP3    H223285   0.745   2.108   3.899  2.5370  1.2359  0.0947
  624TIP3   OH223286   1.251   2.356   3.405 -0.2117  0.3642  0.3587
  624TIP3    H123287   1.298   2.293   3.352 -0.4705 -0.8156  1.4917
  624TIP3    H223288   1.313   2.382   3.473 -0.1516  1.2413 -0.0162
  625TIP3   OH223289   2.459   3.837   1.529  0.6493  0.3755 -0.4574
  625TIP3    H123290   2.379   3.801   1.492 -2.1150  4.6781  0.5073
  625TIP3    H223291   2.502   3.881   1.456  2.0766 -1.5834 -0.8847
  626TIP3   OH223292   4.287   3.428  11.402 -0.1888 -0.2056 -0.4305
  626TIP3    H123293   4.340   3.374  11.342  1.0998 -0.5871  0.9665
  626TIP3    H223294   4.197   3.403  11.383  0.0038  0.7475 -3.1865
  627TIP3   OH223295   4.774   1.151  17.101 -0.1242  0.2971 -0.1690
  627TIP3    H123296   4.839   1.197  17.048 -1.4981  0.0721 -2.1579
  627TIP3    H223297   4.690   1.174  17.061 -1.0952 -1.2810  0.8556
  628TIP3   OH223298   5.516   0.542   5.486  0.5368 -0.0890  0.4205
  628TIP3    H123299   5.518   0.638   5.481 -0.2556 -0.0761  0.2052
  628TIP3    H223300   5.479   0.523   5.572 -1.6952 -0.1578 -0.4865
  629TIP3   OH223301   1.117   1.588   1.422 -0.1539 -0.0860  0.3830
  629TIP3    H123302   1.033   1.555   1.454  0.4799 -3.3605 -0.9203
  629TIP3    H223303   1.123   1.554   1.332  3.2142 -1.4557  0.9848
  630TIP3   OH223304   6.286   3.479  16.222  0.3686 -0.1047 -0.2674
  630TIP3    H123305   6.306   3.541  16.291  1.5625  0.5007 -1.1357
  630TIP3    H223306   6.323   3.396  16.253 -0.8620 -0.3261  0.6989
  631TIP3   OH223307   1.423   3.984   1.800 -0.4430 -0.4587  1.4471
  631TIP3    H123308   1.405   4.070   1.762 -0.6385 -0.2800  1.9341
  631TIP3    H223309   1.429   3.925   1.725  0.3892  0.1001  1.0474
  632TIP3   OH223310   1.854   6.467  16.720  0.4511  0.2675  0.1568
  632TIP3    H123311   1.919   6.447  16.788  1.3306 -1.4281 -1.1187
  632TIP3    H223312   1.780   6.411  16.741 -0.2793  1.5030  1.0526
  633TIP3   OH223313   6.345   4.726   1.122  0.6665  0.2185 -0.4760
  633TIP3    H123314   6.300   4.720   1.038  0.2392 -0.6376 -0.1948
  633TIP3    H223315   6.438   4.726   1.099  0.5624 -0.4729 -0.9364
  634TIP3   OH223316   6.776   5.788  11.749  0.3302  0.1312  0.2677
  634TIP3    H123317   6.746   5.795  11.839  1.1125 -4.2043  1.0939
  634TIP3    H223318   6.739   5.865  11.705 -1.8825  1.2842  3.7330
  635TIP3   OH223319   3.649   0.068   4.716 -0.4149  0.0878 -0.1301
  635TIP3    H123320   3.588   0.066   4.789  0.1601  2.6540  0.5220
  635TIP3    H223321   3.609   0.012   4.650 -2.0278 -0.5732  1.3277
  636TIP3   OH223322   6.311   6.173   2.982 -0.5331 -0.1645  0.3261
  636TIP3    H123323   6.388   6.117   2.980 -0.0313  0.4914  0.9808
  636TIP3    H223324   6.274   6.165   2.894 -0.8467 -2.0041  0.5772
  637TIP3   OH223325   4.284   0.290   5.919  0.3992 -0.4616  0.6724
  637TIP3    H123326   4.338   0.322   5.991  0.2938 -0.3244  0.6910
  637TIP3    H223327   4.294   0.355   5.850 -1.1431  0.5103  1.3157
  638TIP3   OH223328   1.785   6.456  14.492 -0.8375 -0.3670 -0.1548
  638TIP3    H123329   1.853   6.422  14.433  0.7225 -0.3705  1.5418
  638TIP3    H223330   1.819   6.439  14.580 -3.2216 -0.6764  0.7955
  639TIP3   OH223331   2.364   0.248  14.477  0.1616  0.0555 -0.0119
  639TIP3    H123332   2.293   0.312  14.475 -1.3777 -1.5014  1.1483
  639TIP3    H223333   2.422   0.274  14.407 -0.9693  2.0672 -0.2782
  640TIP3   OH223334   6.785   2.747   1.568 -0.5481 -1.0701  0.1059
  640TIP3    H123335   6.782   2.836   1.601 -2.2308 -0.7640 -0.7817
  640TIP3    H223336   6.874   2.717   1.587  0.5420  1.3045 -0.9535
  641TIP3   OH223337   5.148   1.400   5.159 -0.3002  0.7368 -0.3285
  641TIP3    H123338   5.140   1.402   5.063  1.1637  0.3006 -0.4793
  641TIP3    H223339   5.186   1.314   5.178 -0.0419  1.0479  0.6042
  642TIP3   OH223340   5.088   6.266  16.189  0.0318 -0.0645  0.4297
  642TIP3    H123341   5.149   6.326  16.145  2.0380 -0.6292  2.2412
  642TIP3    H223342   5.129   6.180  16.181 -2.9624 -1.4589 -2.4298
  643TIP3   OH223343   5.867   6.525   2.970 -0.2047 -0.0756 -0.1029
  643TIP3    H123344   5.933   6.540   2.903 -0.3353 -0.5471 -0.3420
  643TIP3    H223345   5.799   6.590   2.951 -0.3834 -0.4072 -0.6199
  644TIP3   OH223346   1.917   2.992  14.763  0.1742 -0.5736  0.3379
  644TIP3    H123347   1.907   2.897  14.766 -0.0098 -0.5821 -0.3703
  644TIP3    H223348   1.947   3.016  14.851 -0.3681 -1.2150  0.7085
  645TIP3   OH223349   2.365   4.252  16.139  0.6669  0.1156 -0.2573
  645TIP3    H123350   2.454   4.229  16.114  1.0992  1.7438 -0.3432
  645TIP3    H223351   2.356   4.344  16.114 -0.4651  0.4622  1.2494
  646TIP3   OH223352   2.242   4.967  17.019  0.1728 -0.4424  0.2604
  646TIP3    H123353   2.303   4.966  17.093 -0.7692 -0.6313  1.0568
  646TIP3    H223354   2.238   4.877  16.989  0.0108 -0.4965  0.4426
  647TIP3   OH223355   5.615   3.040   1.804  0.2135 -0.7077 -0.0637
  647TIP3    H123356   5.614   3.068   1.713  1.4706 -1.2797 -0.2841
  647TIP3    H223357   5.682   3.095   1.845 -0.3689 -0.4283  0.5322
  648TIP3   OH223358   0.673   2.654  14.932  0.1398  0.7352 -0.0732
  648TIP3    H123359   0.739   2.620  14.872  1.0094  0.5888  0.9332
  648TIP3    H223360   0.605   2.691  14.875 -1.1580 -3.0577 -1.2894
  649TIP3   OH223361   4.340   5.455   5.935 -0.6594  0.4359  0.3579
  649TIP3    H123362   4.368   5.544   5.915  2.1819 -0.7063 -1.3740
  649TIP3    H223363   4.344   5.449   6.030  0.8852  1.6868  0.4176
  650TIP3   OH223364   6.074   4.257  16.389 -0.1094 -0.0098  0.2907
  650TIP3    H123365   5.997   4.311  16.373 -0.0838 -0.2803 -0.7989
  650TIP3    H223366   6.138   4.287  16.325  0.1576 -0.8141  0.1679
  651TIP3   OH223367   1.137   4.981  12.195  0.2832  0.4472  0.0401
  651TIP3    H123368   1.044   4.961  12.204  0.5853 -0.0207  3.2696
  651TIP3    H223369   1.138   5.068  12.155 -1.6319  1.1837  1.4197
  652TIP3   OH223370   2.592   5.448   1.596 -0.3731  0.1938  0.0097
  652TIP3    H123371   2.578   5.522   1.538  1.6478  1.1202  0.6186
  652TIP3    H223372   2.522   5.454   1.661  0.0620  1.9028  0.3562
  653TIP3   OH223373   0.847   0.817   4.482 -1.1335 -0.1965 -0.0491
  653TIP3    H123374   0.884   0.730   4.499 -2.9389 -0.8283  0.9457
  653TIP3    H223375   0.903   0.854   4.414  0.9473 -1.2954  0.9663
  654TIP3   OH223376   1.632   4.189   0.555 -0.4592 -0.2221 -0.2668
  654TIP3    H123377   1.609   4.280   0.575  0.5860 -0.6181  3.5764
  654TIP3    H223378   1.727   4.191   0.542 -0.1878 -0.8972  1.3832
  655TIP3   OH223379   0.463   2.507   1.124  0.2193 -0.0601  0.0471
  655TIP3    H123380   0.462   2.412   1.138 -0.5683 -0.1183 -0.3559
  655TIP3    H223381   0.533   2.539   1.181 -0.2986 -0.7433  1.0972
  656TIP3   OH223382   3.564   3.242   2.301  0.1059 -0.3132  0.3400
  656TIP3    H123383   3.632   3.175   2.300  1.1257  0.6605  1.2731
  656TIP3    H223384   3.611   3.324   2.321 -0.6348  1.2072 -3.3132
  657TIP3   OH223385   4.593   6.514  14.034  0.4767 -0.0589 -0.2515
  657TIP3    H123386   4.529   6.443  14.032 -1.5873  1.6261  1.2802
  657TIP3    H223387   4.587   6.554  13.946 -2.4037  1.4716  0.5204
  658TIP3   OH223388   5.947   1.848   6.235 -0.8091 -1.0238  0.0169
  658TIP3    H123389   6.032   1.805   6.249 -0.8534 -0.8424  0.8576
  658TIP3    H223390   5.911   1.860   6.323 -0.9201  0.4971 -0.2119
  659TIP3   OH223391   0.606   4.772  14.563  0.3828  0.6043 -0.0775
  659TIP3    H123392   0.646   4.851  14.530  0.7380  0.5755  0.2794
  659TIP3    H223393   0.679   4.717  14.591  0.1176  0.3726  0.1711
  660TIP3   OH223394   2.761   4.889   1.363 -0.0478  0.0640 -0.1661
  660TIP3    H123395   2.801   4.974   1.345  0.5005 -0.4219 -1.3591
  660TIP3    H223396   2.723   4.862   1.279  2.2981 -2.1426 -0.6616
  661TIP3   OH223397   1.890   5.090   4.219 -0.1351 -0.2318 -0.0234
  661TIP3    H123398   1.918   5.083   4.310  0.5254 -1.1700 -0.2846
  661TIP3    H223399   1.831   5.165   4.218 -2.8011 -2.1515  1.8190
  662TIP3   OH223400   6.044   0.649   5.098 -0.1685 -0.4360  0.6669
  662TIP3    H123401   6.020   0.622   5.186  0.9283 -0.1212  1.0862
  662TIP3    H223402   5.970   0.701   5.067 -0.6702 -0.7604  1.3081
  663TIP3   OH223403   3.565   2.496  12.031 -0.6027 -0.3453  0.1449
  663TIP3    H123404   3.605   2.557  12.093 -1.2250 -1.5213  1.8040
  663TIP3    H223405   3.472   2.519  12.031 -0.4586  0.2931 -1.1678
  664TIP3   OH223406   4.926   1.465  11.775  0.3082  0.0875 -0.1531
  664TIP3    H123407   5.019   1.472  11.752  0.3298  1.5668  0.3035
  664TIP3    H223408   4.920   1.499  11.864 -0.6289 -0.3608 -0.0287
  665TIP3   OH223409   3.199   5.059   1.276  0.6646 -0.1659 -0.3343
  665TIP3    H123410   3.183   5.144   1.317 -0.8991 -1.1967  1.3546
  665TIP3    H223411   3.154   5.064   1.192  0.7403  0.7317 -0.3317
  666TIP3   OH223412   1.318   3.149  12.867  0.5427  0.1040 -0.1630
  666TIP3    H123413   1.236   3.173  12.911 -0.5704  1.5626 -2.8338
  666TIP3    H223414   1.374   3.226  12.876  1.9232 -1.0562  2.0697
  667TIP3   OH223415   2.664   6.630  14.780  0.2366 -0.4006  0.1138
  667TIP3    H123416   2.590   6.646  14.838 -0.6299 -1.4269 -0.6689
  667TIP3    H223417   2.724   6.702  14.798  0.1195 -0.7909  2.4457
  668TIP3   OH223418   2.178   6.609  12.771 -0.0291 -0.1948  0.1515
  668TIP3    H123419   2.142   6.553  12.703 -0.7732 -0.3490  0.6666
  668TIP3    H223420   2.267   6.575  12.786 -0.4563 -1.2153  0.4321
  669TIP3   OH223421   1.083   3.768  10.790 -0.0717  0.4817  0.4830
  669TIP3    H123422   1.143   3.699  10.761 -0.2597  0.7451 -0.5917
  669TIP3    H223423   1.086   3.764  10.886 -0.8682 -1.7143  0.4802
  670TIP3   OH223424   3.200   5.609   1.387  0.3128  0.2054 -0.2563
  670TIP3    H123425   3.141   5.576   1.454  0.2097 -0.4613 -0.6673
  670TIP3    H223426   3.198   5.543   1.318  2.0396 -0.1620 -0.0026
  671TIP3   OH223427   2.445   5.879   2.904  0.2317 -0.0817  0.2208
  671TIP3    H123428   2.539   5.866   2.912  0.0965 -1.6882 -0.3615
  671TIP3    H223429   2.423   5.944   2.971  1.7406  0.2925  0.3726
  672TIP3   OH223430   2.768   2.648  12.238  0.0178  0.0611 -0.5655
  672TIP3    H123431   2.679   2.675  12.214 -0.3736 -0.8382 -0.1640
  672TIP3    H223432   2.764   2.633  12.332  0.2142 -1.3628 -0.7698
  673TIP3   OH223433   6.123   2.042  13.717  0.2614 -0.5907 -0.0686
  673TIP3    H123434   6.146   2.104  13.647 -1.1130 -0.9960 -0.9115
  673TIP3    H223435   6.064   2.092  13.774  0.9734 -0.4217  0.5276
  674TIP3   OH223436   3.357   4.880   3.110 -0.1401  0.0890  0.7399
  674TIP3    H123437   3.324   4.792   3.096 -0.9157  0.6493 -1.3132
  674TIP3    H223438   3.431   4.869   3.170  0.4285 -2.0788 -0.2633
  675TIP3   OH223439   4.744   6.684  14.362  0.4575  0.0501 -0.1607
  675TIP3    H123440   4.785   6.735  14.431  1.9924  0.3529 -1.2513
  675TIP3    H223441   4.723   6.747  14.293  1.3165 -0.5957 -1.0435
  676TIP3   OH223442   5.333   3.911   1.211  0.2668 -0.2858 -0.0259
  676TIP3    H123443   5.344   3.842   1.146 -1.8858  0.4072 -1.2298
  676TIP3    H223444   5.286   3.980   1.165 -0.8586  0.4736  2.0966
  677TIP3   OH223445   1.923   5.558  16.548  0.2490 -0.0100 -0.6669
  677TIP3    H123446   1.903   5.624  16.616 -3.7001 -1.1791 -0.4368
  677TIP3    H223447   1.915   5.474  16.594 -2.5887 -0.8325 -2.4148
  678TIP3   OH223448   6.579   1.596  11.863  0.1509  0.1125  0.2294
  678TIP3    H123449   6.602   1.648  11.941  1.3938 -0.9910  0.6362
  678TIP3    H223450   6.654   1.607  11.805 -0.0395 -0.3936 -0.1171
  679TIP3   OH223451   5.367   4.366  15.979 -0.2339  0.4759 -0.2826
  679TIP3    H123452   5.327   4.280  15.986  0.2575  0.2278 -0.4260
  679TIP3    H223453   5.460   4.350  15.994  0.1630  0.6469 -2.2736
  680TIP3   OH223454   6.336   0.388  11.298 -0.5099 -0.2642 -0.2211
  680TIP3    H123455   6.395   0.312  11.298 -1.2851 -0.9130 -1.5308
  680TIP3    H223456   6.320   0.405  11.205 -1.9316  0.2375  0.0954
  681TIP3   OH223457   3.796   3.078  11.273  0.0001  0.0014 -0.7024
  681TIP3    H123458   3.874   3.132  11.261  0.1669  0.1315  0.8347
  681TIP3    H223459   3.821   3.015  11.341 -0.9381 -0.5468 -0.8542
  682TIP3   OH223460   6.685   0.696  12.190  0.0838 -0.6152  0.0853
  682TIP3    H123461   6.675   0.634  12.262  3.4102  0.8127  2.0187
  682TIP3    H223462   6.651   0.779  12.225 -0.7934 -0.4691 -1.0513
  683TIP3   OH223463   6.525   5.507   0.365  0.1901  0.1317 -0.0438
  683TIP3    H123464   6.464   5.576   0.339 -2.4895 -2.5233 -1.4523
  683TIP3    H223465   6.544   5.525   0.457 -1.4605  2.0153 -0.0058
  684TIP3   OH223466   2.409   2.470  15.070 -0.8732  0.7185 -0.0983
  684TIP3    H123467   2.363   2.484  14.987 -1.4867  0.9497  0.2705
  684TIP3    H223468   2.471   2.399  15.052 -1.2585  0.5173 -0.6544
  685TIP3   OH223469   6.035   5.051  10.471  0.0320 -0.0529  0.2546
  685TIP3    H123470   5.985   5.132  10.481 -1.3559 -0.8368 -0.0035
  685TIP3    H223471   6.109   5.061  10.530  0.7566  2.0352 -0.9093
  686TIP3   OH223472   0.058   1.032  14.892 -0.3883 -0.2031 -0.6519
  686TIP3    H123473   0.054   0.938  14.872  1.6434 -0.2950 -0.8308
  686TIP3    H223474  -0.011   1.071  14.839 -1.3905 -1.5937 -0.4507
  687TIP3   OH223475   5.514   3.504  15.940  0.2758  0.2710  0.0428
  687TIP3    H123476   5.518   3.599  15.949  3.3678  0.2532 -0.0319
  687TIP3    H223477   5.489   3.472  16.027  0.3967  1.1234  0.3944
  688TIP3   OH223478   1.976   1.445  12.648  0.3107  0.1600 -0.2567
  688TIP3    H123479   1.970   1.424  12.555  3.4250  0.6144 -0.6338
  688TIP3    H223480   1.978   1.540  12.652 -1.4672  0.2131  0.4781
  689TIP3   OH223481   1.605   0.698  15.734  0.3241 -0.3451 -0.1576
  689TIP3    H123482   1.642   0.616  15.768 -1.4462 -0.7920  0.8112
  689TIP3    H223483   1.511   0.691  15.751  0.1390  1.9721  0.1568
  690TIP3   OH223484   3.216   3.771  14.172 -0.4197 -0.4447 -0.4640
  690TIP3    H123485   3.209   3.779  14.267 -0.3195  1.2746 -0.5672
  690TIP3    H223486   3.308   3.749  14.156 -0.2612  0.0145 -0.1885
  691TIP3   OH223487   0.304   4.205   3.091 -0.0827 -0.3541  0.1945
  691TIP3    H123488   0.389   4.208   3.136 -0.0281  1.9378  0.0946
  691TIP3    H223489   0.325   4.186   3.000  0.3328  0.1165  0.1872
  692TIP3   OH223490   2.466   2.862   5.030 -0.1931 -0.0350  0.7624
  692TIP3    H123491   2.384   2.867   4.981  0.6860 -1.3337 -0.9643
  692TIP3    H223492   2.483   2.768   5.039  1.0740  0.2050  1.1000
  693TIP3   OH223493   1.510   0.320  13.252  0.7195 -0.0063  0.2079
  693TIP3    H123494   1.592   0.277  13.227  0.6220 -0.2256  0.2622
  693TIP3    H223495   1.472   0.262  13.319  0.8592  0.4507  0.6845
  694TIP3   OH223496   4.606   6.578  11.836 -0.8349  0.2161 -0.0627
  694TIP3    H123497   4.695   6.558  11.865 -1.9480  0.0970  3.8947
  694TIP3    H223498   4.608   6.671  11.814  0.1446  0.3945  0.7208
  695TIP3   OH223499   6.237   5.499  12.604 -0.1531 -0.2124  0.2466
  695TIP3    H123500   6.256   5.412  12.639 -0.1339  0.4793  2.1020
  695TIP3    H223501   6.174   5.536  12.666 -1.2235  0.5950 -1.2721
  696TIP3   OH223502   3.184   0.302  16.346  0.1688 -0.0581  0.4612
  696TIP3    H123503   3.089   0.309  16.343  0.2707  1.3413 -0.8797
  696TIP3    H223504   3.213   0.329  16.258  1.7901 -0.7621  0.7404
  697TIP3   OH223505   0.511   6.297   4.848  0.7282  0.2210 -0.0478
  697TIP3    H123506   0.574   6.241   4.802  0.0145 -0.0690 -0.6747
  697TIP3    H223507   0.529   6.385   4.816 -0.2456 -0.0630 -1.4730
  698TIP3   OH223508   1.699   1.325   4.401  0.6390  0.0794 -0.3206
  698TIP3    H123509   1.677   1.402   4.454 -0.1248 -0.7016  0.5379
  698TIP3    H223510   1.632   1.260   4.424  1.1786 -0.7991 -1.1361
  699TIP3   OH223511   4.591   4.945  15.880 -0.1875 -0.2113 -0.0176
  699TIP3    H123512   4.619   4.904  15.798 -0.3169 -0.1948 -0.0708
  699TIP3    H223513   4.551   4.875  15.930 -1.2182  0.0226 -0.4758
  700TIP3   OH223514   0.093   6.452   2.726 -0.1299 -0.2459  0.2982
  700TIP3    H123515   0.067   6.542   2.749 -1.0364 -0.1201 -1.1279
  700TIP3    H223516   0.096   6.452   2.631  3.0771 -0.8632  0.2853
  701TIP3   OH223517   2.245   5.515  16.608 -0.1266  0.1294 -0.1261
  701TIP3    H123518   2.285   5.536  16.692  1.0243  0.5133 -0.7544
  701TIP3    H223519   2.162   5.474  16.631  1.2318 -2.0383  1.2744
  702TIP3   OH223520   5.450   4.665  15.887  0.2079  0.1251  0.8252
  702TIP3    H123521   5.496   4.581  15.888 -1.1283 -0.6426  0.6537
  702TIP3    H223522   5.371   4.650  15.940 -1.1001  0.6193 -0.8705
  703TIP3   OH223523   4.504   4.352   0.696 -0.3001  0.6604  0.3467
  703TIP3    H123524   4.576   4.356   0.634 -1.2812  1.3901 -0.7861
  703TIP3    H223525   4.514   4.431   0.749 -0.0711  0.5761  0.4323
  704TIP3   OH223526   1.493   1.914   2.770 -0.1101  0.4515  0.4008
  704TIP3    H123527   1.466   1.918   2.862 -1.5432  1.0373 -0.0134
  704TIP3    H223528   1.440   1.843   2.733 -1.1885  1.6805 -0.4637
  705TIP3   OH223529   2.276   4.201  12.012  0.5102 -0.5268 -0.3143
  705TIP3    H123530   2.305   4.112  11.992  1.6735  0.0190 -1.1523
  705TIP3    H223531   2.265   4.202  12.107  0.0164 -1.6895 -0.3410
  706TIP3   OH223532   5.005   1.739  10.631 -0.0562  0.8973 -0.0703
  706TIP3    H123533   5.086   1.789  10.629 -0.2912  1.3392  0.8618
  706TIP3    H223534   4.938   1.803  10.654 -0.3959  0.2141  0.9058
  707TIP3   OH223535   4.751   1.366   4.506  0.5099  0.0242 -1.7718
  707TIP3    H123536   4.720   1.291   4.557  0.9376  0.6239 -0.5836
  707TIP3    H223537   4.697   1.366   4.427 -2.3019  0.8016  0.0163
  708TIP3   OH223538   3.550   4.313   5.887 -0.0275 -0.4698  0.7590
  708TIP3    H123539   3.644   4.302   5.872 -0.1827 -0.8765  0.0464
  708TIP3    H223540   3.544   4.389   5.946  0.7257 -0.2278  0.5347
  709TIP3   OH223541   2.760   0.591   1.418  0.1011  0.4599 -0.4394
  709TIP3    H123542   2.690   0.630   1.469  0.4020  1.2254 -0.5945
  709TIP3    H223543   2.716   0.528   1.361 -0.1579 -0.9626  1.2526
  710TIP3   OH223544   1.423   1.011   3.415  0.0280 -0.0338  0.6310
  710TIP3    H123545   1.374   0.980   3.492 -2.3725 -0.5792 -0.9952
  710TIP3    H223546   1.450   1.100   3.438 -1.4999  0.1840  1.7593
  711TIP3   OH223547   4.987   3.735   5.801  0.0753  0.2368 -0.0655
  711TIP3    H123548   4.985   3.822   5.841  2.4865 -0.1159  0.9594
  711TIP3    H223549   4.954   3.676   5.869 -0.9532  0.2256 -0.5437
  712TIP3   OH223550   2.354   1.630  10.330  1.0923  0.1826  0.2288
  712TIP3    H123551   2.304   1.654  10.408  0.6612  1.8563 -0.5005
  712TIP3    H223552   2.437   1.677  10.340  0.4183  1.7340 -1.0174
  713TIP3   OH223553   0.828   1.377   3.105 -0.0989  0.1973 -0.4253
  713TIP3    H123554   0.837   1.325   3.185 -0.6144  0.3096 -0.2888
  713TIP3    H223555   0.740   1.415   3.111 -0.4997 -0.5038 -1.4595
  714TIP3   OH223556   1.073   5.122   5.936 -0.2946 -0.4787 -0.9453
  714TIP3    H123557   1.127   5.063   5.987 -0.2466 -0.1230 -0.5830
  714TIP3    H223558   1.016   5.165   6.000  0.6329  0.9057 -1.0179
  715TIP3   OH223559   4.939   2.809  14.288  0.7085 -0.0666  0.0873
  715TIP3    H123560   4.993   2.732  14.270  0.7472  0.4770 -2.4950
  715TIP3    H223561   4.853   2.787  14.252  1.0062  1.4272 -1.6577
  716TIP3   OH223562   2.770   2.140  11.407  0.5147 -0.0944 -0.4655
  716TIP3    H123563   2.789   2.234  11.397  1.2358 -0.1065  0.5794
  716TIP3    H223564   2.689   2.137  11.458  0.9665 -0.0161  0.2835
  717TIP3   OH223565   5.796   3.599   5.116 -0.3647  0.5753  0.1448
  717TIP3    H123566   5.779   3.659   5.189  0.5814  0.2750  0.6243
  717TIP3    H223567   5.861   3.538   5.150  0.4367  0.7181 -1.1074
  718TIP3   OH223568   4.178   1.457  10.288  0.0904 -0.7080 -0.1264
  718TIP3    H123569   4.214   1.481  10.373  1.2418  0.7466 -0.9781
  718TIP3    H223570   4.101   1.512  10.277  2.1984  2.2178 -1.6694
  719TIP3   OH223571   0.404   4.720  17.227 -0.3582  0.1817 -0.3258
  719TIP3    H123572   0.462   4.786  17.265 -0.6207  0.2557 -0.0477
  719TIP3    H223573   0.386   4.753  17.139 -2.1386  1.5809  0.4843
  720TIP3   OH223574   3.998   2.387   3.733 -0.0805 -0.0632 -0.1503
  720TIP3    H123575   4.053   2.323   3.779  0.3850  0.8127  0.5489
  720TIP3    H223576   3.947   2.335   3.671 -0.7897 -1.3159  1.4118
  721TIP3   OH223577   1.357   0.207  15.888  0.0026 -0.4618  0.0520
  721TIP3    H123578   1.437   0.250  15.918  0.4689 -1.6593  0.5873
  721TIP3    H223579   1.287   0.269  15.906  0.6530  0.0439  0.8510
  722TIP3   OH223580   2.134   3.495   2.342  0.4810  0.2745 -0.4134
  722TIP3    H123581   2.185   3.569   2.374  2.7544 -0.9024 -1.1381
  722TIP3    H223582   2.063   3.485   2.406  1.1623  1.9479  0.6555
  723TIP3   OH223583   3.643   2.118  12.119 -0.0873  0.3606 -0.3762
  723TIP3    H123584   3.688   2.155  12.195 -0.6947  1.5377 -0.5801
  723TIP3    H223585   3.672   2.171  12.045 -0.1814 -0.2177 -0.8329
  724TIP3   OH223586   6.675   0.157  15.920 -0.0100 -0.6995  0.5726
  724TIP3    H123587   6.727   0.223  15.875 -1.6384  1.2920  1.4353
  724TIP3    H223588   6.735   0.083  15.933  1.6762  0.2989 -1.0626
  725TIP3   OH223589   3.673   3.150   5.561 -0.7360 -0.7106  0.4481
  725TIP3    H123590   3.745   3.158   5.624  0.8276 -0.2942 -1.3242
  725TIP3    H223591   3.685   3.063   5.522 -0.8457 -0.4106 -0.2692
  726TIP3   OH223592   1.328   3.043  11.651  0.5708 -0.4553  0.0737
  726TIP3    H123593   1.362   3.093  11.577  0.5554  0.0007  0.3680
  726TIP3    H223594   1.331   2.951  11.622 -0.9392 -0.1820 -1.1050
  727TIP3   OH223595   4.042   4.719   5.163 -0.3974 -0.6587 -0.3361
  727TIP3    H123596   4.018   4.637   5.118  0.5326 -1.1399  0.0173
  727TIP3    H223597   4.076   4.690   5.248  3.5780 -0.2749 -1.5986
  728TIP3   OH223598   3.051   3.077   0.796 -0.0362  0.0749  0.5556
  728TIP3    H123599   2.965   3.062   0.757  0.0199  1.0052  0.0455
  728TIP3    H223600   3.046   3.034   0.882 -1.7459  1.8186  1.4240
  729TIP3   OH223601   6.296   3.054  16.164  0.7766  0.3289 -0.1628
  729TIP3    H123602   6.231   2.993  16.129  0.4457  0.3853  0.3360
  729TIP3    H223603   6.296   3.127  16.101  1.7644 -0.5284 -1.2020
  730TIP3   OH223604   5.080   5.542   1.075 -0.4899  0.0164 -0.4136
  730TIP3    H123605   5.143   5.612   1.089 -0.6326  0.7415 -2.9218
  730TIP3    H223606   5.059   5.546   0.982 -0.8264 -3.0991 -0.6038
  731TIP3   OH223607   2.600   3.251  16.442 -0.2103 -0.2545  0.4231
  731TIP3    H123608   2.681   3.290  16.476  0.9723 -1.7649 -0.4926
  731TIP3    H223609   2.600   3.273  16.349 -0.4478 -0.8627  0.2716
  732TIP3   OH223610   3.689   2.427   4.700 -0.2299 -0.2861 -0.6014
  732TIP3    H123611   3.688   2.408   4.794 -0.9036 -0.8787 -0.7218
  732TIP3    H223612   3.764   2.378   4.667  1.2622  1.5179 -0.0737
  733TIP3   OH223613   4.565   3.541  13.606  0.1176  0.0321 -0.0733
  733TIP3    H123614   4.535   3.540  13.697  2.3001  1.1245  0.7279
  733TIP3    H223615   4.657   3.518  13.611  0.8303  2.1730 -1.7503
  734TIP3   OH223616   4.563   6.277   3.453  0.3705 -0.1693  0.5771
  734TIP3    H123617   4.481   6.252   3.411  1.1571  1.3543 -2.1245
  734TIP3    H223618   4.557   6.242   3.541 -3.7936  1.0624  0.9696
  735TIP3   OH223619   5.568   6.687   0.282 -0.6615  0.1360  0.5110
  735TIP3    H123620   5.652   6.653   0.252 -1.7137 -2.4279  0.2032
  735TIP3    H223621   5.525   6.721   0.203 -0.0778  1.1866  0.6236
  736TIP3   OH223622   5.637   0.879  11.066  0.6954  0.0752 -0.1511
  736TIP3    H123623   5.607   0.907  11.152 -1.3092 -0.8132 -0.5103
  736TIP3    H223624   5.557   0.872  11.013  1.6979 -0.9286 -1.6205
  737TIP3   OH223625   3.506   4.685  13.240  0.2452 -0.7781 -0.3822
  737TIP3    H123626   3.426   4.735  13.255  0.3459 -1.0496  1.2919
  737TIP3    H223627   3.496   4.650  13.152 -0.4167  1.0852 -1.0921
  738TIP3   OH223628   3.356   0.349   5.070 -0.1279 -0.1305 -0.6342
  738TIP3    H123629   3.357   0.274   5.129 -1.6253  1.1140  1.0871
  738TIP3    H223630   3.278   0.398   5.095  0.3625  1.5850 -2.2367
  739TIP3   OH223631   5.702   0.703   3.052 -0.3309  0.2818  0.2074
  739TIP3    H123632   5.729   0.622   3.007 -0.3179  0.0702  0.5892
  739TIP3    H223633   5.654   0.672   3.129 -1.1508  0.6472 -0.1476
  740TIP3   OH223634   1.608   5.178  13.675 -0.1072  0.2808  0.1445
  740TIP3    H123635   1.696   5.192  13.710 -0.8918  1.4614  1.8016
  740TIP3    H223636   1.564   5.125  13.742 -1.1861  1.2479  0.2377
  741TIP3   OH223637   5.484   1.881  15.940  0.1499 -0.5015 -0.0428
  741TIP3    H123638   5.485   1.966  15.984 -1.8128 -0.6135  0.3078
  741TIP3    H223639   5.510   1.818  16.007  1.5802 -0.2207 -0.2955
  742TIP3   OH223640   4.303   3.059   5.663  0.3191  0.0613 -0.4556
  742TIP3    H123641   4.277   3.022   5.578 -0.7202 -0.6428  0.1573
  742TIP3    H223642   4.398   3.047   5.666  0.4563  0.5876 -1.7420
  743TIP3   OH223643   1.299   5.323   4.317 -0.3457 -0.2084  0.4580
  743TIP3    H123644   1.339   5.407   4.336  0.2591 -0.3002 -0.3569
  743TIP3    H223645   1.205   5.340   4.320 -0.2261  0.6103 -0.2045
  744TIP3   OH223646   0.418   1.734   3.984  0.3948 -0.3302  0.2952
  744TIP3    H123647   0.368   1.816   3.993 -1.2500 -1.3165  0.6037
  744TIP3    H223648   0.370   1.672   4.039  1.0887 -1.7359 -0.6604
  745TIP3   OH223649   4.578   1.968   3.522  0.5755  0.3527 -0.1407
  745TIP3    H123650   4.544   2.051   3.555  1.7951  0.5425  0.6958
  745TIP3    H223651   4.535   1.901   3.575  0.3038  0.5019 -0.1730
  746TIP3   OH223652   5.615   4.935  11.898 -0.0229  0.4058 -0.1220
  746TIP3    H123653   5.567   4.930  11.816  0.5071  0.7266 -0.4593
  746TIP3    H223654   5.623   5.029  11.915  0.1145  0.3463  0.1529
  747TIP3   OH223655   0.156   2.349  10.431  0.2703  0.2883  0.7746
  747TIP3    H123656   0.131   2.257  10.425 -1.6629  0.7680  0.5352
  747TIP3    H223657   0.149   2.381  10.340 -0.1147  0.9007  1.0138
  748TIP3   OH223658   6.592   4.915  17.163 -0.1179 -0.5661  0.3865
  748TIP3    H123659   6.627   4.891  17.248  2.0432 -1.2836 -0.6318
  748TIP3    H223660   6.638   4.996  17.139 -1.6945  0.4043  0.4298
  749TIP3   OH223661   4.745   5.840  15.833  0.2539  0.4277 -0.2118
  749TIP3    H123662   4.697   5.920  15.815 -0.6752 -0.1494 -0.3941
  749TIP3    H223663   4.702   5.774  15.778 -0.7810 -0.7731  1.8915
  750TIP3   OH223664   6.295   1.591   4.850 -0.1671 -0.0393 -0.0632
  750TIP3    H123665   6.219   1.645   4.828  0.3228  1.3464  1.4759
  750TIP3    H223666   6.264   1.501   4.838 -2.1295  0.4848  0.6469
  751TIP3   OH223667   5.491   3.565  12.863 -0.2036  0.3103 -0.0062
  751TIP3    H123668   5.397   3.560  12.849 -0.4115  0.0325  1.3927
  751TIP3    H223669   5.517   3.647  12.822 -0.7885 -0.3185 -1.7092
  752TIP3   OH223670   0.459   1.151   3.469 -0.0247 -0.5285 -0.0004
  752TIP3    H123671   0.492   1.240   3.480 -1.1741  0.1694 -1.8127
  752TIP3    H223672   0.406   1.135   3.547  0.6206  0.1634  0.5895
  753TIP3   OH223673   5.117   6.184  16.564 -0.0966  0.3974 -0.4676
  753TIP3    H123674   5.152   6.187  16.475  0.5726  0.0084 -0.2185
  753TIP3    H223675   5.060   6.108  16.565 -0.7537  0.8703 -0.7937
  754TIP3   OH223676   5.917   1.987  14.017 -0.8948 -0.2643  0.8110
  754TIP3    H123677   6.006   2.018  14.034 -1.2642  0.8930  0.7101
  754TIP3    H223678   5.902   1.920  14.083  0.2049 -0.7957  0.5560
  755TIP3   OH223679   6.107   6.578  16.459 -0.0880 -0.0919 -0.1188
  755TIP3    H123680   6.014   6.553  16.455 -0.4993  1.4703 -1.2593
  755TIP3    H223681   6.154   6.496  16.443 -1.1082 -1.5183  3.1142
  756TIP3   OH223682   1.413   2.400  15.444 -0.3818 -0.2867 -0.2414
  756TIP3    H123683   1.491   2.437  15.403  0.1645 -0.4962  0.5753
  756TIP3    H223684   1.447   2.338  15.509 -1.2220 -0.3520  0.1526
  757TIP3   OH223685   5.109   5.656  12.790 -0.5827 -0.1089 -0.6749
  757TIP3    H123686   5.134   5.736  12.744 -0.9779 -0.6302 -1.8251
  757TIP3    H223687   5.098   5.683  12.881  3.6081  0.2940 -0.0962
  758TIP3   OH223688   2.271   6.682   1.791  0.4177  0.1224 -0.0003
  758TIP3    H123689   2.217   6.603   1.794 -0.9803  1.0626  1.0500
  758TIP3    H223690   2.290   6.694   1.698 -0.0664 -0.9779 -0.2562
  759TIP3   OH223691   4.252   2.897   1.198 -0.3916  0.5238 -0.2515
  759TIP3    H123692   4.276   2.811   1.233 -0.4034 -0.3858 -2.3870
  759TIP3    H223693   4.309   2.958   1.246  0.0408 -0.7163  0.8714
  760TIP3   OH223694   4.769   1.847  15.922  0.3206  0.2204  0.1398
  760TIP3    H123695   4.781   1.939  15.900 -0.6246  0.2010 -0.5024
  760TIP3    H223696   4.690   1.820  15.875  0.0506 -0.6779  1.0511
  761TIP3   OH223697   2.148   6.138  11.631 -0.2365  0.1231 -0.1089
  761TIP3    H123698   2.151   6.100  11.544 -1.1931  0.2656 -0.2134
  761TIP3    H223699   2.117   6.227  11.617  0.8218  0.5667  0.2580
  762TIP3   OH223700   5.195   2.785   5.751  0.0703 -0.1007 -0.0707
  762TIP3    H123701   5.166   2.868   5.790 -1.6775 -0.7619  0.1221
  762TIP3    H223702   5.267   2.810   5.693  0.9058  1.2672  1.4690
  763TIP3   OH223703   2.910   6.775   6.211  0.5668  1.4295 -0.1862
  763TIP3    H123704   2.872   6.689   6.191  0.7799  1.6826 -1.7897
  763TIP3    H223705   2.847   6.814   6.272  0.4451  0.1722  0.5383
  764TIP3   OH223706   6.387   3.036  15.317  0.3015 -0.3284  0.0579
  764TIP3    H123707   6.343   3.038  15.232 -0.8950 -1.3409  0.6075
  764TIP3    H223708   6.317   3.051  15.380  1.1729  0.3817  0.8792
  765TIP3   OH223709   1.518   1.028   5.179  0.2898  0.1215 -0.1904
  765TIP3    H123710   1.578   0.986   5.117  0.0907 -0.8671  0.2658
  765TIP3    H223711   1.507   0.963   5.248 -0.0118  0.9537  0.5510
  766TIP3   OH223712   5.939   0.614  17.113  0.2720  0.4978 -0.0851
  766TIP3    H123713   5.904   0.570  17.035  0.4648 -0.4010  0.3159
  766TIP3    H223714   5.963   0.701  17.084  0.5024  0.1111 -1.0767
  767TIP3   OH223715   5.620   6.744   1.417  0.2542  0.3114 -0.3353
  767TIP3    H123716   5.559   6.708   1.482 -1.1723 -0.1356 -1.8389
  767TIP3    H223717   5.705   6.743   1.461 -0.8458  1.3416  1.9955
  768TIP3   OH223718   5.960   5.920   4.562  0.5603 -0.7369 -0.1795
  768TIP3    H123719   5.908   5.977   4.507  0.4278  1.0204  1.6464
  768TIP3    H223720   6.049   5.952   4.554  0.7942 -1.4562 -0.5458
  769TIP3   OH223721   0.584   3.223   5.766 -0.1942 -0.2075 -0.1296
  769TIP3    H123722   0.659   3.255   5.815  1.1874 -2.7267 -0.4646
  769TIP3    H223723   0.525   3.188   5.833 -0.6748  0.8969  0.0539
  770TIP3   OH223724   2.773   4.646  11.472  0.5251 -0.1349 -0.0451
  770TIP3    H123725   2.831   4.661  11.398 -0.4981  0.0700 -0.8371
  770TIP3    H223726   2.787   4.722  11.529  2.4566 -1.0562  0.7878
  771TIP3   OH223727   5.185   0.487   1.685 -0.0748  0.2901  0.1954
  771TIP3    H123728   5.196   0.395   1.661 -1.2185  0.6815 -2.1175
  771TIP3    H223729   5.131   0.485   1.765  0.1233 -1.0391  0.3160
  772TIP3   OH223730   5.349   6.781  12.290  0.7038 -0.1706  0.0582
  772TIP3    H123731   5.263   6.742  12.275  1.6834 -2.3340 -0.2812
  772TIP3    H223732   5.370   6.826  12.208  0.9429 -1.8129 -0.8241
  773TIP3   OH223733   6.521   3.620   1.565  0.0888  0.0547  0.0802
  773TIP3    H123734   6.571   3.673   1.626  1.0050 -0.0105 -0.5919
  773TIP3    H223735   6.584   3.556   1.531 -0.7971 -0.9295  0.2624
  774TIP3   OH223736   6.318   2.676   2.452 -0.4186  0.3753  0.4405
  774TIP3    H123737   6.369   2.745   2.494 -0.5865  0.9047 -0.2122
  774TIP3    H223738   6.314   2.606   2.517  2.1832 -0.1914  0.1247
  775TIP3   OH223739   0.828   1.938  16.376  0.4670  0.3446  0.1496
  775TIP3    H123740   0.768   1.870  16.343  1.5428 -1.2877  1.3719
  775TIP3    H223741   0.772   2.002  16.417 -0.5373 -0.3764 -0.0498
  776TIP3   OH223742   6.409   2.346   1.502  0.0929  0.2616 -0.1907
  776TIP3    H123743   6.458   2.263   1.493 -0.7227 -0.2792  0.2717
  776TIP3    H223744   6.412   2.384   1.415  2.8636  1.1368  0.1632
  777TIP3   OH223745   4.316   4.898   0.741 -0.1476  0.4883 -0.6436
  777TIP3    H123746   4.354   4.917   0.827 -0.5509 -0.1874 -0.3041
  777TIP3    H223747   4.386   4.918   0.679 -0.2629  2.2346 -0.2679
  778TIP3   OH223748   1.616   1.039   2.557  0.2033 -0.0026  0.2188
  778TIP3    H123749   1.679   0.975   2.590 -0.9380 -0.6898  1.1013
  778TIP3    H223750   1.665   1.086   2.489  1.3010 -1.2989  0.0549
  779TIP3   OH223751   2.382   5.907  13.258 -0.0322 -0.2951 -0.0606
  779TIP3    H123752   2.458   5.888  13.313 -0.4879 -1.6652  0.1185
  779TIP3    H223753   2.328   5.965  13.311  0.3947 -0.1346  0.2045
  780TIP3   OH223754   2.335   0.728  16.781 -0.2311  0.2171  0.4309
  780TIP3    H123755   2.311   0.819  16.767  0.4901  0.3628  0.0733
  780TIP3    H223756   2.329   0.688  16.694  2.7677  0.7564 -0.1346
  781TIP3   OH223757   3.821   0.118  11.747  0.2497  0.1420  0.1477
  781TIP3    H123758   3.788   0.150  11.663 -2.3910 -2.2304  0.1360
  781TIP3    H223759   3.862   0.034  11.727  0.4953  0.0193  1.0893
  782TIP3   OH223760   0.985   5.687  14.918 -0.6452 -0.0408 -0.4722
  782TIP3    H123761   1.039   5.734  14.854 -1.3155 -0.5196 -1.4148
  782TIP3    H223762   0.935   5.756  14.962 -1.4516  0.1761 -1.6870
  783TIP3   OH223763   6.689   4.334   3.480 -0.3414  0.0274  0.0642
  783TIP3    H123764   6.729   4.414   3.444  0.9589 -0.7549 -0.3375
  783TIP3    H223765   6.735   4.320   3.563  0.5315 -1.0759 -0.5670
  784TIP3   OH223766   2.307   3.873  14.411 -0.0855 -0.3393  0.5523
  784TIP3    H123767   2.243   3.880  14.482  0.7778  0.7204  1.2500
  784TIP3    H223768   2.289   3.948  14.355 -1.0365 -1.3919 -0.6315
  785TIP3   OH223769   6.191   2.904  11.555 -0.0689 -0.3668  0.8843
  785TIP3    H123770   6.169   2.825  11.505 -0.9330 -0.3282  1.1784
  785TIP3    H223771   6.115   2.917  11.613  0.1510  0.5660  0.9755
  786TIP3   OH223772   2.431   6.199  15.475 -0.4605 -0.6089  0.2335
  786TIP3    H123773   2.438   6.116  15.521 -1.0675 -0.6546  0.2586
  786TIP3    H223774   2.505   6.201  15.415  0.1525 -0.6935  0.9865
  787TIP3   OH223775   1.442   4.444   1.103  0.4720 -0.6911 -0.1365
  787TIP3    H123776   1.493   4.510   1.057  0.2784  0.2500  0.9477
  787TIP3    H223777   1.359   4.441   1.056  0.1257  0.5464  0.3634
  788TIP3   OH223778   6.055   1.604   0.585 -0.5810  0.4541  0.3696
  788TIP3    H123779   6.098   1.530   0.541  0.3036  1.2097 -0.0623
  788TIP3    H223780   6.121   1.673   0.587 -0.8822  0.7553  2.1203
  789TIP3   OH223781   3.271   0.158   5.441 -0.2418 -0.2944 -0.0037
  789TIP3    H123782   3.182   0.192   5.454 -0.5245 -0.4720 -1.3486
  789TIP3    H223783   3.318   0.183   5.521 -1.1238  1.0176  0.1346
  790TIP3   OH223784   0.659   3.184   0.816  0.2520 -0.0408  0.6297
  790TIP3    H123785   0.607   3.212   0.892  1.3252  1.0965  0.9832
  790TIP3    H223786   0.738   3.238   0.820 -0.0974  0.7846 -1.8841
  791TIP3   OH223787   0.380   0.283  13.684 -0.7184 -0.8021 -0.0818
  791TIP3    H123788   0.434   0.245  13.614  1.0005  1.0298  0.1411
  791TIP3    H223789   0.400   0.230  13.761  0.2239 -0.6153 -0.1818
  792TIP3   OH223790   3.588   1.820  15.067  0.1207  0.1707  0.2587
  792TIP3    H123791   3.681   1.803  15.082  0.4105  1.2142 -0.2089
  792TIP3    H223792   3.543   1.747  15.109  1.1509 -0.3862  0.4431
  793TIP3   OH223793   1.786   2.529  14.013  0.3502  0.3935  0.1931
  793TIP3    H123794   1.718   2.544  13.948 -0.5311 -2.6786  0.2488
  793TIP3    H223795   1.857   2.487  13.965  0.9921  0.8923  0.6810
  794TIP3   OH223796   5.811   4.688  13.022 -0.0593 -0.0413  0.6674
  794TIP3    H123797   5.798   4.774  12.982 -0.3179 -0.3235  0.1193
  794TIP3    H223798   5.790   4.700  13.114 -2.7296 -0.0854  0.1581
  795TIP3   OH223799   5.370   4.881  12.495 -0.1444  0.3022  0.5912
  795TIP3    H123800   5.293   4.938  12.496  0.6582  1.4073  1.3929
  795TIP3    H223801   5.433   4.925  12.439  0.6227  0.4127  1.5116
  796TIP3   OH223802   5.428   5.465   4.935  0.1029 -0.5655 -0.1095
  796TIP3    H123803   5.384   5.548   4.915  0.1845 -0.5538 -0.2411
  796TIP3    H223804   5.389   5.403   4.873 -0.4822 -0.7893  0.4664
  797TIP3   OH223805   6.270   4.472  13.527 -0.7034  0.2324 -0.2238
  797TIP3    H123806   6.198   4.455  13.588 -0.8816  1.1854 -0.1529
  797TIP3    H223807   6.266   4.401  13.463  1.1250 -2.4052  2.3215
  798TIP3   OH223808   6.072   5.467  17.064  0.7981  0.2239  0.3650
  798TIP3    H123809   6.031   5.478  17.149 -0.6171  0.4120 -0.3108
  798TIP3    H223810   6.166   5.464  17.082  0.5091  0.0564  1.9343
  799TIP3   OH223811   5.412   5.271   3.712 -0.2199 -0.0116 -0.1737
  799TIP3    H123812   5.447   5.275   3.623  0.5043  3.7198  0.1311
  799TIP3    H223813   5.329   5.320   3.707 -1.3237 -1.6949  0.8065
  800TIP3   OH223814   5.448   5.298  16.772  0.0137 -0.4141 -0.1090
  800TIP3    H123815   5.486   5.330  16.690 -0.0298 -1.1986 -0.4501
  800TIP3    H223816   5.524   5.281  16.828  0.1857 -1.6556 -0.6685
  801TIP3   OH223817   2.480   6.430   1.314 -0.1265 -0.5767  0.1376
  801TIP3    H123818   2.535   6.479   1.252 -0.2641  0.4229  0.7897
  801TIP3    H223819   2.395   6.424   1.271 -0.0842 -0.3266  0.0173
  802TIP3   OH223820   1.598   4.598  15.374  0.1702 -0.1196 -0.3573
  802TIP3    H123821   1.608   4.678  15.322 -0.1458  0.1220 -0.0452
  802TIP3    H223822   1.641   4.618  15.457 -1.5119  0.3827  0.4185
  803TIP3   OH223823   3.273   4.061   2.215  0.6017  0.0537 -0.2586
  803TIP3    H123824   3.363   4.093   2.222  0.7251 -0.3264 -0.0683
  803TIP3    H223825   3.227   4.130   2.168  0.6101  1.0206  1.1042
  804TIP3   OH223826   0.450   3.576   4.330 -0.0784 -0.1432 -0.1928
  804TIP3    H123827   0.494   3.560   4.246  0.3215 -0.3297  0.0447
  804TIP3    H223828   0.445   3.489   4.371 -1.4105 -0.2519 -0.5650
  805TIP3   OH223829   3.962   1.916  12.417  0.6902 -0.1737  0.1141
  805TIP3    H123830   4.056   1.898  12.430  0.7728  0.9475  1.2645
  805TIP3    H223831   3.958   1.969  12.338  1.1935  0.9584  0.8231
  806TIP3   OH223832   2.335   6.339   4.254  0.0381 -0.2404  0.4063
  806TIP3    H123833   2.385   6.293   4.187 -0.0721 -0.1575  0.2675
  806TIP3    H223834   2.264   6.279   4.276 -0.8820  0.3989 -0.7224
  807TIP3   OH223835   4.698   4.080  15.317 -0.3178 -0.5033 -0.0264
  807TIP3    H123836   4.782   4.118  15.292  0.1088 -1.3302  0.1361
  807TIP3    H223837   4.719   3.992  15.347 -1.1655 -0.4892  0.6411
  808TIP3   OH223838   1.207   3.501  16.932 -0.2065  0.0396 -0.2369
  808TIP3    H123839   1.166   3.536  17.011 -1.8275  1.1793 -1.5036
  808TIP3    H223840   1.156   3.423  16.911 -0.4904  0.3503 -0.7306
  809TIP3   OH223841   2.929   0.209   0.834 -0.1909  0.3699  0.3193
  809TIP3    H123842   2.936   0.160   0.917  1.2054  2.0637  1.2806
  809TIP3    H223843   2.844   0.253   0.840 -1.3764 -1.6591 -0.4682
  810TIP3   OH223844   1.707   5.424  13.311 -0.5344  0.2460 -0.2878
  810TIP3    H123845   1.619   5.456  13.332 -1.4668 -1.0979 -1.9298
  810TIP3    H223846   1.701   5.395  13.220  0.9967 -1.9023  0.2216
  811TIP3   OH223847   2.652   0.990  16.052 -0.6323  0.0697 -0.2472
  811TIP3    H123848   2.629   1.071  16.006  0.9530  1.3893  1.1563
  811TIP3    H223849   2.642   0.922  15.986 -1.2597  1.4956 -1.7039
  812TIP3   OH223850   3.370   0.923  15.415 -0.1872  0.0034 -0.4745
  812TIP3    H123851   3.382   0.967  15.331 -1.4445 -0.1474 -0.7523
  812TIP3    H223852   3.335   0.837  15.391 -0.6148 -0.0124  0.2129
  813TIP3   OH223853   4.887   1.448  11.243  0.1425 -0.1368  0.2898
  813TIP3    H123854   4.933   1.497  11.175  2.0762 -0.6947  1.1289
  813TIP3    H223855   4.858   1.368  11.200  2.5575 -1.1283  0.3787
  814TIP3   OH223856   0.591   6.696   6.110 -0.2608 -0.1245 -1.0171
  814TIP3    H123857   0.552   6.622   6.157 -1.9505  1.5241  0.2952
  814TIP3    H223858   0.679   6.665   6.086  0.6206 -1.2151  2.9703
  815TIP3   OH223859   0.346   5.326  13.974 -0.4545 -0.3997 -0.6924
  815TIP3    H123860   0.293   5.253  14.005  0.6137 -1.8153 -2.0151
  815TIP3    H223861   0.382   5.366  14.054  0.5969 -2.6321  0.0141
  816TIP3   OH223862   2.455   0.463   5.143 -0.1138 -0.1279  0.4226
  816TIP3    H123863   2.548   0.439   5.142  0.5536  2.1297 -2.0233
  816TIP3    H223864   2.451   0.540   5.201 -0.3409  0.1402  0.0564
  817TIP3   OH223865   4.409   2.313   3.349 -0.7286  0.1469 -0.2314
  817TIP3    H123866   4.326   2.357   3.332 -0.3525  1.2906  0.8189
  817TIP3    H223867   4.407   2.292   3.442  1.2240  2.5907  0.4591
  818TIP3   OH223868   0.453   3.502  15.177 -0.8654  0.0892 -0.3457
  818TIP3    H123869   0.452   3.419  15.130 -0.6333  0.6032 -1.2953
  818TIP3    H223870   0.473   3.479  15.267  0.7831 -0.7647 -0.8873
  819TIP3   OH223871   4.209   0.559  13.148 -0.2182  0.2997  0.6277
  819TIP3    H123872   4.213   0.512  13.231  1.9458 -0.1227  0.3363
  819TIP3    H223873   4.201   0.491  13.082  0.2015  0.5010  0.3665
  820TIP3   OH223874   3.577   5.143   0.403  0.4094  0.2664  0.2023
  820TIP3    H123875   3.502   5.192   0.437 -0.3432 -0.7125  0.0231
  820TIP3    H223876   3.603   5.189   0.323 -0.7671 -0.0457 -0.3775
  821TIP3   OH223877   0.162   5.873  14.476  0.3632 -0.1558  0.2056
  821TIP3    H123878   0.167   5.778  14.467 -0.0334 -0.1952  0.3705
  821TIP3    H223879   0.073   5.890  14.509 -0.7939  0.5182 -2.8980
  822TIP3   OH223880   3.625   6.023   3.570  0.7860  0.3349 -0.1650
  822TIP3    H123881   3.539   6.040   3.609  0.7303 -0.9469  0.3001
  822TIP3    H223882   3.612   6.038   3.477 -0.4773 -1.7310 -0.3711
  823TIP3   OH223883   6.765   4.282   3.731 -0.0599  0.0151  0.3628
  823TIP3    H123884   6.837   4.219   3.730 -0.4801 -0.4888  0.9611
  823TIP3    H223885   6.746   4.296   3.824 -0.9997 -0.1740  0.2166
  824TIP3   OH223886   4.455   0.377  14.719  0.2662  0.2877 -0.1739
  824TIP3    H123887   4.518   0.416  14.657  1.0252  0.6530  0.8059
  824TIP3    H223888   4.502   0.372  14.802 -0.8110  0.0078  0.4435
  825TIP3   OH223889   2.931   6.293   5.701  0.3790  0.4743  0.4686
  825TIP3    H123890   2.942   6.337   5.785 -1.5477  0.1826  0.9422
  825TIP3    H223891   2.918   6.201   5.724  0.6391  0.2621 -0.2142
  826TIP3   OH223892   1.856   0.672   4.495  0.3589 -0.4446  0.1343
  826TIP3    H123893   1.790   0.604   4.510  0.4559 -0.1463  2.2419
  826TIP3    H223894   1.809   0.739   4.445 -1.2902  0.1410  2.2928
  827TIP3   OH223895   0.732   6.697  16.529  0.2286 -0.1099  0.5255
  827TIP3    H123896   0.715   6.791  16.534 -1.6569 -0.4077  0.4929
  827TIP3    H223897   0.743   6.679  16.436  0.8243  0.1057  0.5522
  828TIP3   OH223898   6.237   4.017   5.769 -0.1083  0.4788  0.1162
  828TIP3    H123899   6.268   4.097   5.727 -2.0983  0.6253 -1.1856
  828TIP3    H223900   6.178   4.047   5.838  0.0034  0.1627  0.3514
  829TIP3   OH223901   6.641   2.675   3.265  0.5722  0.5640  0.3683
  829TIP3    H123902   6.587   2.661   3.343 -0.2401  1.3240 -0.0432
  829TIP3    H223903   6.731   2.667   3.297  0.2702  1.3144  1.4945
  830TIP3   OH223904   2.133   4.898   0.450 -0.4729 -0.5374 -0.0460
  830TIP3    H123905   2.045   4.915   0.418 -0.2254  0.0990 -0.4017
  830TIP3    H223906   2.169   4.984   0.469 -0.0757 -0.8181  0.5107
  831TIP3   OH223907   6.374   6.781   4.502  0.5107 -1.1321 -0.4252
  831TIP3    H123908   6.411   6.817   4.583 -1.2335  0.5712 -0.3256
  831TIP3    H223909   6.318   6.850   4.468 -0.6409 -2.6923 -1.8741
  832TIP3   OH223910   3.219   0.723   0.433 -0.1339 -0.0164  0.6987
  832TIP3    H123911   3.238   0.778   0.358 -0.3712 -0.1619  0.5321
  832TIP3    H223912   3.166   0.651   0.398  1.6445 -1.3302  0.5639
  833TIP3   OH223913   1.737   2.599  16.211  0.0612  0.0518 -0.5005
  833TIP3    H123914   1.723   2.663  16.281  2.0309 -1.2280  1.2170
  833TIP3    H223915   1.785   2.647  16.144 -1.1649  1.1103 -0.6573
  834TIP3   OH223916   6.073   5.668   2.135 -0.4159  0.1696  0.0756
  834TIP3    H123917   6.075   5.679   2.040  0.8240  0.4087  0.1065
  834TIP3    H223918   6.023   5.588   2.149 -0.7497  0.2209 -0.7628
  835TIP3   OH223919   1.380   6.445  12.432 -0.5211  0.0866 -0.1433
  835TIP3    H123920   1.340   6.517  12.482 -1.2225 -0.0732 -0.4631
  835TIP3    H223921   1.394   6.375  12.496 -0.0405  0.4162  0.1245
  836TIP3   OH223922   0.507   5.729   2.428  0.1973 -0.0499  0.3594
  836TIP3    H123923   0.544   5.765   2.509 -0.5909 -3.2716  2.3511
  836TIP3    H223924   0.570   5.663   2.400 -0.8925 -0.9848  0.0296
  837TIP3   OH223925   0.903   3.766  13.867 -0.7284 -0.3069  0.0544
  837TIP3    H123926   0.995   3.788  13.879 -0.0451 -2.0731 -1.4692
  837TIP3    H223927   0.868   3.836  13.812  0.3596 -0.8508 -1.3846
  838TIP3   OH223928   5.398   3.815   5.200  0.1646 -0.1228  0.0639
  838TIP3    H123929   5.331   3.818   5.268  0.3212 -0.1436  0.2220
  838TIP3    H223930   5.444   3.898   5.209 -0.8320  0.5723 -1.0735
  839TIP3   OH223931   6.045   2.428   0.831  0.0606 -0.3676  0.3210
  839TIP3    H123932   6.073   2.470   0.913  0.6532  0.9017 -0.4937
  839TIP3    H223933   6.030   2.337   0.855 -2.9260  0.5555  2.5976
  840TIP3   OH223934   0.901   3.015   5.070  0.1482 -0.1986  0.2913
  840TIP3    H123935   0.908   2.972   4.985 -0.3207 -0.3957  0.3558
  840TIP3    H223936   0.868   3.103   5.049  1.3683  0.2476  0.1305
  841TIP3   OH223937   0.547   0.807  17.148 -0.7996  0.1272  0.0385
  841TIP3    H123938   0.461   0.801  17.189 -1.2347  0.5011 -0.7804
  841TIP3    H223939   0.568   0.900  17.150  1.1393 -0.2253  3.2307
  842TIP3   OH223940   5.316   0.368  11.876 -0.0038  0.1442  0.3608
  842TIP3    H123941   5.341   0.387  11.785  0.5412  1.1377  0.7087
  842TIP3    H223942   5.297   0.454  11.914  1.1126 -0.1266  1.5759
  843TIP3   OH223943   2.413   0.967  13.953 -0.4717  0.2418 -0.5218
  843TIP3    H123944   2.484   1.016  13.995 -1.8493  0.9182  1.1253
  843TIP3    H223945   2.377   0.912  14.023 -0.7819 -1.0610 -1.6471
  844TIP3   OH223946   0.102   2.329  12.473 -0.1640 -0.3036  0.1257
  844TIP3    H123947   0.065   2.241  12.471 -2.3008  0.5429 -2.0700
  844TIP3    H223948   0.174   2.327  12.410  1.1903 -0.9589  1.6231
  845TIP3   OH223949   0.200   4.430   3.536  0.4080 -0.5692 -0.6904
  845TIP3    H123950   0.219   4.420   3.443 -1.7129  0.7081 -1.3427
  845TIP3    H223951   0.161   4.346   3.562 -2.7524  0.3283 -2.0772
  846TIP3   OH223952   4.253   4.210   6.242 -0.4469  0.0276  0.3858
  846TIP3    H123953   4.166   4.242   6.264 -1.0085 -1.4098  0.3964
  846TIP3    H223954   4.256   4.122   6.279 -0.5195 -1.5500 -2.9465
  847TIP3   OH223955   5.766   3.193  13.659 -0.0812  0.3104 -0.3444
  847TIP3    H123956   5.800   3.282  13.673  1.5290 -0.2340 -0.5923
  847TIP3    H223957   5.784   3.175  13.566  0.5732 -0.6405 -0.0505
  848TIP3   OH223958   2.023   1.242  14.384 -0.2772 -0.0185 -0.1626
  848TIP3    H123959   1.955   1.301  14.352 -0.5000  0.1578  0.5958
  848TIP3    H223960   2.053   1.283  14.465  0.5943 -0.2010 -0.3858
  849TIP3   OH223961   0.372   0.863   3.750  0.3689  0.1913 -0.4775
  849TIP3    H123962   0.318   0.842   3.673 -0.0481  0.1115 -0.1655
  849TIP3    H223963   0.377   0.959   3.750  0.4433  0.1885 -0.6525
  850TIP3   OH223964   1.177   0.777  16.868  1.1517  0.0379  0.3463
  850TIP3    H123965   1.170   0.862  16.911 -0.5829  0.0815  0.0480
  850TIP3    H223966   1.262   0.778  16.826  1.3162  1.4715  0.6703
  851TIP3   OH223967   0.202   6.053   1.398  0.1022  0.0672  0.2786
  851TIP3    H123968   0.258   6.000   1.342  0.3663  0.6267  0.0021
  851TIP3    H223969   0.215   6.018   1.486 -2.8246 -3.0727 -0.3252
  852TIP3   OH223970   1.293   6.628   6.122  0.4629 -0.1626 -0.5012
  852TIP3    H123971   1.308   6.537   6.097  0.2325  0.1189 -1.7544
  852TIP3    H223972   1.264   6.624   6.213 -1.9591 -1.5798 -1.2231
  853TIP3   OH223973   4.962   6.017   4.714 -0.5113  0.2108  0.8866
  853TIP3    H123974   5.031   6.084   4.714 -0.0777 -0.2266  0.1859
  853TIP3    H223975   5.007   5.936   4.690 -1.6936  0.3634 -2.2453
  854TIP3   OH223976   1.539   1.033  14.232 -0.0808  0.3284  0.3996
  854TIP3    H123977   1.624   1.039  14.276  0.0669 -2.6556  0.6716
  854TIP3    H223978   1.489   0.970  14.284 -2.2292  1.4402 -0.1900
  855TIP3   OH223979   2.747   1.291   5.783 -0.2202  0.0118 -0.0896
  855TIP3    H123980   2.726   1.297   5.876 -0.5079  0.5770 -0.1842
  855TIP3    H223981   2.840   1.310   5.778  0.0198 -1.0148  0.1791
  856TIP3   OH223982   1.375   1.442  13.081  0.2674 -0.2328 -0.0381
  856TIP3    H123983   1.361   1.457  13.174  0.2699 -1.2586  0.1328
  856TIP3    H223984   1.440   1.373  13.076  0.9128  0.4100 -0.8163
  857TIP3   OH223985   1.523   6.383   1.420 -0.8183 -0.4688  0.1947
  857TIP3    H123986   1.558   6.324   1.488 -0.1513 -1.7504 -1.2011
  857TIP3    H223987   1.432   6.354   1.409 -0.9243 -0.2674  0.5215
  858TIP3   OH223988   0.362   5.609   3.783  0.0283 -0.2594  0.0292
  858TIP3    H123989   0.397   5.592   3.696 -1.2453  0.8085 -0.7296
  858TIP3    H223990   0.411   5.684   3.815 -1.2586  1.0303 -0.8989
  859TIP3   OH223991   1.745   3.635   1.371 -0.0088  0.3276  0.3805
  859TIP3    H123992   1.826   3.677   1.341 -0.2040  1.1757  0.9997
  859TIP3    H223993   1.759   3.619   1.464  0.0958 -1.1036  0.1350
  860TIP3   OH223994   0.772   0.268   1.073  0.2638 -0.0250 -0.0023
  860TIP3    H123995   0.803   0.353   1.044  1.1046  0.2294  1.5518
  860TIP3    H223996   0.720   0.235   0.999  1.4908  0.9849 -1.3688
  861TIP3   OH223997   4.178   2.460  16.009 -0.1702  0.5724 -0.2412
  861TIP3    H123998   4.091   2.479  16.046 -0.6354  0.0723 -1.0482
  861TIP3    H223999   4.160   2.428  15.921  0.9364  1.8828 -0.9802
  862TIP3   OH224000   0.669   0.209  17.229 -0.0242  0.1666 -0.1942
  862TIP3    H124001   0.574   0.201  17.217  0.1012  0.0683 -1.2385
  862TIP3    H224002   0.680   0.279  17.293 -0.7672  1.2491 -1.2196
  863TIP3   OH224003   1.994   5.465   1.717 -0.8577 -0.0943  0.1320
  863TIP3    H124004   1.948   5.381   1.721 -0.2335 -0.5660 -1.5372
  863TIP3    H224005   1.936   5.522   1.668 -0.3701 -0.2169 -0.6054
  864TIP3   OH224006   1.328   6.753  16.168 -0.0455  0.2253 -0.2682
  864TIP3    H124007   1.256   6.760  16.231 -0.1647 -0.1688 -0.3609
  864TIP3    H224008   1.405   6.781  16.217  0.0388 -1.0415  0.3619
  865TIP3   OH224009   6.642   2.862   5.181  0.6339 -0.3072 -0.2932
  865TIP3    H124010   6.591   2.797   5.230 -0.4728  0.3693 -0.5035
  865TIP3    H224011   6.656   2.933   5.243  0.3578 -0.0153 -0.5614
  866TIP3   OH224012   5.057   2.362   3.557  0.2761  0.3143  0.8298
  866TIP3    H124013   5.135   2.306   3.557  0.8409  1.0864  0.3504
  866TIP3    H224014   5.089   2.448   3.584 -0.4258  0.6295  0.6810
  867TIP3   OH224015   2.629   0.409   0.883 -0.1667 -0.0636 -0.1262
  867TIP3    H124016   2.638   0.461   0.963  0.0396 -0.0375 -0.1652
  867TIP3    H224017   2.576   0.463   0.825 -1.8218 -0.8040  0.6216
  868TIP3   OH224018   0.539   4.432   6.995  0.4385 -0.1338 -0.6653
  868TIP3    H124019   0.457   4.385   6.983  0.4268  0.2531 -2.3201
  868TIP3    H224020   0.607   4.365   6.981  0.4125 -0.1246 -0.8333
  869TIP3   OH224021   6.320   5.315   3.546  0.5653 -0.0409 -0.0818
  869TIP3    H124022   6.413   5.298   3.562  0.4752  0.2139  0.7152
  869TIP3    H224023   6.274   5.258   3.608  0.2299  1.8459  1.4962
  870TIP3   OH224024   5.454   2.747  14.630  0.3808  0.0081 -0.1114
  870TIP3    H124025   5.535   2.790  14.600  0.2693  0.6270  0.4493
  870TIP3    H224026   5.390   2.766  14.562  0.6741 -0.3958 -0.5088
  871TIP3   OH224027   2.095   2.581  16.875 -0.1168  0.1743  0.6693
  871TIP3    H124028   2.054   2.553  16.957  0.3560  1.0497  1.2235
  871TIP3    H224029   2.178   2.535  16.872 -0.1784  0.0656  0.6340
  872TIP3   OH224030   5.941   0.006   5.175  0.1225 -0.0574 -0.4831
  872TIP3    H124031   5.875  -0.056   5.205  0.0825 -0.7347 -1.9028
  872TIP3    H224032   5.945  -0.007   5.081 -0.2945  2.4798 -0.9308
  873TIP3   OH224033   1.960   2.400   3.497 -0.4770 -0.4742 -0.0058
  873TIP3    H124034   1.933   2.436   3.413 -0.9972 -1.4506 -0.2776
  873TIP3    H224035   2.047   2.437   3.512  0.8588 -2.3806 -2.3352
  874TIP3   OH224036   0.112   3.089   3.500  0.0165  0.2398  0.2720
  874TIP3    H124037   0.162   3.170   3.486 -1.1935  1.3101  1.7109
  874TIP3    H224038   0.079   3.097   3.590 -2.6500 -0.4033 -0.5616
  875TIP3   OH224039   2.369   3.152  14.732 -0.1704  0.0924  0.0778
  875TIP3    H124040   2.457   3.170  14.767  0.1616 -0.3957 -0.4776
  875TIP3    H224041   2.384   3.085  14.665 -0.9559  0.1020 -0.1103
  876TIP3   OH224042   2.784   6.656  13.532 -0.0004  0.4277  0.1569
  876TIP3    H124043   2.801   6.748  13.554 -0.4803  0.2982  1.1268
  876TIP3    H224044   2.692   6.654  13.508  0.5112  0.5722 -2.0438
  877TIP3   OH224045   3.336   6.576  15.304 -0.2884 -0.0016  0.4183
  877TIP3    H124046   3.399   6.616  15.244  1.2355  0.1634  2.0412
  877TIP3    H224047   3.251   6.594  15.264  0.6312  0.4072 -1.4815
  878TIP3   OH224048   0.732   5.822   4.658  0.0199 -0.2877 -0.3467
  878TIP3    H124049   0.716   5.864   4.573  0.9706  0.4133 -0.1912
  878TIP3    H224050   0.709   5.730   4.643 -0.7767  0.0101 -1.0777
  879TIP3   OH224051   5.820   3.919   3.720  0.1066 -0.9740 -0.1135
  879TIP3    H124052   5.853   3.875   3.642  1.0767 -0.8968  0.2474
  879TIP3    H224053   5.862   3.873   3.793  0.6218  0.1137  0.2918
  880TIP3   OH224054   3.507   0.097   4.940 -0.4172  0.4435  0.0261
  880TIP3    H124055   3.476   0.101   5.030 -0.9449  2.9928 -0.1926
  880TIP3    H224056   3.551   0.181   4.926 -2.5823  1.2499 -2.8212
  881TIP3   OH224057   2.886   3.482  12.339  0.1633  0.0998 -0.2565
  881TIP3    H124058   2.891   3.577  12.325  0.6149  0.0648 -0.3569
  881TIP3    H224059   2.975   3.451  12.324 -0.1404 -0.4449 -0.9671
  882TIP3   OH224060   1.973   6.186   4.568  0.1080 -0.1888  0.1595
  882TIP3    H124061   1.879   6.190   4.550 -0.0190 -0.2106  0.8092
  882TIP3    H224062   1.980   6.140   4.652  0.7149 -0.4373 -0.0162
  883TIP3   OH224063   4.191   5.351   2.257 -0.0611 -0.5917  0.0368
  883TIP3    H124064   4.133   5.331   2.330 -0.2373 -0.1943  0.0111
  883TIP3    H224065   4.147   5.421   2.209 -0.0481 -0.9958 -0.5783
  884TIP3   OH224066   6.593   3.501  13.817 -0.8931 -0.0631 -0.3041
  884TIP3    H124067   6.574   3.465  13.904  0.7202  0.2719  0.2088
  884TIP3    H224068   6.585   3.596  13.828  0.4058  0.0537 -0.2137
  885TIP3   OH224069   5.413   1.152  14.485 -0.4612  0.4789  0.5880
  885TIP3    H124070   5.370   1.089  14.543 -0.4843  0.6631  0.7730
  885TIP3    H224071   5.345   1.179  14.423 -0.3243 -0.0399  0.2041
  886TIP3   OH224072   0.067   5.970   1.057  0.1857  0.2252  0.0236
  886TIP3    H124073   0.139   5.921   1.099  1.7624  1.3103 -1.2780
  886TIP3    H224074   0.034   6.027   1.127 -1.0604 -1.9262  1.2970
  887TIP3   OH224075   1.741   3.185  15.388 -0.4637 -0.1385 -0.3320
  887TIP3    H124076   1.739   3.249  15.459  0.7699  0.2614 -0.6400
  887TIP3    H224077   1.729   3.100  15.431 -2.2623  0.2772  0.0684
  888TIP3   OH224078   0.853   2.147   5.252 -0.0958  0.4131 -0.4649
  888TIP3    H124079   0.779   2.099   5.214 -0.5612  1.1317 -0.4951
  888TIP3    H224080   0.840   2.141   5.346  0.0663  0.1415 -0.4606
  889TIP3   OH224081   0.676   4.845  15.049  0.0201 -0.2617 -0.6203
  889TIP3    H124082   0.761   4.874  15.016  0.0646  1.0888  0.6039
  889TIP3    H224083   0.667   4.755  15.016  1.6271 -0.2136 -1.2795
  890TIP3   OH224084   4.938   5.389  14.443 -0.2126 -0.1784  0.4184
  890TIP3    H124085   4.886   5.429  14.512 -0.5154  0.7348 -0.3150
  890TIP3    H224086   4.876   5.332  14.397 -0.8341  1.5094 -0.9482
  891TIP3   OH224087   4.920   6.615   5.273 -0.4301 -0.4490  0.1118
  891TIP3    H124088   4.880   6.702   5.272 -1.7758 -1.0303  0.6747
  891TIP3    H224089   4.901   6.580   5.186 -1.6185 -0.9088  0.5394
  892TIP3   OH224090   2.595   5.180  12.676 -0.1778 -0.4534  0.0922
  892TIP3    H124091   2.554   5.163  12.761 -0.2868 -1.1058 -0.0892
  892TIP3    H224092   2.684   5.210  12.698 -0.0839 -0.9674  0.4236
  893TIP3   OH224093   0.394   6.105  11.299 -0.3858  0.1771  0.5203
  893TIP3    H124094   0.473   6.139  11.257 -0.0886 -0.9127  0.1608
  893TIP3    H224095   0.361   6.040  11.238 -1.3895  0.3785  0.8247
  894TIP3   OH224096   6.680   6.286  13.080 -0.0235 -0.0833  0.6408
  894TIP3    H124097   6.710   6.373  13.051  0.4517 -1.3705 -3.2993
  894TIP3    H224098   6.590   6.281  13.049  0.0250 -1.0742  0.6529
  895TIP3   OH224099   5.335   0.630  16.855 -0.0067 -0.1679  0.0721
  895TIP3    H124100   5.376   0.583  16.781  0.8572  1.1770 -0.3515
  895TIP3    H224101   5.327   0.564  16.924 -0.3166 -1.3251 -1.0282
  896TIP3   OH224102   0.681   0.954   5.076  0.7513  0.0913  0.4746
  896TIP3    H124103   0.758   0.898   5.065  1.2714  0.5710  1.5448
  896TIP3    H224104   0.718   1.042   5.088  0.0291  0.3500  0.8395
  897TIP3   OH224105   5.476   5.458   6.236 -0.5174  0.0258  0.4184
  897TIP3    H124106   5.396   5.405   6.234  0.1093 -0.9807  0.8416
  897TIP3    H224107   5.480   5.498   6.149 -0.9948 -0.6646  0.0619
  898TIP3   OH224108   4.767   5.064   5.781 -0.3666 -0.6763  0.0613
  898TIP3    H124109   4.845   5.045   5.834  0.1586 -0.9190 -0.7741
  898TIP3    H224110   4.768   5.159   5.770  1.3111 -0.8827 -2.1214
  899TIP3   OH224111   4.691   4.943  12.610  0.1321  0.3504  0.6075
  899TIP3    H124112   4.721   4.993  12.534 -1.5577 -0.7390 -0.8620
  899TIP3    H224113   4.712   4.852  12.588 -1.7690 -0.1438  0.6922
  900TIP3   OH224114   4.000   0.670   5.142 -0.3280 -0.4553  0.0296
  900TIP3    H124115   3.918   0.717   5.159  0.7209  1.0171  1.2849
  900TIP3    H224116   4.025   0.697   5.054 -0.1448  0.7761  0.4379
  901TIP3   OH224117   1.099   0.480  14.059 -0.0974 -0.5726 -0.5316
  901TIP3    H124118   1.115   0.414  14.127  1.4660  0.1065 -0.2153
  901TIP3    H224119   1.079   0.560  14.107  1.0380 -0.0810 -0.8399
  902TIP3   OH224120   0.956   6.663  11.573  0.3848 -0.4014 -0.5045
  902TIP3    H124121   1.036   6.716  11.568  0.6956 -0.7600  0.4693
  902TIP3    H224122   0.894   6.717  11.621 -0.4943  0.4941 -2.5428
  903TIP3   OH224123   4.595   0.420  14.934 -0.4451 -0.3332  0.4609
  903TIP3    H124124   4.602   0.513  14.951 -1.0328 -0.3221  0.6633
  903TIP3    H224125   4.592   0.380  15.021 -0.9718 -0.4761  0.3789
  904TIP3   OH224126   0.837   1.995   0.487 -0.0063  0.1084  0.5098
  904TIP3    H124127   0.923   2.016   0.451 -0.0993 -0.4122 -0.0298
  904TIP3    H224128   0.797   1.937   0.422 -1.0555  0.9212  0.4073
  905TIP3   OH224129   2.704   4.003   2.732 -0.1962  0.0999  0.1428
  905TIP3    H124130   2.764   4.008   2.807 -0.1856  0.5696  0.1061
  905TIP3    H224131   2.628   3.956   2.765 -1.2894  2.4731  1.1945
  906TIP3   OH224132   4.424   4.488  14.921  0.4595  0.1624  0.3191
  906TIP3    H124133   4.495   4.476  14.858 -0.5583 -0.1635 -0.8159
  906TIP3    H224134   4.465   4.532  14.995  1.3636  2.4313 -1.3768
  907TIP3   OH224135   0.115   3.653   2.366  0.4024  0.1873 -0.2211
  907TIP3    H124136   0.086   3.702   2.444 -0.7370 -0.5548 -0.1592
  907TIP3    H224137   0.185   3.707   2.329  0.3524  1.0005  0.8140
  908TIP3   OH224138   5.507   6.574  13.379 -0.3183  0.0994  0.2683
  908TIP3    H124139   5.567   6.648  13.372  0.3871 -0.3297  1.4511
  908TIP3    H224140   5.525   6.521  13.301  1.7111 -0.6075  1.1306
  909TIP3   OH224141   4.944   4.477  11.832  0.2934 -0.0361  0.0022
  909TIP3    H124142   4.894   4.397  11.815  0.4420 -0.6224  2.1007
  909TIP3    H224143   4.926   4.498  11.923  1.9972  1.0834  0.1254
  910TIP3   OH224144   5.521   4.679  12.204  0.2433 -0.2248  0.9606
  910TIP3    H124145   5.593   4.739  12.186  2.8938 -3.2404  0.5984
  910TIP3    H224146   5.470   4.677  12.123  2.2080 -1.0430 -0.3269
  911TIP3   OH224147   3.139   4.222  16.816  0.1319 -0.1105  0.0762
  911TIP3    H124148   3.230   4.248  16.828  1.4419 -2.8241 -2.5459
  911TIP3    H224149   3.142   4.152  16.750 -4.0431  0.8720 -1.5303
  912TIP3   OH224150   1.946   1.966   0.770 -1.0923 -0.2722 -0.6984
  912TIP3    H124151   1.976   1.877   0.751  1.0689  0.3215 -0.2556
  912TIP3    H224152   2.007   1.999   0.836 -1.0141  2.0024 -1.8118
  913TIP3   OH224153   3.482   6.354  16.463 -0.5817  0.3539 -0.0815
  913TIP3    H124154   3.428   6.307  16.527 -0.1573 -0.7035 -0.4659
  913TIP3    H224155   3.422   6.373  16.391 -0.4978 -0.7581 -0.4779
  914TIP3   OH224156   5.576   1.627  16.588  0.0316  0.2833  0.1370
  914TIP3    H124157   5.579   1.619  16.684 -0.8274  0.5298  0.1961
  914TIP3    H224158   5.641   1.693  16.567  0.0245  0.4335  0.5800
  915TIP3   OH224159   0.583   5.995  12.536 -0.4171 -0.5304 -0.3142
  915TIP3    H124160   0.531   5.995  12.617 -1.2770 -0.0604 -0.8450
  915TIP3    H224161   0.674   6.000  12.566 -0.7622  0.7757  0.6171
  916TIP3   OH224162   1.328   1.990   2.521 -0.0511  0.0654 -0.2254
  916TIP3    H124163   1.354   2.071   2.478 -0.5473  0.3256 -0.0467
  916TIP3    H224164   1.347   2.004   2.614  3.2343 -1.3516 -0.5422
  917TIP3   OH224165   5.312   2.523  12.491  0.2725 -0.0129 -0.0086
  917TIP3    H124166   5.308   2.597  12.551 -3.4893  0.7200 -0.9463
  917TIP3    H224167   5.255   2.457  12.531  0.3542 -0.7983 -1.1554
  918TIP3   OH224168   0.981   2.697  14.992  0.0685  0.4061 -0.0228
  918TIP3    H124169   0.940   2.614  14.966 -1.7772  1.4058 -0.4950
  918TIP3    H224170   0.932   2.764  14.943  0.6071  1.8845  1.3820
  919TIP3   OH224171   1.973   0.493   6.582 -0.0295  0.2651  0.0455
  919TIP3    H124172   1.952   0.443   6.504 -0.5187  1.5091 -0.6463
  919TIP3    H224173   1.895   0.485   6.637 -1.2551  2.4112 -1.2314
  920TIP3   OH224174   4.003   2.004  12.156 -0.7989  0.2669 -0.3789
  920TIP3    H124175   4.087   2.045  12.176 -0.7390  0.4015 -0.9041
  920TIP3    H224176   3.938   2.073  12.170 -0.8259  0.1618  0.0299
  921TIP3   OH224177   3.077   0.887  14.861  0.1667 -0.1462  0.0117
  921TIP3    H124178   3.069   0.792  14.850  0.9194 -0.0617 -1.6736
  921TIP3    H224179   3.159   0.909  14.816 -1.1982  1.6075 -1.7611
  922TIP3   OH224180   4.044   4.413  13.758 -0.4716  0.0003 -0.3608
  922TIP3    H124181   4.099   4.335  13.760  1.3195  1.1493 -1.9671
  922TIP3    H224182   4.022   4.429  13.850  1.3828 -0.8475  0.2652
  923TIP3   OH224183   0.651   0.237   6.389 -0.3253 -0.5638  0.1092
  923TIP3    H124184   0.710   0.167   6.358 -0.9627 -0.4637 -1.4285
  923TIP3    H224185   0.564   0.198   6.384 -0.5299 -0.2219  0.9434
  924TIP3   OH224186   5.911   0.507   4.721 -0.3374 -0.0556 -0.5110
  924TIP3    H124187   5.879   0.426   4.681 -2.7549  0.6338 -0.1103
  924TIP3    H224188   5.894   0.497   4.814 -0.1563  0.7003 -0.3859
  925TIP3   OH224189   2.019   0.434  12.735  0.4321  0.1741  0.0310
  925TIP3    H124190   2.007   0.528  12.719  2.3273  0.6850  1.2367
  925TIP3    H224191   2.088   0.408  12.674  1.5536  0.1351  1.2711
  926TIP3   OH224192   2.573   4.962   1.818  0.3196  0.1881  0.4002
  926TIP3    H124193   2.599   5.007   1.899 -2.7166 -0.5555  1.9396
  926TIP3    H224194   2.607   5.018   1.748  1.6801  1.7350  2.1673
  927TIP3   OH224195   4.437   6.389   4.035  0.0277 -0.1297 -0.4218
  927TIP3    H124196   4.461   6.443   3.959 -1.8642  0.7068 -0.4810
  927TIP3    H224197   4.372   6.328   4.002 -0.3627 -0.1679  0.3995
  928TIP3   OH224198   3.117   2.833   4.548  0.0329  0.7497  0.4296
  928TIP3    H124199   3.191   2.882   4.512 -0.0021 -0.1367 -0.9216
  928TIP3    H224200   3.082   2.785   4.473  0.2382 -1.5566  1.7380
  929TIP3   OH224201   2.690   3.270  11.945 -0.2246 -0.1303 -0.1755
  929TIP3    H124202   2.730   3.207  11.885  0.4269 -0.7921  0.9185
  929TIP3    H224203   2.761   3.330  11.968 -0.5034  0.1972 -0.1531
  930TIP3   OH224204   5.527   2.551   2.647 -0.1919 -0.3166  0.2335
  930TIP3    H124205   5.559   2.637   2.673 -2.4324  0.4844  0.5452
  930TIP3    H224206   5.602   2.510   2.603  0.6698  2.1045 -0.7320
  931TIP3   OH224207   0.546   4.715  12.314 -0.3649 -0.2592  0.1271
  931TIP3    H124208   0.543   4.703  12.220  0.7174 -2.1073  0.2847
  931TIP3    H224209   0.459   4.688  12.344 -0.5427 -0.1635 -0.2961
  932TIP3   OH224210   5.798   2.994  15.998  0.9935 -0.4023  0.1071
  932TIP3    H124211   5.731   3.061  15.992  0.1148 -1.2632  0.1540
  932TIP3    H224212   5.853   3.009  15.921 -0.5608 -1.0507 -1.1937
  933TIP3   OH224213   3.652   1.949  10.440  0.5664  0.2890  0.2829
  933TIP3    H124214   3.692   1.863  10.449  0.9674  0.4704  0.2556
  933TIP3    H224215   3.653   1.985  10.529  0.2138  0.1834  0.3290
  934TIP3   OH224216   1.950   0.067   0.764 -0.8035 -0.1081 -0.3849
  934TIP3    H124217   1.979   0.060   0.855  0.9599  1.4948 -0.7665
  934TIP3    H224218   1.862   0.105   0.770 -0.5826  0.2840  0.6421
  935TIP3   OH224219   1.031   3.194  15.357  0.0009 -0.2527 -0.0691
  935TIP3    H124220   1.046   3.280  15.396  3.3173 -0.7613  0.0776
  935TIP3    H224221   1.062   3.133  15.424  2.5705 -1.2971 -2.0909
  936TIP3   OH224222   0.186   0.232  14.767 -0.3665 -0.0479 -0.8431
  936TIP3    H124223   0.262   0.191  14.728 -0.3790 -1.2851  0.3632
  936TIP3    H224224   0.132   0.159  14.798 -2.1949  0.7780 -1.9102
  937TIP3   OH224225   2.349   3.205  16.245  0.5512  0.2832  0.0399
  937TIP3    H124226   2.430   3.184  16.292 -0.0774 -1.2051  0.5369
  937TIP3    H224227   2.378   3.238  16.160  1.6896  1.3838  0.8269
  938TIP3   OH224228   0.362   5.764   4.964  0.1391 -0.7562 -0.4487
  938TIP3    H124229   0.431   5.802   4.909 -0.3867  1.3705  0.2529
  938TIP3    H224230   0.399   5.764   5.052 -0.5226 -0.1164 -0.1574
  939TIP3   OH224231   0.487   3.352   5.053  0.5991  0.3590  0.1478
  939TIP3    H124232   0.534   3.300   4.987  0.6599  0.0568  0.4241
  939TIP3    H224233   0.545   3.426   5.071  0.5076  0.5335 -0.2563
  940TIP3   OH224234   3.778   0.527  15.970  0.1469 -0.4485  0.1578
  940TIP3    H124235   3.733   0.475  15.903 -0.1861 -1.2816  1.0021
  940TIP3    H224236   3.811   0.463  16.032  1.4557  0.2370  0.2136
  941TIP3   OH224237   3.977   2.198  16.493  0.3927  0.0700 -0.2348
  941TIP3    H124238   3.941   2.285  16.512 -0.4389 -0.4836  0.8859
  941TIP3    H224239   4.006   2.166  16.578 -1.2086 -1.5550 -0.2313
  942TIP3   OH224240   5.344   3.491  12.258 -0.1597 -0.4468 -0.0764
  942TIP3    H124241   5.415   3.556  12.264  0.2682 -0.8987 -0.1882
  942TIP3    H224242   5.272   3.539  12.218  0.7072 -0.4793 -1.7509
  943TIP3   OH224243   0.777   0.399  11.469  0.2280  0.0880 -0.1344
  943TIP3    H124244   0.724   0.421  11.392  1.2554  0.7466 -0.6836
  943TIP3    H224245   0.735   0.444  11.541 -0.3625  0.0296 -0.4395
  944TIP3   OH224246   1.256   2.616  11.224  0.0976 -0.2447 -0.5473
  944TIP3    H124247   1.179   2.561  11.230  0.6482 -0.9268  0.5433
  944TIP3    H224248   1.242   2.669  11.146 -2.6800  1.4873  0.9767
  945TIP3   OH224249   5.005   2.598  15.040 -0.6538  0.1128 -0.1953
  945TIP3    H124250   4.976   2.579  15.129 -0.3702 -0.0949 -0.1467
  945TIP3    H224251   5.077   2.537  15.024 -1.3076 -0.4997 -0.9020
  946TIP3   OH224252   5.325   5.271  11.823 -0.0665  0.3117 -0.2468
  946TIP3    H124253   5.364   5.352  11.791 -0.6979 -0.1841 -2.4238
  946TIP3    H224254   5.236   5.270  11.787 -0.4313 -0.8691  0.5869
  947TIP3   OH224255   2.749   1.129   0.187  0.1184 -0.0896  0.6969
  947TIP3    H124256   2.678   1.142   0.125  1.0991 -1.6196 -0.8581
  947TIP3    H224257   2.714   1.158   0.271 -2.3908 -0.9067  0.0190
  948TIP3   OH224258   2.413   4.124  15.772 -0.5527 -0.3555 -0.2845
  948TIP3    H124259   2.480   4.165  15.717  0.1108  0.2850  0.9365
  948TIP3    H224260   2.337   4.181  15.765 -1.1619 -1.2842 -1.9757
  949TIP3   OH224261   0.043   2.015  16.951 -1.1658  0.4796 -0.2448
  949TIP3    H124262   0.074   2.105  16.960  0.4404 -0.1611  1.4703
  949TIP3    H224263   0.042   1.999  16.857 -1.4248  2.2551 -0.5780
  950TIP3   OH224264   3.024   1.630  14.746  0.4860  0.3574  0.0229
  950TIP3    H124265   3.008   1.722  14.724  0.8591  0.4452  0.1078
  950TIP3    H224266   2.960   1.581  14.694  0.6196  0.6319 -0.4095
  951TIP3   OH224267   2.884   5.882   4.298 -0.1706  0.3022  0.4609
  951TIP3    H124268   2.811   5.926   4.254  0.0843 -0.9023 -1.2541
  951TIP3    H224269   2.963   5.923   4.261  0.0380  0.2021  0.7913
  952TIP3   OH224270   5.459   0.671  13.940 -0.3548 -0.2112  0.1047
  952TIP3    H124271   5.401   0.606  13.899 -0.2088 -0.1076 -0.2765
  952TIP3    H224272   5.401   0.725  13.993 -0.8647  0.8399 -1.4675
  953TIP3   OH224273   5.448   4.898  10.990 -0.2615 -0.2383 -0.6329
  953TIP3    H124274   5.521   4.853  10.949 -0.1715 -0.2408 -0.4721
  953TIP3    H224275   5.417   4.960  10.925 -0.2196 -0.3512 -0.7609
  954TIP3   OH224276   2.462   3.921   3.876 -1.0195 -0.5491  0.2697
  954TIP3    H124277   2.400   3.994   3.875 -0.9405 -0.4471  1.2970
  954TIP3    H224278   2.417   3.853   3.926 -0.9750 -1.1017 -0.4319
  955TIP3   OH224279   4.899   1.882   0.287 -0.3957 -0.1494 -0.8585
  955TIP3    H124280   4.979   1.880   0.339  0.4996 -0.1783 -2.1724
  955TIP3    H224281   4.880   1.791   0.267 -2.0605 -0.3572  1.2614
  956TIP3   OH224282   5.562   2.379  15.291  0.4099  0.4651 -0.1430
  956TIP3    H124283   5.512   2.304  15.257  0.2254  0.9129 -0.9002
  956TIP3    H224284   5.585   2.354  15.380 -0.5024 -0.0832 -0.0378
  957TIP3   OH224285   6.424   0.180   1.670 -0.6395  0.0779 -0.1617
  957TIP3    H124286   6.463   0.246   1.727 -2.4255  0.0068  1.2218
  957TIP3    H224287   6.344   0.222   1.636 -0.0433 -0.1821 -1.9933
  958TIP3   OH224288   1.664   4.245  16.685  0.1094  0.3142  0.2299
  958TIP3    H124289   1.583   4.295  16.670  0.7691  1.1115 -0.8483
  958TIP3    H224290   1.635   4.165  16.728 -1.5921 -0.5932 -2.3616
  959TIP3   OH224291   4.800   5.865   0.071 -0.0098 -0.5086  0.3873
  959TIP3    H124292   4.737   5.899   0.008  1.9279  0.2391 -1.2530
  959TIP3    H224293   4.829   5.941   0.121  0.1874 -0.7109  0.5869
  960TIP3   OH224294   2.788   0.356   6.623 -0.5177 -0.1847 -0.3205
  960TIP3    H124295   2.872   0.399   6.610 -0.5706  0.1622  0.4847
  960TIP3    H224296   2.768   0.316   6.538 -0.2065  0.9024 -0.9123
  961TIP3   OH224297   3.430   1.973   2.171 -0.0395 -1.0455  0.5813
  961TIP3    H124298   3.500   1.995   2.110 -1.2245  1.2082 -0.0669
  961TIP3    H224299   3.385   1.899   2.130  0.4509 -0.9038 -0.2344
  962TIP3   OH224300   4.074   5.693   2.288 -0.3804 -0.2789 -0.2298
  962TIP3    H124301   4.081   5.788   2.286 -2.3780 -0.0858  0.1957
  962TIP3    H224302   4.098   5.668   2.378  0.5743 -0.2510 -0.4618
  963TIP3   OH224303   5.977   0.040  11.287 -0.2463 -0.1170  0.8135
  963TIP3    H124304   6.024   0.039  11.203  0.0310  1.5390  0.9200
  963TIP3    H224305   5.894   0.084  11.267 -0.1624  0.3222  1.3980
  964TIP3   OH224306   3.643   6.491   0.908  0.2420  0.1070 -0.8746
  964TIP3    H124307   3.653   6.574   0.862  1.0289  0.6962  0.2813
  964TIP3    H224308   3.730   6.451   0.903  0.6706  0.6970  0.9715
  965TIP3   OH224309   3.766   5.828   0.444  0.2605 -0.5638 -0.2007
  965TIP3    H124310   3.816   5.797   0.369  0.5410 -2.9402  0.8884
  965TIP3    H224311   3.831   5.869   0.501  0.1984  0.3652 -0.7737
  966TIP3   OH224312   0.106   5.481  16.404 -0.5246  0.2511  0.2831
  966TIP3    H124313   0.168   5.463  16.334  1.5801  1.2784  1.7907
  966TIP3    H224314   0.100   5.398  16.452 -1.1705 -0.1505 -0.4642
  967TIP3   OH224315   0.048   2.928  15.388  0.2901  0.4199  1.1995
  967TIP3    H124316   0.134   2.970  15.391  0.8592 -0.6332  0.5892
  967TIP3    H224317  -0.013   2.998  15.367  0.9618  1.2334  1.8978
  968TIP3   OH224318   3.229   6.015  12.952 -0.0701 -0.0936  0.0216
  968TIP3    H124319   3.151   6.043  12.904 -1.0990  0.6603  2.0106
  968TIP3    H224320   3.195   5.971  13.030  1.4917  0.1660  0.8940
  969TIP3   OH224321   4.337   0.551  14.266 -0.3086 -0.2976 -0.2923
  969TIP3    H124322   4.292   0.470  14.291  0.6448 -1.0407 -0.8995
  969TIP3    H224323   4.426   0.523  14.244  0.8852  1.2589  2.0481
  970TIP3   OH224324   1.525   4.362  12.059 -0.1749 -0.0369  0.1935
  970TIP3    H124325   1.586   4.330  11.993  0.1584  1.8014 -0.4519
  970TIP3    H224326   1.569   4.438  12.098 -1.5142  0.5482  0.6138
  971TIP3   OH224327   0.737   4.139  16.525  0.7829  0.0579  0.3780
  971TIP3    H124328   0.721   4.233  16.528  0.7713  0.0682  0.0264
  971TIP3    H224329   0.717   4.114  16.435 -0.8683 -0.5936  0.9063
  972TIP3   OH224330   5.339   3.617  17.228  0.1122 -0.2555 -0.0468
  972TIP3    H124331   5.414   3.595  17.283  0.8455 -0.0419 -0.9199
  972TIP3    H224332   5.366   3.590  17.140 -0.9595 -0.4379 -0.3362
  973TIP3   OH224333   3.245   0.196   4.765  0.5027 -0.8270  0.6858
  973TIP3    H124334   3.301   0.150   4.827 -0.4426 -0.4702  1.8295
  973TIP3    H224335   3.163   0.212   4.812  0.0736  0.2438 -0.3485
  974TIP3   OH224336   3.899   0.153   1.787 -0.3027 -0.1268 -0.2679
  974TIP3    H124337   3.805   0.153   1.773 -0.3521  0.8570 -0.0055
  974TIP3    H224338   3.918   0.066   1.824 -1.4535  0.4579  1.8766
  975TIP3   OH224339   0.972   6.125   4.826  0.0695 -0.1197  0.5110
  975TIP3    H124340   1.002   6.112   4.735 -1.2707 -1.8306  0.2662
  975TIP3    H224341   1.036   6.076   4.879 -0.8816 -1.8250  0.1765
  976TIP3   OH224342   0.537   6.746  10.988 -0.0153 -0.4124 -0.1268
  976TIP3    H124343   0.450   6.780  10.970 -0.4558 -1.7113 -0.6046
  976TIP3    H224344   0.570   6.717  10.903  1.1180  0.5427 -0.0433
  977TIP3   OH224345   6.207   4.610  16.816  0.8906  0.0628 -0.0879
  977TIP3    H124346   6.244   4.523  16.830  0.0223 -0.7235 -2.2502
  977TIP3    H224347   6.237   4.635  16.728 -1.2088  0.6561 -0.7023
  978TIP3   OH224348   2.134   3.715  15.871  0.3332  0.2254 -0.0685
  978TIP3    H124349   2.198   3.784  15.854 -0.7802  0.9520 -1.4991
  978TIP3    H224350   2.179   3.634  15.845  0.1974  0.8779 -2.6033
  979TIP3   OH224351   4.798   2.322  16.370  0.2023 -0.1984 -0.4403
  979TIP3    H124352   4.885   2.362  16.378  0.0827  0.2572 -1.2243
  979TIP3    H224353   4.807   2.260  16.298 -0.3650  0.5990 -1.2271
  980TIP3   OH224354   2.155   5.019   0.136  0.0204 -0.0248  0.1119
  980TIP3    H124355   2.182   4.944   0.188  0.9760  0.6024  0.5542
  980TIP3    H224356   2.073   4.992   0.094 -0.3359 -0.8378  1.2899
  981TIP3   OH224357   3.598   3.437  13.946 -0.4189 -0.5646 -0.8860
  981TIP3    H124358   3.532   3.471  13.886  0.5621  0.8644 -1.2157
  981TIP3    H224359   3.678   3.484  13.922 -0.3586  1.4552  2.6559
  982TIP3   OH224360   0.245   4.652   1.863  0.6942 -0.1500 -0.7434
  982TIP3    H124361   0.176   4.710   1.897  1.3789 -0.6934  1.7887
  982TIP3    H224362   0.230   4.649   1.769 -0.2599  2.9759 -0.7989
  983TIP3   OH224363   6.158   4.366   2.515 -0.0114 -0.4861 -0.2912
  983TIP3    H124364   6.115   4.388   2.598 -0.2783  1.2779 -0.8468
  983TIP3    H224365   6.131   4.276   2.497  0.7816 -1.2418  1.9594
  984TIP3   OH224366   6.680   0.731   0.258 -0.6084  0.2354  0.2991
  984TIP3    H124367   6.629   0.772   0.328 -0.4573  1.0231 -0.0444
  984TIP3    H224368   6.622   0.663   0.224 -0.3553 -0.7522  1.7479
  985TIP3   OH224369   2.090   0.169   2.034 -0.2349  0.0048  0.5616
  985TIP3    H124370   2.167   0.211   2.071  0.9247 -1.7998  0.2795
  985TIP3    H224371   2.094   0.079   2.066  0.0839 -1.2910 -2.7746
  986TIP3   OH224372   6.335   5.698   0.283  0.2562  0.6153  0.0621
  986TIP3    H124373   6.264   5.637   0.299  0.2088  0.3909 -0.9555
  986TIP3    H224374   6.323   5.727   0.192  1.0600  1.0879  0.0917
  987TIP3   OH224375   4.666   2.600   3.199  0.1195 -0.0407  0.0790
  987TIP3    H124376   4.660   2.583   3.293 -1.4293  0.9827  0.2105
  987TIP3    H224377   4.758   2.621   3.184  0.4707 -0.6165  1.2798
  988TIP3   OH224378   5.397   2.204   4.274 -0.0009  0.3041 -0.9957
  988TIP3    H124379   5.423   2.242   4.191 -1.8311  1.1864 -1.2079
  988TIP3    H224380   5.323   2.257   4.303  2.5296  2.2246  2.8696
  989TIP3   OH224381   2.265   6.435   4.529 -0.4869 -0.7702  0.9631
  989TIP3    H124382   2.273   6.360   4.588  1.1405 -2.1912 -0.9049
  989TIP3    H224383   2.262   6.396   4.441  0.3004  1.3341 -0.0760
  990TIP3   OH224384   1.345   1.889   5.344 -0.2260  0.5983  0.1132
  990TIP3    H124385   1.372   1.923   5.258 -0.9214  0.7940 -0.0389
  990TIP3    H224386   1.358   1.795   5.338  0.2123  0.6686 -0.0319
  991TIP3   OH224387   0.216   0.652  17.012  0.0421 -0.0091  0.3348
  991TIP3    H124388   0.292   0.596  16.993 -0.5837 -0.8167  0.1728
  991TIP3    H224389   0.245   0.706  17.085  0.2689 -1.3798  1.3040
  992TIP3   OH224390   5.395   2.263  13.027  0.1507 -0.3615 -0.1246
  992TIP3    H124391   5.488   2.261  13.049 -0.0856 -0.9501  0.8466
  992TIP3    H224392   5.363   2.176  13.049 -0.6840 -0.0905 -0.2385
  993TIP3   OH224393   0.281   1.324  16.776  0.3040 -0.2157  0.1077
  993TIP3    H124394   0.215   1.320  16.845  0.3588  0.1475  0.1836
  993TIP3    H224395   0.328   1.240  16.783 -1.7714 -1.6160 -1.6057
  994TIP3   OH224396   0.693   3.601   5.777  0.5859 -0.5267  0.1636
  994TIP3    H124397   0.775   3.591   5.826  0.6462 -0.1404  0.1430
  994TIP3    H224398   0.661   3.688   5.802  0.5228 -0.4026 -0.3396
  995TIP3   OH224399   2.041   6.233  14.263  0.1737 -0.1669 -0.1733
  995TIP3    H124400   2.085   6.312  14.233  0.2478 -0.2641 -0.3232
  995TIP3    H224401   2.038   6.176  14.186  0.9760 -0.6919  0.1677
  996TIP3   OH224402   4.256   2.044   1.560  0.0359 -0.2994  0.2441
  996TIP3    H124403   4.326   2.105   1.538 -0.4685  0.6685  1.2626
  996TIP3    H224404   4.276   2.016   1.650 -0.8194 -0.1042  0.4994
  997TIP3   OH224405   6.329   6.510   1.837  0.0467  0.0926  0.5012
  997TIP3    H124406   6.368   6.597   1.844 -1.0711  0.7180 -0.6888
  997TIP3    H224407   6.404   6.450   1.842  1.4467  1.2862 -2.9901
  998TIP3   OH224408   0.943   4.689   2.167  0.1862  1.0136  0.3734
  998TIP3    H124409   0.934   4.784   2.171  1.2185  1.0847  1.4885
  998TIP3    H224410   1.031   4.674   2.133 -0.1261  0.4367 -0.2205
  999TIP3   OH224411   5.064   4.806   5.942  0.1768  0.0922 -0.7478
  999TIP3    H124412   5.066   4.893   5.902  2.0380  1.0501  1.1881
  999TIP3    H224413   4.998   4.758   5.892 -1.9637  3.0282 -1.0142
 1000TIP3   OH224414   1.954   1.892  16.959 -0.4313  0.1750 -0.2843
 1000TIP3    H124415   1.867   1.878  16.922 -1.6192 -0.4699  2.5491
 1000TIP3    H224416   1.944   1.967  17.018  0.3834 -1.1885  1.6686
 1001TIP3   OH224417   4.201   5.689  13.244  0.1951  0.9212 -0.4190
 1001TIP3    H124418   4.208   5.764  13.185 -1.9827 -0.2196 -2.2291
 1001TIP3    H224419   4.204   5.612  13.187 -0.0623 -0.3074  1.1531
 1002TIP3   OH224420   6.101   1.755  11.790  0.4079 -0.2803  0.3674
 1002TIP3    H124421   6.103   1.750  11.885 -2.0655 -1.5884  0.4235
 1002TIP3    H224422   6.175   1.703  11.761  0.0706 -1.4866  1.5854
 1003TIP3   OH224423   5.933   0.054  15.013 -0.0066 -0.1757 -0.3280
 1003TIP3    H124424   5.898  -0.028  15.048 -2.0442  0.2832 -1.1052
 1003TIP3    H224425   5.970   0.029  14.928  0.8237 -0.5290  0.1238
 1004TIP3   OH224426   3.334   5.990  14.409 -0.2117  0.2163 -0.1469
 1004TIP3    H124427   3.273   6.024  14.343  0.6594 -0.3572 -1.3040
 1004TIP3    H224428   3.333   5.895  14.395  0.0932  0.1057  0.5794
 1005TIP3   OH224429   4.297   2.543  17.166 -0.6461  0.3817 -0.0519
 1005TIP3    H124430   4.382   2.524  17.127 -1.1057 -0.7833 -0.5331
 1005TIP3    H224431   4.266   2.622  17.122 -0.7289 -0.3697 -1.3882
 1006TIP3   OH224432   5.063   4.412   3.170 -0.0637  0.4371 -0.1288
 1006TIP3    H124433   5.083   4.353   3.097  3.2232  2.0944 -0.7565
 1006TIP3    H224434   5.044   4.354   3.243 -0.3345 -1.3275 -1.5295
 1007TIP3   OH224435   6.195   2.446   5.393 -0.0341 -0.3060 -0.3335
 1007TIP3    H124436   6.111   2.465   5.351 -0.1977 -0.0001  0.1274
 1007TIP3    H224437   6.186   2.481   5.481 -0.1520 -2.0229  0.3858
 1008TIP3   OH224438   0.031   1.616  11.709 -0.5480 -0.3545  0.5629
 1008TIP3    H124439   0.040   1.706  11.678  0.5018  0.0737  1.9762
 1008TIP3    H224440   0.083   1.564  11.648 -1.0727 -0.0008 -0.2006
 1009TIP3   OH224441   3.044   0.699   1.866  0.6973 -0.2918 -0.1293
 1009TIP3    H124442   3.071   0.677   1.777  0.3336 -2.5114  0.2552
 1009TIP3    H224443   3.127   0.709   1.914  0.9307 -2.1618 -0.0633
 1010TIP3   OH224444   2.730   1.834   5.892 -0.6148  0.0353  0.0326
 1010TIP3    H124445   2.772   1.754   5.923 -0.0996 -0.3614 -1.5950
 1010TIP3    H224446   2.749   1.837   5.798 -1.8414  1.3233 -0.2217
 1011TIP3   OH224447   5.990   5.146   3.309 -0.3867  0.4040 -0.1756
 1011TIP3    H124448   5.975   5.078   3.243  0.2388 -1.0357  1.0937
 1011TIP3    H224449   5.902   5.176   3.332 -0.6306  0.6059 -1.3045
 1012TIP3   OH224450   5.081   0.717   2.578  0.4265 -0.5947  0.2295
 1012TIP3    H124451   5.009   0.771   2.609  2.1578  2.5274 -0.7263
 1012TIP3    H224452   5.045   0.668   2.504 -0.9038  0.3099  0.2497
 1013TIP3   OH224453   4.784   2.333  13.941 -0.3077 -0.1377 -0.4260
 1013TIP3    H124454   4.788   2.348  13.847 -1.7349 -0.0266 -0.4829
 1013TIP3    H224455   4.858   2.383  13.976 -0.3824  0.6743 -1.3842
 1014TIP3   OH224456   3.001   6.079   3.063 -0.0819 -0.5619 -0.5593
 1014TIP3    H124457   3.046   6.152   3.020  0.3163 -0.2637  0.3560
 1014TIP3    H224458   2.942   6.121   3.126  0.5692 -1.0351  0.3836
 1015TIP3   OH224459   0.536   4.691   4.913 -0.1874 -0.0915  0.1806
 1015TIP3    H124460   0.454   4.650   4.941  1.0685 -2.4385  0.6567
 1015TIP3    H224461   0.548   4.660   4.823 -0.1266  0.7988 -0.1285
 1016TIP3   OH224462   1.105   6.124  11.450  0.0421  0.6560 -0.2077
 1016TIP3    H124463   1.182   6.173  11.479 -0.0753  1.0569 -0.5665
 1016TIP3    H224464   1.062   6.097  11.531  1.1505 -0.5380  0.0172
 1017TIP3   OH224465   5.211   3.769  15.328 -0.1472  0.0376  0.5508
 1017TIP3    H124466   5.133   3.716  15.311 -0.0564  0.0919 -0.0646
 1017TIP3    H224467   5.284   3.709  15.315 -0.0896 -0.1570  1.6619
 1018TIP3   OH224468   4.274   4.141  16.675 -0.0561 -0.2204 -0.1848
 1018TIP3    H124469   4.207   4.179  16.619 -0.6403 -1.6431 -0.4986
 1018TIP3    H224470   4.312   4.070  16.623 -0.0108 -1.0099  0.8835
 1019TIP3   OH224471   2.498   2.311   6.837 -0.3730 -0.0564 -0.4265
 1019TIP3    H124472   2.464   2.368   6.768 -0.1736  0.0884 -0.4041
 1019TIP3    H224473   2.587   2.290   6.809 -0.1865  0.2428 -0.0653
 1020TIP3   OH224474   0.686   1.089  16.287 -0.0618  0.7602  0.5681
 1020TIP3    H124475   0.744   1.021  16.255  1.3611  1.7225  1.0181
 1020TIP3    H224476   0.662   1.139  16.209 -0.5857  0.1567  0.3315
 1021TIP3   OH224477   2.149   2.051  12.111 -0.1810 -0.3391  0.5230
 1021TIP3    H124478   2.223   2.073  12.054 -1.3011  0.5027 -0.6641
 1021TIP3    H224479   2.072   2.060  12.055 -1.2652 -0.3896  1.9420
 1022TIP3   OH224480   6.404   3.838   1.398 -0.1410  0.0010  0.4616
 1022TIP3    H124481   6.428   3.772   1.463 -1.8291  0.7606  1.9596
 1022TIP3    H224482   6.482   3.847   1.343  0.6786 -2.0659  1.1887
 1023TIP3   OH224483   4.837   2.566  14.808  0.0644 -0.1484  0.0068
 1023TIP3    H124484   4.894   2.618  14.752 -0.1967  0.9439  0.7147
 1023TIP3    H224485   4.863   2.590  14.897 -2.8941  2.1497  0.4443
 1024TIP3   OH224486   5.832   5.502  16.743  0.1322 -0.0005 -0.0068
 1024TIP3    H124487   5.769   5.472  16.809 -0.1913  2.3269  0.8654
 1024TIP3    H224488   5.796   5.471  16.660 -1.4021  0.0237  0.5994
 1025TIP3   OH224489   1.371   4.881  12.111  0.4285 -0.3210 -0.1199
 1025TIP3    H124490   1.290   4.924  12.141  0.7679  0.7839 -0.7254
 1025TIP3    H224491   1.371   4.797  12.156 -1.1727 -0.4461 -0.2783
 1026TIP3   OH224492   2.443   6.530  11.881 -0.3845 -0.2578  0.0854
 1026TIP3    H124493   2.427   6.610  11.931 -1.6615  0.4235 -1.3338
 1026TIP3    H224494   2.384   6.536  11.806 -1.3015 -3.0327  0.4651
 1027TIP3   OH224495   6.454   1.183   4.126 -0.0617  0.1830 -0.3938
 1027TIP3    H124496   6.513   1.166   4.053  0.0289 -0.4392 -0.1880
 1027TIP3    H224497   6.449   1.278   4.132  0.4101  0.2380 -0.8195
 1028TIP3   OH224498   0.930   0.593  14.773  0.1613 -0.5762  0.2510
 1028TIP3    H124499   0.904   0.549  14.855 -1.0642 -0.0209  0.1839
 1028TIP3    H224500   0.993   0.660  14.801 -0.1534 -0.4724  0.7324
 1029TIP3   OH224501   1.458   4.048  12.672 -0.0030 -0.5220  0.1448
 1029TIP3    H124502   1.496   3.969  12.633  1.6779 -0.5312  1.6338
 1029TIP3    H224503   1.402   4.015  12.743 -0.7327 -0.4238 -0.3831
 1030TIP3   OH224504   3.182   3.381   3.484 -0.0247 -0.3425 -0.3014
 1030TIP3    H124505   3.142   3.322   3.547  1.3952  1.9126  2.9925
 1030TIP3    H224506   3.253   3.331   3.445  0.1627 -1.3112  1.2156
 1031TIP3   OH224507   5.472   3.776  16.994 -0.0362 -0.1194 -0.1174
 1031TIP3    H124508   5.404   3.841  17.009  1.2491  0.8973  1.7779
 1031TIP3    H224509   5.532   3.819  16.933  1.5014  1.1581  2.1228
 1032TIP3   OH224510   5.629   2.941   4.685  0.2982  0.0639  0.6266
 1032TIP3    H124511   5.587   2.937   4.599 -1.2010  1.2499  1.2549
 1032TIP3    H224512   5.558   2.960   4.746  1.6985  1.8506  1.8098
 1033TIP3   OH224513   5.108   6.125   3.278  0.0780  0.0523  0.2466
 1033TIP3    H124514   5.068   6.118   3.192 -0.7132  0.1779  0.5922
 1033TIP3    H224515   5.169   6.052   3.283 -0.5006 -0.4601 -0.1013
 1034TIP3   OH224516   1.195   2.809  15.776  0.1025  0.0859 -0.2059
 1034TIP3    H124517   1.196   2.713  15.777 -0.3753  0.0856  0.6355
 1034TIP3    H224518   1.104   2.832  15.794  0.4913  0.7160  1.0175
 1035TIP3   OH224519   4.966   2.187  15.009  0.3182  0.1694  0.1033
 1035TIP3    H124520   4.975   2.135  14.929 -2.1899  0.9865 -0.8164
 1035TIP3    H224521   4.881   2.161  15.045  0.5341  1.2147  1.4521
 1036TIP3   OH224522   0.057   2.621  14.874  0.6853  0.1203  0.0752
 1036TIP3    H124523  -0.038   2.633  14.878  0.6734  0.2614 -0.5745
 1036TIP3    H224524   0.091   2.683  14.939  0.4244  1.4142 -0.9667
 1037TIP3   OH224525   1.839   3.107  14.506 -0.0126 -0.3935  0.0206
 1037TIP3    H124526   1.850   3.102  14.601  1.2696 -2.8301 -0.2087
 1037TIP3    H224527   1.758   3.059  14.489 -0.5503  0.5215 -0.1217
 1038TIP3   OH224528   3.258   5.852   5.667 -0.2309  0.1224 -0.0212
 1038TIP3    H124529   3.255   5.762   5.634  2.5014 -0.2653  0.5544
 1038TIP3    H224530   3.219   5.904   5.597  1.9796 -1.0932 -2.3423
 1039TIP3   OH224531   6.707   4.800  14.803  0.1845 -0.0431  0.3761
 1039TIP3    H124532   6.798   4.823  14.782  0.0266 -0.1855 -0.5078
 1039TIP3    H224533   6.676   4.872  14.857  0.4587  0.6010 -0.3044
 1040TIP3   OH224534   4.168   2.241   0.097 -0.1723 -0.2633  0.1056
 1040TIP3    H124535   4.074   2.256   0.095 -0.2400 -0.6064  0.6842
 1040TIP3    H224536   4.179   2.152   0.064 -0.0160 -0.0862 -0.3313
 1041TIP3   OH224537   5.294   6.533  15.380  0.2358  0.4567 -0.1236
 1041TIP3    H124538   5.250   6.451  15.360  0.0037  0.4217  0.4953
 1041TIP3    H224539   5.386   6.510  15.388  0.3226  0.4541 -1.0021
 1042TIP3   OH224540   5.049   4.100  12.044  0.0064 -1.1000 -0.6392
 1042TIP3    H124541   5.132   4.071  12.081  0.4621  1.2168  0.3498
 1042TIP3    H224542   5.068   4.115  11.951  1.2199  0.9710 -0.1145
 1043TIP3   OH224543   4.217   2.221  11.191  0.2718  0.1793  0.3359
 1043TIP3    H124544   4.183   2.146  11.239 -0.1329  2.7590  4.6296
 1043TIP3    H224545   4.139   2.272  11.167  0.6447  0.7346  0.2810
 1044TIP3   OH224546   4.619   4.562  13.883  0.1952  0.4495  0.3277
 1044TIP3    H124547   4.578   4.554  13.969 -0.5194  0.9581  0.0443
 1044TIP3    H224548   4.579   4.492  13.831 -0.6314  1.1978 -0.0643
 1045TIP3   OH224549   1.034   3.631   5.635  0.4257  0.0270  0.1684
 1045TIP3    H124550   1.028   3.611   5.729  0.4936 -1.8920 -0.1884
 1045TIP3    H224551   1.114   3.682   5.627  0.7317 -0.2823  1.0948
 1046TIP3   OH224552   3.071   2.090  17.146 -0.6253  0.4410 -0.0230
 1046TIP3    H124553   3.053   2.023  17.080 -0.2148 -0.4364  0.7198
 1046TIP3    H224554   3.056   2.045  17.230  0.0379  1.1571  0.4934
 1047TIP3   OH224555   0.153   2.831  14.271 -0.1924 -0.1542 -0.2003
 1047TIP3    H124556   0.104   2.815  14.352  1.9081 -2.3099  0.7666
 1047TIP3    H224557   0.174   2.924  14.274 -1.2436  0.0755  1.0505
 1048TIP3   OH224558   2.149   4.986   1.564 -0.2172  0.2677 -0.2080
 1048TIP3    H124559   2.238   4.957   1.542 -0.3003  0.7180 -1.2111
 1048TIP3    H224560   2.094   4.943   1.498 -0.8239 -0.4384  0.7367
 1049TIP3   OH224561   1.191   3.077  17.094  0.0912  0.1898 -0.1227
 1049TIP3    H124562   1.182   3.039  17.181 -1.0349  1.4458  0.3406
 1049TIP3    H224563   1.274   3.041  17.060 -0.4367 -1.8715  0.6367
 1050TIP3   OH224564   0.035   4.892   3.380 -0.0026 -0.3327 -0.2073
 1050TIP3    H124565   0.029   4.975   3.334  0.1600 -0.9868 -1.4356
 1050TIP3    H224566   0.030   4.916   3.473  3.5907  1.4429 -0.2747
 1051TIP3   OH224567   3.519   0.748   1.725  0.2904 -1.0137 -0.0546
 1051TIP3    H124568   3.561   0.787   1.649  2.7546  0.3178  1.8619
 1051TIP3    H224569   3.472   0.821   1.766 -1.4038 -1.8187 -0.4740
 1052TIP3   OH224570   1.395   6.138  13.712 -0.2912 -0.3709  0.8765
 1052TIP3    H124571   1.432   6.060  13.754  0.1784  0.3733  1.8735
 1052TIP3    H224572   1.471   6.188  13.683 -0.5511 -1.6308 -2.4924
 1053TIP3   OH224573   4.292   3.477   5.058 -0.0268 -0.4010  0.0371
 1053TIP3    H124574   4.385   3.458   5.058 -0.2631 -2.0057  2.1390
 1053TIP3    H224575   4.284   3.560   5.011  2.4810 -0.0219  0.1473
 1054TIP3   OH224576   4.840   4.290   5.351  0.6403  0.0376 -0.3465
 1054TIP3    H124577   4.880   4.214   5.392  2.7766  1.4726  0.3958
 1054TIP3    H224578   4.898   4.311   5.277 -0.6483  0.1958 -1.3626
 1055TIP3   OH224579   3.501   0.532  14.557  0.7109 -0.3556 -0.0164
 1055TIP3    H124580   3.451   0.460  14.596  2.7535 -0.2585  3.1730
 1055TIP3    H224581   3.582   0.535  14.608  1.9537  2.4153 -1.9069
 1056TIP3   OH224582   2.433   1.156  13.332 -0.0169  0.6770 -0.1569
 1056TIP3    H124583   2.386   1.079  13.299 -1.4443  1.0531  0.9213
 1056TIP3    H224584   2.445   1.139  13.425 -0.5978  1.8654  0.1502
 1057TIP3   OH224585   6.409   5.033  12.893 -0.3312  0.1666 -0.3518
 1057TIP3    H124586   6.398   5.112  12.839 -2.0248  0.8707  0.9469
 1057TIP3    H224587   6.361   4.965  12.846 -1.7521  0.7624  0.1869
 1058TIP3   OH224588   5.695   2.875  14.621 -0.7702  0.9004  1.1176
 1058TIP3    H124589   5.729   2.910  14.538 -0.5971 -1.7121  0.0095
 1058TIP3    H224590   5.745   2.922  14.688  1.7028  0.5884 -0.3606
 1059TIP3   OH224591   1.267   3.918   4.645 -0.1976  0.0215  0.0086
 1059TIP3    H124592   1.292   4.010   4.637  0.7185 -0.2683 -0.6897
 1059TIP3    H224593   1.336   3.879   4.698  0.5046 -0.6501 -1.3413
 1060TIP3   OH224594   0.187   3.090   5.144 -0.3661 -0.5428  0.5427
 1060TIP3    H124595   0.105   3.138   5.129 -0.6819 -1.1475  0.3350
 1060TIP3    H224596   0.207   3.107   5.236 -0.0052  0.7086  0.2510
 1061TIP3   OH224597   6.449   2.502   0.832  0.2203  0.3580  0.1916
 1061TIP3    H124598   6.424   2.539   0.747  0.0272  1.4467  0.7055
 1061TIP3    H224599   6.534   2.542   0.852 -0.1940  0.8992  0.9541
 1062TIP3   OH224600   0.483   3.871   3.358  0.3391 -0.4220 -0.6908
 1062TIP3    H124601   0.532   3.789   3.360  0.2160 -0.4945 -0.5994
 1062TIP3    H224602   0.538   3.931   3.308  0.9974 -0.1893  0.3007
 1063TIP3   OH224603   2.686   5.792   2.082  1.0206  0.3908  0.1735
 1063TIP3    H124604   2.758   5.777   2.021  0.9611  0.7493  0.0152
 1063TIP3    H224605   2.686   5.886   2.097  0.9775  0.3151  0.6599
 1064TIP3   OH224606   6.219   3.504   5.290 -0.4124  0.4198  0.1030
 1064TIP3    H124607   6.255   3.419   5.316 -0.5119  0.3290 -0.0566
 1064TIP3    H224608   6.284   3.568   5.321 -1.8624  0.5537  3.2445
 1065TIP3   OH224609   1.497   1.667   6.032  0.3459  0.2088  0.1283
 1065TIP3    H124610   1.438   1.659   6.108  0.5124 -4.9453  0.1110
 1065TIP3    H224611   1.583   1.645   6.067  1.0144  0.8819 -1.0508
 1066TIP3   OH224612   5.460   3.804  12.714  0.2937 -0.0925 -0.2201
 1066TIP3    H124613   5.543   3.851  12.711 -0.2923  1.0655  0.8016
 1066TIP3    H224614   5.394   3.873  12.726 -0.6421 -1.1264  0.8324
 1067TIP3   OH224615   6.268   4.099  14.043 -0.2277  0.0392  0.1624
 1067TIP3    H124616   6.276   4.032  14.111 -1.2998  0.7406  1.0163
 1067TIP3    H224617   6.261   4.050  13.962  1.1227 -0.8221  0.5268
 1068TIP3   OH224618   3.034   0.500  11.932 -0.3633  0.6111  0.6560
 1068TIP3    H124619   3.083   0.545  11.863  1.7809 -2.6156 -0.1742
 1068TIP3    H224620   3.098   0.485  12.002 -2.0289  2.1665  2.6295
 1069TIP3   OH224621   1.445   3.235   0.403 -0.3566  0.7804 -0.2447
 1069TIP3    H124622   1.443   3.142   0.427 -1.1263  0.2589 -2.1242
 1069TIP3    H224623   1.416   3.281   0.482 -0.0586 -0.5719  0.6859
 1070TIP3   OH224624   6.540   4.622   4.518 -0.1200 -0.1898 -0.0037
 1070TIP3    H124625   6.483   4.602   4.592  0.6890 -1.0928  0.3893
 1070TIP3    H224626   6.628   4.623   4.555  0.1291  1.6076 -0.5178
 1071TIP3   OH224627   6.543   0.979  11.629 -0.0437  0.5984 -0.2070
 1071TIP3    H124628   6.582   1.058  11.591 -0.3465  1.3720  1.0263
 1071TIP3    H224629   6.535   0.999  11.722 -0.7104 -0.6601  0.0288
 1072TIP3   OH224630   1.447   0.767   0.721  1.1317  0.9580 -0.4947
 1072TIP3    H124631   1.480   0.738   0.806 -0.6460 -1.7567 -0.6041
 1072TIP3    H224632   1.398   0.847   0.740  0.3811  0.1587  1.1448
 1073TIP3   OH224633   6.145   2.417  13.170 -0.3951 -0.0749 -0.1268
 1073TIP3    H124634   6.141   2.511  13.189 -1.2301 -0.0603 -0.3383
 1073TIP3    H224635   6.132   2.411  13.076  0.6964 -0.3482 -0.2701
 1074TIP3   OH224636   2.965   6.105   1.746  0.4855 -0.4990  0.4121
 1074TIP3    H124637   3.043   6.056   1.770  0.6131 -0.1862  0.6439
 1074TIP3    H224638   2.978   6.191   1.785  0.6257 -0.0271 -0.6385
 1075TIP3   OH224639   1.052   3.834  14.776  0.3235  0.2739  0.2235
 1075TIP3    H124640   1.019   3.899  14.714 -1.3105 -0.6435  0.0575
 1075TIP3    H224641   1.025   3.866  14.862 -0.6081 -0.2181  0.1305
 1076TIP3   OH224642   2.044   5.108   4.776 -0.2118 -0.4355  0.4563
 1076TIP3    H124643   1.974   5.053   4.740  0.7018 -0.6096 -1.1649
 1076TIP3    H224644   2.103   5.122   4.702 -0.5216  2.9489  0.7135
 1077TIP3   OH224645   2.393   4.526  15.981  0.0316 -0.0037 -0.1909
 1077TIP3    H124646   2.483   4.544  15.954  0.0637 -0.7485 -0.6222
 1077TIP3    H224647   2.379   4.581  16.058  0.8883  0.0407 -0.0598
 1078TIP3   OH224648   0.303   3.653   3.626  1.0788 -0.1302 -0.2380
 1078TIP3    H124649   0.274   3.646   3.536  1.6595 -0.5263 -0.3994
 1078TIP3    H224650   0.236   3.607   3.677  0.4070  0.6695 -0.3897
 1079TIP3   OH224651   5.232   3.197  16.425  0.0910 -0.6154  0.1420
 1079TIP3    H124652   5.284   3.254  16.481  0.0974  0.3503 -0.8181
 1079TIP3    H224653   5.235   3.238  16.339  0.1082 -2.0805 -0.5917
 1080TIP3   OH224654   4.549   4.683   0.077  0.6364  0.0339  0.1816
 1080TIP3    H124655   4.490   4.664   0.004 -1.1146  0.6359  1.3616
 1080TIP3    H224656   4.569   4.598   0.116 -0.4995 -0.1059  0.5048
 1081TIP3   OH224657   1.877   4.759   2.463 -0.0626 -0.1105  0.1776
 1081TIP3    H124658   1.800   4.705   2.444 -0.2588 -0.1457  1.0640
 1081TIP3    H224659   1.949   4.712   2.422 -0.7653  1.0067 -2.5553
 1082TIP3   OH224660   6.500   4.272  14.048  0.0896  0.3052  0.4258
 1082TIP3    H124661   6.422   4.217  14.055  0.2908  0.0590  0.7514
 1082TIP3    H224662   6.544   4.241  13.969 -0.9950  1.5611 -0.7441
 1083TIP3   OH224663   0.670   3.230   1.234  0.1905  0.3459  0.0909
 1083TIP3    H124664   0.609   3.275   1.176 -0.2603  0.1848  0.4419
 1083TIP3    H224665   0.685   3.145   1.193  0.3892  0.4859 -0.1317
 1084TIP3   OH224666   5.567   4.789  13.407  0.2639 -0.9877  0.2734
 1084TIP3    H124667   5.628   4.858  13.381 -0.2133 -0.1991  1.1776
 1084TIP3    H224668   5.496   4.836  13.451 -0.3801 -2.0068  0.3348
 1085TIP3   OH224669   4.604   5.388  17.189  0.1866 -0.5496  0.0025
 1085TIP3    H124670   4.548   5.449  17.141  0.7332  0.9332  1.1759
 1085TIP3    H224671   4.656   5.443  17.246  0.5529 -2.1533  1.2853
 1086TIP3   OH224672   2.811   0.915  16.799  0.0668 -0.0912 -0.3241
 1086TIP3    H124673   2.727   0.941  16.762 -0.3982 -2.1973 -0.8858
 1086TIP3    H224674   2.791   0.841  16.856  1.3207  0.5477  1.0418
 1087TIP3   OH224675   5.680   4.503  12.430 -0.3346 -0.3451  0.0013
 1087TIP3    H124676   5.735   4.443  12.380 -0.0490 -1.0995  1.1703
 1087TIP3    H224677   5.622   4.543  12.365 -0.2797 -1.6134 -0.8633
 1088TIP3   OH224678   5.149   2.531   3.228 -0.1545 -0.3168 -0.0400
 1088TIP3    H124679   5.233   2.514   3.270 -0.8843 -1.7743  0.9421
 1088TIP3    H224680   5.163   2.610   3.175  1.1976  0.7513  1.8206
 1089TIP3   OH224681   5.404   5.040   2.265  0.7906 -0.0901 -0.3034
 1089TIP3    H124682   5.324   5.085   2.294  1.3076  1.4581 -1.1420
 1089TIP3    H224683   5.384   4.947   2.275 -0.0014  0.2764  2.4321
 1090TIP3   OH224684   2.585   2.807  13.495 -0.4560 -0.0964 -0.4102
 1090TIP3    H124685   2.529   2.855  13.557  0.3201  1.6652 -1.0140
 1090TIP3    H224686   2.615   2.874  13.433  0.0369 -1.5335 -1.7827
 1091TIP3   OH224687   1.981   4.532   6.142  0.4300 -0.0594  0.0678
 1091TIP3    H124688   1.923   4.560   6.213  0.8920  3.3092 -0.7355
 1091TIP3    H224689   1.972   4.437   6.141 -1.8623 -0.0110  2.6718
 1092TIP3   OH224690   2.454   4.375  17.124  0.2664  0.2951 -0.0145
 1092TIP3    H124691   2.399   4.383  17.202  1.1665  0.6588  0.5864
 1092TIP3    H224692   2.467   4.281  17.113 -0.1782  0.2249  0.0418
 1093TIP3   OH224693   5.984   6.262   4.113  0.9498  0.4956  0.5047
 1093TIP3    H124694   5.982   6.208   4.192  1.4420  0.4088  0.4596
 1093TIP3    H224695   6.063   6.315   4.122  0.9014  0.6284  0.1649
 1094TIP3   OH224696   4.937   4.980   6.226  0.6115 -0.0907  0.0417
 1094TIP3    H124697   4.947   4.991   6.321 -0.7381 -0.5488  0.2522
 1094TIP3    H224698   5.006   5.035   6.188  0.4327  1.0094  1.2554
 1095TIP3   OH224699   0.820   0.252  12.025  0.0584  0.0734  0.7485
 1095TIP3    H124700   0.789   0.200  12.099 -0.2463 -0.8071  0.0232
 1095TIP3    H224701   0.783   0.339  12.039 -3.4358 -1.0639 -0.4224
 1096TIP3   OH224702   3.335   2.689   5.139  0.3338  0.4773 -0.0671
 1096TIP3    H124703   3.392   2.756   5.099 -0.2131  0.7590 -0.3795
 1096TIP3    H224704   3.268   2.672   5.073 -0.3280  0.6280  0.5639
 1097TIP3   OH224705   5.140   5.899  14.459 -0.0640 -0.1511  0.1091
 1097TIP3    H124706   5.203   5.970  14.474  0.0946 -0.0797 -0.7997
 1097TIP3    H224707   5.062   5.943  14.424  0.2969 -0.4679 -1.1646
 1098TIP3   OH224708   2.961   0.318  14.361 -0.3419 -0.5513  0.2815
 1098TIP3    H124709   2.956   0.236  14.312 -0.5261 -1.3273  1.5440
 1098TIP3    H224710   3.049   0.352  14.344  0.9235 -2.6261  2.1657
 1099TIP3   OH224711   4.645   2.613  13.326  0.0422 -0.0460  0.5266
 1099TIP3    H124712   4.713   2.675  13.299 -1.0853  1.0770  0.1640
 1099TIP3    H224713   4.563   2.653  13.296 -0.7457 -1.6256  0.4610
 1100TIP3   OH224714   1.102   2.876   0.584  0.0137  0.6994 -0.5175
 1100TIP3    H124715   1.009   2.895   0.594 -0.1962  0.1202 -1.2766
 1100TIP3    H224716   1.110   2.782   0.596  0.8497  1.0101  1.8198
 1101TIP3   OH224717   4.450   6.524  16.230  0.2336  0.2274  0.1731
 1101TIP3    H124718   4.475   6.480  16.311 -0.6967  0.5684  0.6637
 1101TIP3    H224719   4.399   6.459  16.182  0.5874  0.1035 -0.0422
 1102TIP3   OH224720   3.732   2.299  11.919  0.1157  0.2584 -0.8509
 1102TIP3    H124721   3.674   2.375  11.928  1.0091  1.2722 -2.9298
 1102TIP3    H224722   3.789   2.321  11.845  2.4028 -1.1841  0.3559
 1103TIP3   OH224723   5.082   6.576  14.795 -0.6412 -0.4214 -0.0286
 1103TIP3    H124724   5.163   6.626  14.784  0.0142 -1.3238  0.5681
 1103TIP3    H224725   5.081   6.552  14.888 -3.5088  2.7692  0.9794
 1104TIP3   OH224726   2.723   2.292   5.187  0.6361 -0.1843 -0.0049
 1104TIP3    H124727   2.779   2.326   5.257  0.4885  1.1239 -0.4913
 1104TIP3    H224728   2.767   2.320   5.106 -0.5047  0.5370 -0.3970
 1105TIP3   OH224729   1.004   1.923   4.287  0.3879  0.1809 -0.0529
 1105TIP3    H124730   0.976   2.007   4.323  0.1797 -0.5959  1.7188
 1105TIP3    H224731   1.086   1.942   4.242 -0.4383  1.5936 -1.0444
 1106TIP3   OH224732   5.970   5.419   5.561 -0.7316 -0.5199 -0.2970
 1106TIP3    H124733   6.057   5.438   5.597 -1.0961 -1.9340  1.4448
 1106TIP3    H224734   5.929   5.504   5.552  0.1776  0.0353  0.5993
 1107TIP3   OH224735   2.408   2.168  13.408  0.3625  0.2224  0.3843
 1107TIP3    H124736   2.441   2.258  13.405 -1.0880  0.7693 -0.1004
 1107TIP3    H224737   2.386   2.154  13.500 -2.0197  1.4005  0.0634
 1108TIP3   OH224738   3.276   2.006  13.981  0.2950  0.5810 -0.4032
 1108TIP3    H124739   3.329   1.986  14.058 -0.4745 -0.0102 -0.0145
 1108TIP3    H224740   3.187   2.016  14.014  0.0329  0.8391 -1.1452
 1109TIP3   OH224741   2.239   3.403   2.614 -0.4769  0.1212  0.4615
 1109TIP3    H124742   2.256   3.496   2.626 -1.4719  0.3218  0.3732
 1109TIP3    H224743   2.147   3.392   2.636 -0.9014 -0.4988 -1.4335
 1110TIP3   OH224744   6.340   5.409  13.385 -0.0984 -0.0977 -0.1498
 1110TIP3    H124745   6.399   5.481  13.408 -0.7306  0.0381  1.1885
 1110TIP3    H224746   6.363   5.387  13.295  2.1983 -0.2627  0.4093
 1111TIP3   OH224747   4.341   5.787  11.993  0.1791  0.2771  0.3452
 1111TIP3    H124748   4.299   5.789  11.907  0.5094  1.5451  0.1960
 1111TIP3    H224749   4.300   5.858  12.042 -2.4316 -2.4228  2.4722
 1112TIP3   OH224750   4.323   0.105  14.444  0.3935 -0.2473 -0.0458
 1112TIP3    H124751   4.415   0.122  14.468  0.7363 -0.4557 -1.1441
 1112TIP3    H224752   4.305   0.018  14.481  0.6343 -0.1995  0.1935
 1113TIP3   OH224753   5.546   3.305   1.210 -0.0489 -0.1161  0.2916
 1113TIP3    H124754   5.624   3.361   1.208  0.7066 -1.1526 -1.8219
 1113TIP3    H224755   5.488   3.343   1.144 -1.0711  0.2169  1.3466
 1114TIP3   OH224756   0.280   0.618  12.459  0.0035 -0.0395 -0.0792
 1114TIP3    H124757   0.344   0.642  12.526  1.4804  0.3284 -1.5501
 1114TIP3    H224758   0.203   0.672  12.478 -0.9120 -2.1948  3.1639
 1115TIP3   OH224759   4.223   3.363   3.783  0.6668  0.0813 -0.0165
 1115TIP3    H124760   4.298   3.323   3.739 -0.2626 -1.6937 -0.0905
 1115TIP3    H224761   4.151   3.353   3.720 -0.2623 -0.8186  1.1585
 1116TIP3   OH224762   3.415   0.243   2.929  0.6294 -0.0620  0.4999
 1116TIP3    H124763   3.498   0.280   2.900  0.1053 -0.3098 -1.4680
 1116TIP3    H224764   3.401   0.168   2.871 -0.6111 -0.4567  1.2793
 1117TIP3   OH224765   2.546   2.222  16.561  0.0268  0.9325  0.3990
 1117TIP3    H124766   2.521   2.217  16.653  3.0813  1.9745  1.3776
 1117TIP3    H224767   2.546   2.315  16.540  2.2127  0.9565  0.2786
 1118TIP3   OH224768   5.002   4.898   0.368  0.9320  0.3391 -0.4731
 1118TIP3    H124769   4.939   4.970   0.358  0.5044 -0.2495 -2.7070
 1118TIP3    H224770   5.087   4.941   0.371  0.5685  1.0293  0.3319
 1119TIP3   OH224771   2.296   6.281  13.218  0.2810  0.1892 -0.3146
 1119TIP3    H124772   2.375   6.233  13.241  0.3250 -0.0681 -0.9769
 1119TIP3    H224773   2.327   6.356  13.167  0.0939 -0.0209 -0.7499
 1120TIP3   OH224774   0.050   3.442   1.542 -0.0047  0.4341  0.2934
 1120TIP3    H124775   0.125   3.491   1.577  0.1577  0.3123  0.1128
 1120TIP3    H224776   0.048   3.463   1.449 -0.5218  0.8655  0.3964
 1121TIP3   OH224777   4.884   0.773  11.692 -0.3196 -0.0977  0.0280
 1121TIP3    H124778   4.942   0.823  11.750 -0.2393 -0.2714  0.0945
 1121TIP3    H224779   4.927   0.778  11.606 -1.0618  1.2202 -0.3031
 1122TIP3   OH224780   4.035   2.314  12.493  0.6549 -0.1247 -0.7111
 1122TIP3    H124781   3.977   2.257  12.443  1.8705 -1.4917 -0.6208
 1122TIP3    H224782   3.996   2.318  12.580  0.3776 -0.5369 -0.8147
 1123TIP3   OH224783   2.226   4.810   5.772  0.2791 -0.0322 -0.6176
 1123TIP3    H124784   2.296   4.874   5.782 -0.4254  0.4614  1.6041
 1123TIP3    H224785   2.147   4.862   5.760 -0.0560 -0.5247 -0.5777
 1124TIP3   OH224786   3.389   1.614   2.322 -0.0717 -0.0036  0.5669
 1124TIP3    H124787   3.320   1.559   2.286  1.3985 -0.8159 -1.1845
 1124TIP3    H224788   3.416   1.570   2.403 -0.8340 -0.2826  0.6738
 1125TIP3   OH224789   2.747   2.116  13.501 -0.1109  0.2550 -0.0652
 1125TIP3    H124790   2.779   2.120  13.591  4.5011  2.3858 -1.4927
 1125TIP3    H224791   2.721   2.206  13.481 -0.6816 -0.1071 -1.0447
 1126TIP3   OH224792   0.463   5.800  15.883  0.0374  0.2906  0.1792
 1126TIP3    H124793   0.412   5.863  15.933  0.0756 -0.5422  1.2935
 1126TIP3    H224794   0.410   5.784  15.804 -0.8627  0.3441  0.7518
 1127TIP3   OH224795   0.317   5.559  12.462  0.0968  0.2131  0.4332
 1127TIP3    H124796   0.290   5.479  12.508 -1.5497 -0.3553 -1.3992
 1127TIP3    H224797   0.332   5.531  12.372 -0.0861  1.8792 -0.1481
 1128TIP3   OH224798   4.994   5.850   0.632  0.1115  0.2668 -0.1278
 1128TIP3    H124799   5.021   5.827   0.543 -1.3677  1.2205 -0.8659
 1128TIP3    H224800   4.905   5.817   0.640 -0.2260  1.2923  0.5598
 1129TIP3   OH224801   3.079   4.913  15.361  0.3697  0.0167  0.5395
 1129TIP3    H124802   3.126   4.851  15.416  1.1621 -0.5470 -0.7165
 1129TIP3    H224803   3.112   4.999  15.387 -0.5018 -0.0792  2.0764
 1130TIP3   OH224804   5.765   0.735   5.445  0.2525 -0.9574 -0.1611
 1130TIP3    H124805   5.786   0.773   5.531 -0.2691 -0.0090 -0.4371
 1130TIP3    H224806   5.671   0.751   5.434  0.6121  0.4676 -1.6227
 1131TIP3   OH224807   3.011   5.642  12.905 -0.6159  0.3694  0.2537
 1131TIP3    H124808   2.976   5.659  12.993  2.7248  2.8398  1.3652
 1131TIP3    H224809   2.997   5.724  12.858 -0.9351 -0.3820 -0.9882
 1132TIP3   OH224810   6.631   3.968  12.151 -0.4528  0.6020  0.2462
 1132TIP3    H124811   6.625   3.880  12.115 -0.1737 -0.4378  2.5948
 1132TIP3    H224812   6.566   4.018  12.101 -0.6906 -0.9312 -1.0627
 1133TIP3   OH224813   2.652   2.196   0.115 -0.7018 -0.0077 -0.2155
 1133TIP3    H124814   2.557   2.205   0.122 -0.6798  0.4809 -0.5178
 1133TIP3    H224815   2.678   2.262   0.051 -0.2121 -0.4707 -0.5071
 1134TIP3   OH224816   1.459   3.189   4.502  0.2279 -0.1131 -0.0583
 1134TIP3    H124817   1.424   3.168   4.589 -0.4329  0.0132 -0.2903
 1134TIP3    H224818   1.525   3.121   4.486 -2.1697 -2.3866 -0.9972
 1135TIP3   OH224819   1.108   6.710   0.130 -0.1331  0.2020  0.1724
 1135TIP3    H124820   1.085   6.771   0.200 -0.3878 -0.4654  0.6751
 1135TIP3    H224821   1.033   6.651   0.124  0.3569 -0.4215  0.0828
 1136TIP3   OH224822   2.971   2.469  13.304 -0.1718 -0.0876 -0.5169
 1136TIP3    H124823   2.903   2.498  13.243 -2.3812 -3.0839  0.2582
 1136TIP3    H224824   2.959   2.524  13.381  0.3475  1.3940 -1.4445
 1137TIP3   OH224825   4.399   5.691   2.623 -0.0054 -0.0672 -0.5575
 1137TIP3    H124826   4.408   5.702   2.718 -0.1481 -0.4912 -0.4925
 1137TIP3    H224827   4.345   5.765   2.595 -1.0814 -0.6490 -0.1084
 1138TIP3   OH224828   4.785   5.182  14.384  0.0262  0.6039  0.6373
 1138TIP3    H124829   4.852   5.115  14.371  1.4461  2.1755 -0.5854
 1138TIP3    H224830   4.750   5.165  14.471  3.2473  0.7518  2.0910
 1139TIP3   OH224831   4.497   6.314  14.891 -0.4788  0.1753 -0.4485
 1139TIP3    H124832   4.488   6.381  14.959  0.0656 -0.9582  0.7746
 1139TIP3    H224833   4.562   6.350  14.831  1.3739 -0.0822  1.2998
 1140TIP3   OH224834   1.503   5.929  16.167 -0.2955  0.6397 -0.1039
 1140TIP3    H124835   1.456   6.000  16.123  0.7336  1.9151  0.7883
 1140TIP3    H224836   1.488   5.853  16.111  0.3749  2.0292 -2.3073
 1141TIP3   OH224837   3.684   1.481  11.929 -0.1642 -0.3934 -0.1288
 1141TIP3    H124838   3.754   1.460  11.867 -0.2452 -2.1375  0.3025
 1141TIP3    H224839   3.728   1.528  12.000  0.0936  0.7746 -1.0372
 1142TIP3   OH224840   6.289   5.976   3.968  0.3167 -0.1479 -0.3294
 1142TIP3    H124841   6.361   5.995   3.907 -0.0818  0.0208 -0.7589
 1142TIP3    H224842   6.312   6.024   4.047 -0.5773  2.0810 -1.3342
 1143TIP3   OH224843   0.365   6.158  11.896 -0.2156 -0.3145  0.4210
 1143TIP3    H124844   0.377   6.076  11.942  0.9954 -0.8752 -0.8238
 1143TIP3    H224845   0.340   6.221  11.964  0.8072 -1.2608  1.7080
 1144TIP3   OH224846   1.232   1.182   3.262  0.1645  0.0981 -0.0368
 1144TIP3    H124847   1.215   1.237   3.186  0.1858  0.8935  0.5229
 1144TIP3    H224848   1.327   1.167   3.261  0.0321 -0.8261 -0.7770
 1145TIP3   OH224849   6.336   0.613   5.387  0.2668  0.8610 -0.3684
 1145TIP3    H124850   6.372   0.569   5.464 -0.7010  2.8875  1.3437
 1145TIP3    H224851   6.287   0.544   5.342  0.4897 -0.2991  1.0462
 1146TIP3   OH224852   0.978   1.914  13.711 -0.2061 -0.6831 -0.1680
 1146TIP3    H124853   1.018   1.935  13.795 -1.6919 -0.0088  0.4070
 1146TIP3    H224854   1.047   1.929  13.647  0.2217  1.3812  0.6968
 1147TIP3   OH224855   6.309   5.216  16.947  0.0220  0.5685  0.3985
 1147TIP3    H124856   6.290   5.307  16.970 -2.0852 -0.1358  1.7234
 1147TIP3    H224857   6.337   5.220  16.856 -0.6989  2.4824  0.2159
 1148TIP3   OH224858   6.266   1.901  13.911  0.5117  0.2793 -0.3328
 1148TIP3    H124859   6.226   1.939  13.833  0.1635  1.4045  0.3599
 1148TIP3    H224860   6.356   1.934  13.910  0.2257  1.1228  0.2393
 1149TIP3   OH224861   1.171   2.708  10.981 -0.1865 -0.2588 -0.6443
 1149TIP3    H124862   1.192   2.628  10.931 -0.9945 -1.6717  1.1712
 1149TIP3    H224863   1.081   2.728  10.955 -0.1762 -0.2579 -0.6808
 1150TIP3   OH224864   0.961   6.227  13.525 -0.4098 -0.2383  0.1722
 1150TIP3    H124865   1.027   6.295  13.542 -1.1960  0.4090  0.7518
 1150TIP3    H224866   0.962   6.173  13.604 -0.2086 -0.5252 -0.0312
 1151TIP3   OH224867   1.459   0.757  16.131  0.8825  0.1406  0.3031
 1151TIP3    H124868   1.382   0.784  16.082  1.2123 -0.6421 -0.6840
 1151TIP3    H224869   1.437   0.669  16.164  2.2698 -1.2658 -2.2299
 1152TIP3   OH224870   5.739   2.148   2.127 -0.2304  0.2155 -0.3159
 1152TIP3    H124871   5.667   2.202   2.094 -0.4942 -0.5239 -0.9784
 1152TIP3    H224872   5.738   2.069   2.072 -0.1581 -0.6884  0.9333
 1153TIP3   OH224873   1.837   3.000  12.370 -0.1290  0.1589  0.4099
 1153TIP3    H124874   1.839   3.067  12.438  0.7413  1.7569 -1.0745
 1153TIP3    H224875   1.914   2.945  12.387 -0.1408  0.2996  0.9329
 1154TIP3   OH224876   3.823   5.565  13.181 -0.2013  0.3940  0.2118
 1154TIP3    H124877   3.856   5.609  13.260  0.4210  0.3558 -0.0207
 1154TIP3    H224878   3.833   5.630  13.112  1.0379 -0.2132 -0.1994
 1155TIP3   OH224879   6.513   4.309  16.280  0.4492 -0.7471  0.3641
 1155TIP3    H124880   6.498   4.309  16.375 -1.1628 -1.2006  0.1276
 1155TIP3    H224881   6.558   4.392  16.264 -0.8568  0.1873  1.3032
 1156TIP3   OH224882   1.010   1.259   4.662 -0.5180 -0.1986 -0.1854
 1156TIP3    H124883   0.983   1.341   4.621 -0.6278 -0.0987  0.0915
 1156TIP3    H224884   1.062   1.285   4.737 -1.2638 -0.3701  0.4013
 1157TIP3   OH224885   1.577   2.464   0.896 -0.7590 -0.1018 -0.0915
 1157TIP3    H124886   1.539   2.434   0.814  1.0303 -0.8203 -0.6978
 1157TIP3    H224887   1.612   2.385   0.936 -2.6097  0.0197  1.9830
 1158TIP3   OH224888   5.421   5.546  11.836  0.3536  0.2927 -0.4114
 1158TIP3    H124889   5.464   5.491  11.770 -1.4438 -0.5612 -0.9581
 1158TIP3    H224890   5.375   5.613  11.785  0.2981  0.6339  0.0826
 1159TIP3   OH224891   2.080   4.417   5.226 -0.2546  0.1497  0.5074
 1159TIP3    H124892   2.082   4.361   5.149 -1.4821  0.4295  0.2466
 1159TIP3    H224893   2.151   4.480   5.213 -0.9435  0.6893 -0.8006
 1160TIP3   OH224894   6.482   2.603   3.511 -0.1872  0.2674  0.3825
 1160TIP3    H124895   6.527   2.552   3.578 -0.8870  0.1403  0.7642
 1160TIP3    H224896   6.406   2.550   3.487 -0.1092  0.4512 -0.3011
 1161TIP3   OH224897   4.896   4.607  15.779  0.2465 -0.6672 -0.0604
 1161TIP3    H124898   4.988   4.582  15.789  0.2599 -0.2076  1.2813
 1161TIP3    H224899   4.849   4.523  15.772  0.6335 -0.9802  0.8267
 1162TIP3   OH224900   3.876   0.536   6.231 -0.1346 -0.1846  0.7198
 1162TIP3    H124901   3.940   0.478   6.191 -0.5168 -0.2234  0.1536
 1162TIP3    H224902   3.818   0.478   6.280  0.1264 -0.1707  1.0490
 1163TIP3   OH224903   1.312   3.866   6.323 -0.3071  0.4975  0.1257
 1163TIP3    H124904   1.327   3.777   6.353 -1.1727  0.1613 -0.3953
 1163TIP3    H224905   1.261   3.907   6.393 -1.5104 -0.0008 -0.4213
 1164TIP3   OH224906   3.867   6.673   1.815  0.2418  0.1615 -0.1861
 1164TIP3    H124907   3.853   6.671   1.720  1.4206 -2.3280 -0.3903
 1164TIP3    H224908   3.820   6.596   1.847 -0.9986  1.5363  1.4412
 1165TIP3   OH224909   3.251   3.908   1.234 -0.3049  0.6592 -0.2150
 1165TIP3    H124910   3.286   3.971   1.298 -0.6238  0.8180 -0.1941
 1165TIP3    H224911   3.206   3.962   1.169 -1.0344  0.4265  0.0857
 1166TIP3   OH224912   6.134   3.775  14.356 -0.9246 -0.5363 -0.3443
 1166TIP3    H124913   6.170   3.778  14.445 -1.7637  1.3178 -0.0147
 1166TIP3    H224914   6.199   3.822  14.303 -1.0043 -0.5794 -0.4804
 1167TIP3   OH224915   5.342   2.979   3.971  0.0988 -0.5853 -0.0659
 1167TIP3    H124916   5.292   2.976   4.053  0.5830 -0.0455  0.2508
 1167TIP3    H224917   5.337   3.070   3.944  2.8545  0.0254  1.1820
 1168TIP3   OH224918   5.221   6.519   3.731  0.0499 -0.2996  0.0211
 1168TIP3    H124919   5.180   6.547   3.649  1.9919  4.5566  0.4214
 1168TIP3    H224920   5.310   6.494   3.707  0.4485  0.5797  0.5325
 1169TIP3   OH224921   4.098   2.082   5.831 -0.2584  0.0967 -0.4790
 1169TIP3    H124922   4.016   2.054   5.871  0.6363 -0.0741  1.3451
 1169TIP3    H224923   4.164   2.068   5.899  1.1330  1.1605 -1.5420
 1170TIP3   OH224924   5.675   4.884   1.079  0.2412  0.4170  0.1495
 1170TIP3    H124925   5.733   4.876   1.004 -0.1202  0.2707 -0.1140
 1170TIP3    H224926   5.707   4.818   1.141  1.4648  1.5213  0.7502
 1171TIP3   OH224927   6.129   6.501   1.638 -0.2991  0.6025 -0.2760
 1171TIP3    H124928   6.191   6.495   1.566  0.2955 -0.7720  0.3273
 1171TIP3    H224929   6.182   6.491   1.717 -1.4705 -2.9623  0.2259
 1172TIP3   OH224930   2.131   5.658   5.754  0.5941 -0.2704 -0.1704
 1172TIP3    H124931   2.201   5.659   5.819  0.2665  1.0942  0.1865
 1172TIP3    H224932   2.160   5.719   5.686  1.0713 -1.8992 -1.5019
 1173TIP3   OH224933   6.361   6.197   6.370  0.8389 -0.4150  0.4885
 1173TIP3    H124934   6.368   6.246   6.288 -4.0296  0.7339  0.4180
 1173TIP3    H224935   6.393   6.257   6.437  0.0704  0.7548 -0.1536
 1174TIP3   OH224936   3.083   0.003  11.061  0.8207 -0.5007  0.0973
 1174TIP3    H124937   3.167   0.007  11.108  0.2876  1.8928  0.9552
 1174TIP3    H224938   3.018  -0.007  11.130  0.1487  1.5280 -0.1724
 1175TIP3   OH224939   3.552   1.980  11.167 -0.2076  0.2914 -0.3402
 1175TIP3    H124940   3.638   2.013  11.140  0.6060  0.2993  2.0247
 1175TIP3    H224941   3.567   1.888  11.190 -0.1194  0.9688  2.6939
 1176TIP3   OH224942   2.386   0.907   1.467  0.7608 -0.6435 -0.7947
 1176TIP3    H124943   2.295   0.892   1.494  1.5651  0.2361  3.0065
 1176TIP3    H224944   2.381   0.978   1.403 -1.1062  2.6571  2.6194
 1177TIP3   OH224945   3.921   3.355   3.553 -0.1423 -0.3894 -0.5091
 1177TIP3    H124946   3.903   3.445   3.527 -0.8372 -0.8825 -1.8173
 1177TIP3    H224947   4.015   3.345   3.540  0.4852  0.9324  2.2990
 1178TIP3   OH224948   1.519   6.588   4.830  0.1129 -0.2450 -0.0426
 1178TIP3    H124949   1.598   6.624   4.870  0.4667  1.1817 -1.8898
 1178TIP3    H224950   1.493   6.517   4.889  0.8516  1.3733  2.4247
 1179TIP3   OH224951   3.634   2.787  13.949 -0.3040 -0.4414  0.3533
 1179TIP3    H124952   3.557   2.844  13.951 -1.1343 -1.5243 -0.0535
 1179TIP3    H224953   3.604   2.707  13.907  0.8646 -1.1687  0.8484
 1180TIP3   OH224954   4.133   4.491   3.200  0.7839 -0.4619  0.2711
 1180TIP3    H124955   4.144   4.541   3.280 -1.3059 -0.2908  0.5073
 1180TIP3    H224956   4.138   4.556   3.130  3.9222 -0.7755  0.0748
 1181TIP3   OH224957   2.391   1.643  17.207  0.7733 -0.0045  0.4797
 1181TIP3    H124958   2.308   1.611  17.171  1.2619 -2.7117  1.4861
 1181TIP3    H224959   2.403   1.729  17.168 -1.0096 -0.8002 -2.0734
 1182TIP3   OH224960   0.962   3.122  15.986  0.0421  0.0751  0.5567
 1182TIP3    H124961   1.035   3.180  15.966  1.0214 -0.2169  2.8779
 1182TIP3    H224962   0.912   3.169  16.053  0.5792 -1.4737  2.1332
 1183TIP3   OH224963   5.789   6.572   4.826  0.0959 -0.2055 -0.2353
 1183TIP3    H124964   5.795   6.652   4.773 -0.5993  0.7252  1.0553
 1183TIP3    H224965   5.787   6.501   4.761  1.9409  0.7075 -1.3955
 1184TIP3   OH224966   4.243   5.477  12.694 -1.1002  0.1563  0.4292
 1184TIP3    H124967   4.319   5.447  12.643 -0.9148  0.7253  0.3640
 1184TIP3    H224968   4.178   5.500  12.628 -1.5953 -0.9883  0.4972
 1185TIP3   OH224969   0.818   5.772   5.025  0.1373 -0.1745 -0.6959
 1185TIP3    H124970   0.777   5.852   5.058  0.8221  0.1524 -0.6219
 1185TIP3    H224971   0.767   5.748   4.948  0.0342  0.4282 -0.8162
 1186TIP3   OH224972   1.378   6.706  13.773  0.1331  0.8216 -0.6030
 1186TIP3    H124973   1.308   6.729  13.834 -0.0600 -1.3856  0.0996
 1186TIP3    H224974   1.335   6.701  13.687 -0.0986  1.5778 -0.5357
 1187TIP3   OH224975   2.804   4.779   6.261 -0.8614  0.0534 -0.0739
 1187TIP3    H124976   2.886   4.829   6.268 -0.7651 -0.0132 -0.6146
 1187TIP3    H224977   2.830   4.688   6.271 -1.1117  0.1226  1.4586
 1188TIP3   OH224978   4.579   1.376   2.361 -0.0664  0.0774  0.0843
 1188TIP3    H124979   4.632   1.418   2.429 -3.9500  1.7162  2.4421
 1188TIP3    H224980   4.527   1.447   2.323  1.2097 -0.9490 -4.1020
 1189TIP3   OH224981   1.248   1.178   0.349 -0.3738  0.5732  0.2780
 1189TIP3    H124982   1.340   1.196   0.331 -0.9291  3.0723 -0.4202
 1189TIP3    H224983   1.232   1.094   0.307  1.5192  0.1630  0.2648
 1190TIP3   OH224984   2.870   3.394  16.168  0.1996 -0.1042 -0.1728
 1190TIP3    H124985   2.903   3.483  16.182 -0.4200  0.3480 -1.4570
 1190TIP3    H224986   2.900   3.345  16.244 -1.1835  1.6775  1.6282
 1191TIP3   OH224987   3.994   3.667   4.764  0.3038 -0.0236  0.1339
 1191TIP3    H124988   3.977   3.739   4.704 -1.6644  0.1079  0.7683
 1191TIP3    H224989   3.953   3.591   4.722  0.8641 -0.4078  0.2718
 1192TIP3   OH224990   3.557   2.485   3.902 -0.1891  0.0437 -0.0085
 1192TIP3    H124991   3.499   2.424   3.856  0.9542 -0.5408 -0.7561
 1192TIP3    H224992   3.581   2.549   3.835 -0.7046  0.8229  0.5466
 1193TIP3   OH224993   5.957   2.096  13.217  0.6164  0.2276  0.3060
 1193TIP3    H124994   5.931   2.169  13.162 -0.3948 -0.8571 -0.7081
 1193TIP3    H224995   5.922   2.118  13.304 -0.2862  0.6330 -0.1486
 1194TIP3   OH224996   4.474   0.925  12.046 -0.0579 -0.0909  0.5059
 1194TIP3    H124997   4.522   0.899  11.967  1.0751 -0.7085  1.3815
 1194TIP3    H224998   4.539   0.967  12.101 -0.9046  0.5751  1.0215
 1195TIP3   OH224999   3.986   1.496   2.050  0.1489  0.4365  0.2340
 1195TIP3    H125000   3.954   1.427   1.992  1.6164 -0.7698  0.7862
 1195TIP3    H225001   3.967   1.464   2.138 -1.0269  1.7226  0.4833
 1196TIP3   OH225002   6.601   3.099   3.382 -0.1807 -0.2714  0.3596
 1196TIP3    H125003   6.607   3.027   3.445  0.2160  0.5420  1.2939
 1196TIP3    H225004   6.627   3.177   3.432  1.5080  0.2157 -1.1521
 1197TIP3   OH225005   6.640   3.371  15.447 -0.1535 -0.2668  0.5617
 1197TIP3    H125006   6.733   3.352  15.452 -0.1991 -0.6508 -0.0447
 1197TIP3    H225007   6.635   3.466  15.437  0.1786 -0.2714  0.3648
 1198TIP3   OH225008   5.453   2.640  10.937  0.1593  0.2313  0.0722
 1198TIP3    H125009   5.502   2.696  10.877  0.1523 -0.0167 -0.1674
 1198TIP3    H225010   5.383   2.602  10.883  1.4251 -1.6949 -0.3165
 1199TIP3   OH225011   6.246   6.529  13.447  0.3439  0.2857 -0.0502
 1199TIP3    H125012   6.234   6.491  13.360 -0.5782 -1.0021  0.5921
 1199TIP3    H225013   6.161   6.567  13.468  0.5677  0.6073  0.2848
 1200TIP3   OH225014   0.205   0.010  12.998 -0.8610 -0.2256  0.0731
 1200TIP3    H125015   0.137   0.007  13.065 -0.6335  0.8766  0.3680
 1200TIP3    H225016   0.258   0.087  13.020  0.7887 -1.3224  0.1253
 1201TIP3   OH225017   3.224   1.314  15.927  0.5119 -0.9211 -0.3420
 1201TIP3    H125018   3.203   1.278  15.841 -0.4224 -1.5789  0.1587
 1201TIP3    H225019   3.196   1.248  15.989  1.2027 -0.4620  0.4889
 1202TIP3   OH225020   3.713   1.636   3.819  0.0710  0.0074 -0.0070
 1202TIP3    H125021   3.752   1.561   3.774  1.3728  0.6515  0.0103
 1202TIP3    H225022   3.630   1.651   3.774 -0.5108 -1.8182  0.3877
 1203TIP3   OH225023   4.069   0.184   2.829  0.1799  0.6270 -0.0775
 1203TIP3    H125024   4.022   0.254   2.784  1.1260  0.3579 -1.5389
 1203TIP3    H225025   4.131   0.229   2.886  0.1955  0.9796 -0.3714
 1204TIP3   OH225026   4.216   3.478   1.417  0.2067 -0.0065  0.0103
 1204TIP3    H125027   4.158   3.538   1.463  2.2178  1.4048  0.8326
 1204TIP3    H225028   4.233   3.408   1.480 -0.3347 -0.2620 -0.1218
 1205TIP3   OH225029   6.644   1.689  13.109 -0.1872 -0.1671  0.0766
 1205TIP3    H125030   6.592   1.756  13.065 -0.6433 -0.3586  0.3179
 1205TIP3    H225031   6.594   1.609  13.097 -0.6747 -0.0989  1.5431
 1206TIP3   OH225032   4.857   3.459  13.972  0.0300  0.6477  0.7020
 1206TIP3    H125033   4.928   3.402  14.000  0.6210  0.6072 -0.7787
 1206TIP3    H225034   4.779   3.404  13.973  0.3664  0.1681  0.5019
 1207TIP3   OH225035   0.410   6.312   1.969  0.2938 -0.4213 -0.0205
 1207TIP3    H125036   0.345   6.244   1.955 -0.2535 -0.0651  0.7501
 1207TIP3    H225037   0.426   6.312   2.064  0.6757  0.1666 -0.0733
 1208TIP3   OH225038   2.998   4.591   2.275  0.5645  0.1063 -0.2708
 1208TIP3    H125039   3.081   4.611   2.232 -0.3677  2.9662 -0.9362
 1208TIP3    H225040   2.954   4.675   2.284 -1.9052 -1.1880  0.8898
 1209TIP3   OH225041   3.291   4.867   6.600 -1.1609  0.7651  0.0298
 1209TIP3    H125042   3.350   4.809   6.552  0.6023  1.5900  1.1249
 1209TIP3    H225043   3.206   4.822   6.596  0.1967 -2.2698  1.3298
 1210TIP3   OH225044   4.822   2.392   2.571 -0.0235 -0.8997  0.3065
 1210TIP3    H125045   4.881   2.330   2.614  3.3314  2.1338  0.6942
 1210TIP3    H225046   4.859   2.403   2.483  0.8699  1.8854  0.9108
 1211TIP3   OH225047   4.485   0.756   0.988 -0.4990  0.0637  0.0888
 1211TIP3    H125048   4.449   0.676   1.026 -1.3343 -0.6956 -2.1122
 1211TIP3    H225049   4.410   0.815   0.980 -0.3537  0.1970 -0.3512
 1212TIP3   OH225050   3.183   4.073  13.963  0.1855 -0.1392 -0.0992
 1212TIP3    H125051   3.258   4.032  13.920 -0.1549 -0.8568 -0.0249
 1212TIP3    H225052   3.109   4.057  13.903  0.2561  1.4312 -0.6696
 1213TIP3   OH225053   4.497   4.356   4.004 -0.4898  0.4330  0.0365
 1213TIP3    H125054   4.571   4.387   3.952 -0.9269  1.5502  0.0595
 1213TIP3    H225055   4.477   4.429   4.063 -1.3148 -0.0326  0.3459
 1214TIP3   OH225056   0.864   6.316   0.109  0.0560 -0.1582 -0.2283
 1214TIP3    H125057   0.787   6.299   0.054 -0.5590  0.7974  0.2891
 1214TIP3    H225058   0.857   6.252   0.180 -1.0142  0.7189  0.5150
 1215TIP3   OH225059   2.743   2.559  13.150  0.2627  0.4548  0.0796
 1215TIP3    H125060   2.730   2.653  13.165 -1.4966 -0.0077  2.0771
 1215TIP3    H225061   2.664   2.531  13.102  1.3268  0.1718 -1.5611
 1216TIP3   OH225062   1.239   5.165  13.703 -0.6163 -0.0459 -0.2007
 1216TIP3    H125063   1.315   5.177  13.760 -0.1316  0.0235 -0.8472
 1216TIP3    H225064   1.198   5.085  13.734  0.5247 -0.8562 -0.7243
 1217TIP3   OH225065   5.977   5.057   2.315  0.1369  0.7541  0.2767
 1217TIP3    H125066   5.915   4.985   2.320  0.2642  0.7074  1.6573
 1217TIP3    H225067   6.025   5.042   2.234 -0.3227 -0.3094  0.1855
 1218TIP3   OH225068   5.877   2.525  13.054 -0.5927 -0.0649  0.0870
 1218TIP3    H125069   5.893   2.574  12.973  2.2235 -0.8155  0.0675
 1218TIP3    H225070   5.832   2.587  13.111  0.0467  1.5061 -1.0292
 1219TIP3   OH225071   5.711   0.470  13.416  0.0869  0.0189  0.3795
 1219TIP3    H125072   5.744   0.500  13.331 -1.4361 -0.4703 -0.4124
 1219TIP3    H225073   5.760   0.390  13.434  0.1194 -0.1071 -0.2488
 1220TIP3   OH225074   5.429   0.794  14.982 -0.1011  0.1175  0.2974
 1220TIP3    H125075   5.393   0.788  15.071  0.5514 -1.2177  0.4954
 1220TIP3    H225076   5.487   0.718  14.975 -0.2453  0.1351 -1.3243
 1221TIP3   OH225077   2.062   4.201  15.922  0.4315 -0.3708 -0.0192
 1221TIP3    H125078   2.099   4.288  15.902  1.7055 -0.6791  0.9213
 1221TIP3    H225079   1.976   4.220  15.961 -0.3332  0.3658 -1.9224
 1222TIP3   OH225080   3.859   1.481   5.836  0.3003 -0.3631 -0.1925
 1222TIP3    H125081   3.862   1.424   5.759  1.4795 -2.3979  1.2685
 1222TIP3    H225082   3.897   1.429   5.907  1.3176  2.2104  1.3121
 1223TIP3   OH225083   5.961   1.201  11.706 -0.6617 -0.3383  0.0611
 1223TIP3    H125084   5.946   1.295  11.706  1.7391  0.1188 -0.7974
 1223TIP3    H225085   6.050   1.190  11.738 -0.3834 -2.1960 -1.1338
 1224TIP3   OH225086   0.130   4.620  16.421 -0.1505  0.2414  0.1370
 1224TIP3    H125087   0.206   4.679  16.413 -0.7216  0.8904 -0.6048
 1224TIP3    H225088   0.057   4.670  16.386 -0.6856 -0.8535 -0.3489
 1225TIP3   OH225089   5.387   4.187  14.906  0.0483 -0.1910 -0.4818
 1225TIP3    H125090   5.417   4.273  14.938  0.5129  0.6984 -3.0016
 1225TIP3    H225091   5.310   4.207  14.853  1.2192 -1.0065 -2.6146
 1226TIP3   OH225092   6.443   6.750   1.847 -0.5883 -0.0298  0.0256
 1226TIP3    H125093   6.424   6.816   1.780 -3.6522  0.5648  1.3147
 1226TIP3    H225094   6.421   6.793   1.930  1.3731 -1.3449  1.3245
 1227TIP3   OH225095   5.755   1.866  16.093  0.0724  0.3682 -0.3678
 1227TIP3    H125096   5.824   1.809  16.061 -2.3463 -3.7671  1.0033
 1227TIP3    H225097   5.768   1.868  16.188 -0.6011  1.0710 -0.2769
 1228TIP3   OH225098   4.406   3.053  17.240 -0.5093  0.2215 -0.3374
 1228TIP3    H125099   4.347   3.117  17.200 -0.7370  0.1953 -0.0447
 1228TIP3    H225100   4.452   3.013  17.166 -1.3395 -0.2374 -0.6193
 1229TIP3   OH225101   5.928   5.686   2.795  0.7482 -0.2038  0.2819
 1229TIP3    H125102   6.018   5.658   2.783  1.3326  1.6100  0.1105
 1229TIP3    H225103   5.878   5.636   2.731  1.8741 -0.1262 -0.6883
 1230TIP3   OH225104   3.158   6.092   0.425  0.4475 -0.7057 -0.3107
 1230TIP3    H125105   3.116   6.093   0.511  0.8094 -1.4921 -0.1166
 1230TIP3    H225106   3.084   6.089   0.363  0.1877 -0.1411 -0.0344
 1231TIP3   OH225107   6.511   2.509  15.417  0.5720  0.0391 -0.5138
 1231TIP3    H125108   6.572   2.503  15.344  2.2340  0.6724  0.7598
 1231TIP3    H225109   6.447   2.575  15.390  1.9302  1.2510 -0.8857
 1232TIP3   OH225110   1.953   6.522   1.186  0.3527 -0.0047 -0.2151
 1232TIP3    H125111   1.944   6.590   1.253 -0.1415 -0.2035 -0.0755
 1232TIP3    H225112   1.996   6.449   1.230 -2.6173 -1.3123  0.7720
 1233TIP3   OH225113   1.495   1.711  12.365 -0.3436 -0.5305 -0.2758
 1233TIP3    H125114   1.427   1.646  12.348 -1.0232 -0.0406  0.4831
 1233TIP3    H225115   1.543   1.677  12.441 -0.6167 -0.2162  0.0396
 1234TIP3   OH225116   5.784   3.654  11.937 -0.2965 -0.1121  0.7280
 1234TIP3    H125117   5.848   3.587  11.957 -0.3293 -0.2344  0.4205
 1234TIP3    H225118   5.802   3.680  11.847  0.7238  1.4018  1.3156
 1235TIP3   OH225119   1.301   5.011  14.009 -0.0881 -0.3397  0.0016
 1235TIP3    H125120   1.335   4.954  14.079  1.0453 -1.0673 -1.0986
 1235TIP3    H225121   1.209   5.022  14.030 -0.0086 -1.4084  1.0438
 1236TIP3   OH225122   4.868   1.397  14.761  0.3523  1.0062 -0.2164
 1236TIP3    H125123   4.903   1.481  14.730  0.7286  0.6424 -0.7959
 1236TIP3    H225124   4.777   1.398  14.734  0.8347  0.4052 -2.0154
 1237TIP3   OH225125   3.226   2.938  13.066 -0.0361  0.0706  1.0786
 1237TIP3    H125126   3.252   2.847  13.058  1.3782  0.4981  0.4903
 1237TIP3    H225127   3.276   2.984  12.998 -1.9987  1.0438  0.2030
 1238TIP3   OH225128   0.876   5.161  15.749  0.4793 -0.5335 -0.1647
 1238TIP3    H125129   0.799   5.134  15.699  0.1920 -1.6570  0.8421
 1238TIP3    H225130   0.921   5.223  15.691  0.1172 -1.6895 -1.7654
 1239TIP3   OH225131   4.511   5.991  16.662 -0.2814  0.3112  0.8235
 1239TIP3    H125132   4.580   6.057  16.669 -0.9806  1.2584 -0.7615
 1239TIP3    H225133   4.533   5.941  16.584 -0.2817 -0.7430  1.4793
 1240TIP3   OH225134   6.032   5.647   4.526  0.2311  0.3089 -0.0180
 1240TIP3    H125135   6.008   5.738   4.546 -1.9920 -0.1788 -0.2482
 1240TIP3    H225136   6.078   5.618   4.605 -1.0223  0.9837  1.0236
 1241TIP3   OH225137   1.809   1.900   3.063 -0.0766 -0.2364  0.1869
 1241TIP3    H125138   1.775   1.819   3.023 -1.1670  0.1509  0.2905
 1241TIP3    H225139   1.800   1.966   2.994 -1.1623  0.2477  0.7784
 1242TIP3   OH225140   6.666   4.430   4.388  0.1660 -0.3746  0.2817
 1242TIP3    H125141   6.733   4.470   4.332  0.2330 -0.4692  0.2948
 1242TIP3    H225142   6.629   4.504   4.437 -0.3665 -0.1935 -0.3855
 1243TIP3   OH225143   2.764   2.408   0.892  0.4425  0.6723 -0.2323
 1243TIP3    H125144   2.778   2.392   0.985  0.7320  0.9360 -0.2321
 1243TIP3    H225145   2.675   2.375   0.876  0.4125  0.5729  0.1215
 1244TIP3   OH225146   3.534   1.789   4.917 -0.2873  0.1548  0.6158
 1244TIP3    H125147   3.629   1.786   4.933  0.0835  1.8338 -0.9151
 1244TIP3    H225148   3.497   1.819   5.000  0.1641 -2.9205  2.0753
 1245TIP3   OH225149   3.596   4.508  14.443  0.2983 -0.3086  0.6393
 1245TIP3    H125150   3.600   4.453  14.521 -0.1097 -0.3398  0.6425
 1245TIP3    H225151   3.569   4.594  14.476  0.9624 -0.0929  0.6393
 1246TIP3   OH225152   5.226   1.875   2.532  0.0541 -0.4380 -0.4641
 1246TIP3    H125153   5.287   1.910   2.597 -2.1152 -0.7245  1.8643
 1246TIP3    H225154   5.213   1.784   2.557 -2.3436 -0.0330  0.0046
 1247TIP3   OH225155   3.900   3.827   1.883  0.0003 -0.6447  0.0364
 1247TIP3    H125156   3.941   3.818   1.969 -0.0041  0.4397  0.1707
 1247TIP3    H225157   3.847   3.748   1.873 -0.7098 -0.3772  1.4169
 1248TIP3   OH225158   3.055   6.283  16.096 -0.3143 -0.6350 -0.2536
 1248TIP3    H125159   3.025   6.198  16.128  3.0624 -2.0693 -0.4869
 1248TIP3    H225160   2.990   6.307  16.029 -0.8159 -3.6253 -1.0160
 1249TIP3   OH225161   5.206   1.271  14.300 -0.3706 -0.2559  0.3768
 1249TIP3    H125162   5.130   1.251  14.354 -1.2703 -0.2003 -0.8271
 1249TIP3    H225163   5.174   1.266  14.210  0.7492  0.9621 -0.1278
 1250TIP3   OH225164   0.176   0.016  13.339 -0.2825  0.2022  0.1328
 1250TIP3    H125165   0.187  -0.041  13.415  1.6139 -1.4071 -1.2563
 1250TIP3    H225166   0.202   0.102  13.369  0.4759 -0.4170  1.3096
 1251TIP3   OH225167   3.767   1.422  12.802  0.0451  0.2316 -0.7049
 1251TIP3    H125168   3.702   1.353  12.789 -1.5661  1.7614 -1.3709
 1251TIP3    H225169   3.841   1.379  12.845  0.0543 -2.3467 -3.0290
 1252TIP3   OH225170   5.453   4.712  11.517 -0.3107  0.1496 -0.5787
 1252TIP3    H125171   5.449   4.699  11.422  1.3672 -1.5160 -0.4983
 1252TIP3    H225172   5.511   4.642  11.548  1.2624  2.1588  1.3629
 1253TIP3   OH225173   4.337   2.305  13.826  0.0922  0.0348 -0.3869
 1253TIP3    H125174   4.263   2.338  13.876  0.5878  0.4546  0.0894
 1253TIP3    H225175   4.385   2.383  13.799 -0.3303 -0.1675 -1.8128
 1254TIP3   OH225176   0.734   5.760   3.903 -0.1108  0.0428 -0.2193
 1254TIP3    H125177   0.740   5.668   3.874 -0.7271  0.1930 -0.8339
 1254TIP3    H225178   0.653   5.764   3.954 -0.7025  0.5013 -1.1727
 1255TIP3   OH225179   2.674   3.976  16.561 -0.0325  0.2323  0.4199
 1255TIP3    H125180   2.692   4.038  16.632  0.1535 -0.1632  0.7214
 1255TIP3    H225181   2.687   3.890  16.600 -0.5678 -0.0063  0.0795
 1256TIP3   OH225182   6.761   2.360  11.057 -0.4799  0.2418  0.9052
 1256TIP3    H125183   6.731   2.313  11.134 -1.7261  0.9572  0.8867
 1256TIP3    H225184   6.774   2.450  11.087 -0.3455  0.3880  0.4261
 1257TIP3   OH225185   0.385   0.495   2.336 -0.1079 -0.1528 -0.7684
 1257TIP3    H125186   0.369   0.456   2.422 -1.5244 -0.8636 -1.3254
 1257TIP3    H225187   0.463   0.449   2.304 -1.3006 -2.0668 -1.0925
 1258TIP3   OH225188   0.336   0.138   1.970 -0.0588  0.1548 -0.0154
 1258TIP3    H125189   0.406   0.203   1.962 -0.6296  0.7883 -0.0407
 1258TIP3    H225190   0.324   0.128   2.064  0.0489  0.0716 -0.0112
 1259TIP3   OH225191   3.918   1.627  13.872 -0.1017  0.2457  0.4988
 1259TIP3    H125192   3.844   1.571  13.893 -0.3938  0.6234  0.4838
 1259TIP3    H225193   3.971   1.574  13.812 -0.2135 -0.1297  0.7262
 1260TIP3   OH225194   5.037   5.895  13.327  0.0345  0.2433 -0.5412
 1260TIP3    H125195   5.132   5.906  13.334 -0.2070  1.5854  3.3983
 1260TIP3    H225196   5.017   5.825  13.390 -1.6793  1.0230 -0.1853
 1261TIP3   OH225197   3.474   6.057  13.506 -0.0171  0.1044 -0.2784
 1261TIP3    H125198   3.449   6.130  13.450  0.1605 -0.7401 -1.5052
 1261TIP3    H225199   3.458   6.088  13.595 -0.4027  1.4490 -0.7912
 1262TIP3   OH225200   1.090   2.410  12.573 -0.3807 -0.0854  0.2962
 1262TIP3    H125201   1.165   2.353  12.589 -0.8928 -0.6791  0.6283
 1262TIP3    H225202   1.046   2.372  12.498 -0.4462  0.1645  0.2065
 1263TIP3   OH225203   3.125   5.037  11.709  0.6625  0.1315 -0.1052
 1263TIP3    H125204   3.195   5.032  11.644 -0.2711 -0.6534 -1.1044
 1263TIP3    H225205   3.146   5.113  11.762  2.3963 -0.2412 -0.2120
 1264TIP3   OH225206   3.996   5.340   2.438  0.2869  0.2229 -0.2679
 1264TIP3    H125207   3.915   5.293   2.420  0.6727 -1.0106  1.0539
 1264TIP3    H225208   4.031   5.299   2.517  2.0832  0.8769 -0.6687
 1265TIP3   OH225209   0.643   6.526  11.107 -0.2229  0.3924  0.2375
 1265TIP3    H125210   0.628   6.519  11.201  0.5079  2.1386  0.5375
 1265TIP3    H225211   0.620   6.617  11.086  1.2502  0.5476 -0.9218
 1266TIP3   OH225212   6.159   5.384  16.237  0.3260  0.2009 -0.0623
 1266TIP3    H125213   6.069   5.414  16.232  0.6137  1.1703  0.3341
 1266TIP3    H225214   6.211   5.459  16.208  1.0137 -0.2874 -0.1267
 1267TIP3   OH225215   5.173   6.275   5.166  0.1110 -0.5989  0.5582
 1267TIP3    H125216   5.162   6.181   5.181 -0.0138 -0.9202 -1.2973
 1267TIP3    H225217   5.088   6.313   5.187  0.8332 -0.5061  3.6822
 1268TIP3   OH225218   3.362   5.732  15.054 -0.0726 -0.1331  0.0263
 1268TIP3    H125219   3.351   5.827  15.045  0.4247 -0.2521 -3.1783
 1268TIP3    H225220   3.406   5.706  14.974 -3.6838 -3.5901 -1.1743
 1269TIP3   OH225221   3.879   1.101   0.524  0.1202 -0.0075 -0.1327
 1269TIP3    H125222   3.837   1.046   0.590 -2.9164  1.0870 -1.0046
 1269TIP3    H225223   3.958   1.135   0.568  0.7340 -2.9489  1.2577
 1270TIP3   OH225224   0.887   5.146   0.497 -0.2041 -0.1283  0.0125
 1270TIP3    H125225   0.906   5.063   0.453  0.1720  0.6061 -1.2569
 1270TIP3    H225226   0.834   5.195   0.434  0.7802  1.1582  0.1528
 1271TIP3   OH225227   5.237   3.481  15.522 -0.6355 -0.3802 -0.0916
 1271TIP3    H125228   5.170   3.413  15.522 -0.6619 -0.4944  2.8975
 1271TIP3    H225229   5.289   3.464  15.600 -0.2627  2.6268  0.4554
 1272TIP3   OH225230   6.602   2.191  11.407 -0.2654  0.8115 -0.5299
 1272TIP3    H125231   6.679   2.155  11.362 -1.8010 -1.7211 -1.2642
 1272TIP3    H225232   6.545   2.117  11.422 -1.5912  2.2231  2.1770
 1273TIP3   OH225233   2.071   1.202   4.270  0.0598 -0.5952 -0.1425
 1273TIP3    H125234   2.162   1.230   4.264 -0.3512  0.7884 -0.0706
 1273TIP3    H225235   2.068   1.148   4.349  0.6512  0.0154  0.3051
 1274TIP3   OH225236   0.905   1.033   5.827 -0.7134 -0.2664 -0.4746
 1274TIP3    H125237   0.959   1.024   5.906 -0.6427 -1.7312 -0.6720
 1274TIP3    H225238   0.847   1.108   5.846  0.5183  0.5406  0.2291
 1275TIP3   OH225239   1.071   2.995  14.532  0.1717  0.5596 -0.3508
 1275TIP3    H125240   1.162   2.966  14.541  0.2093  0.5352 -0.7897
 1275TIP3    H225241   1.044   2.963  14.446 -0.6708 -0.5605  0.3050
 1276TIP3   OH225242   4.113   5.958   0.053 -0.4766  0.4223 -0.0069
 1276TIP3    H125243   4.114   5.881  -0.004  0.6543 -1.0317  1.8265
 1276TIP3    H225244   4.183   6.014   0.019  1.6636 -1.4182  1.0887
 1277TIP3   OH225245   0.314   3.859  11.098 -0.1142 -0.5610  0.3568
 1277TIP3    H125246   0.262   3.810  11.035 -0.5920 -0.3143  0.5557
 1277TIP3    H225247   0.400   3.866  11.058 -0.0185 -1.6239  0.3605
 1278TIP3   OH225248   0.103   0.464   3.375 -0.1789  0.4287 -0.0320
 1278TIP3    H125249   0.034   0.530   3.374  1.0527  1.8295 -2.3567
 1278TIP3    H225250   0.160   0.490   3.447 -1.0393  0.3581  0.6972
 1279TIP3   OH225251   2.939   3.092  12.811 -0.3890 -0.1350  0.8400
 1279TIP3    H125252   2.907   3.147  12.740  1.0259  2.2577  1.9357
 1279TIP3    H225253   3.004   3.035  12.770 -1.1841 -0.3442 -0.1552
 1280TIP3   OH225254   3.726   3.729   3.960 -0.4244  0.2294 -0.2233
 1280TIP3    H125255   3.681   3.708   4.041 -0.2505  0.9731  0.0755
 1280TIP3    H225256   3.735   3.645   3.915 -1.2431 -0.0705  0.1503
 1281TIP3   OH225257   0.748   3.383  14.018  0.3289 -0.1311  0.3907
 1281TIP3    H125258   0.711   3.412  13.935 -0.1439 -0.3088  0.5367
 1281TIP3    H225259   0.842   3.387  14.005  0.3631 -3.3787 -1.3191
 1282TIP3   OH225260   4.882   4.549  14.811 -0.3745 -0.0104 -0.2823
 1282TIP3    H125261   4.915   4.498  14.885  0.6400  0.4992 -0.3588
 1282TIP3    H225262   4.909   4.639  14.830  0.1291  0.0922 -1.3807
 1283TIP3   OH225263   1.156   2.745   3.874 -0.4866 -0.0411  0.3923
 1283TIP3    H125264   1.085   2.810   3.885  0.4521  1.0504  0.1845
 1283TIP3    H225265   1.207   2.753   3.955  0.5470  0.6317 -0.3116
 1284TIP3   OH225266   4.919   2.926   3.338 -0.6838 -0.0109  0.4530
 1284TIP3    H125267   4.832   2.944   3.375 -1.0761  2.1584 -1.2767
 1284TIP3    H225268   4.904   2.924   3.243  1.1391  0.3689  0.1260
 1285TIP3   OH225269   0.306   1.697   0.908  0.0757  0.3142 -0.6113
 1285TIP3    H125270   0.371   1.761   0.879 -0.8454  0.9010 -1.4616
 1285TIP3    H225271   0.305   1.631   0.838 -0.0355  0.1642 -0.4685
 1286TIP3   OH225272   4.587   1.806   0.306  0.2797  0.4045  0.0721
 1286TIP3    H125273   4.658   1.870   0.314  0.1874  0.3273  2.0545
 1286TIP3    H225274   4.582   1.787   0.213  2.6514  0.6651 -0.1695
 1287TIP3   OH225275   4.358   4.693  15.156  0.1080  0.1048  0.6767
 1287TIP3    H125276   4.278   4.649  15.127 -0.7412  1.7217  0.4239
 1287TIP3    H225277   4.375   4.658  15.243 -1.5865  0.5992  1.2499
 1288TIP3   OH225278   3.550   1.414   5.478 -0.7500  0.3431 -0.2766
 1288TIP3    H125279   3.564   1.506   5.499 -0.6432  0.6979 -1.8094
 1288TIP3    H225280   3.455   1.403   5.479 -0.7578  0.4403  0.0335
 1289TIP3   OH225281   4.861   3.524   4.467 -0.3761  0.1358 -0.2519
 1289TIP3    H125282   4.837   3.609   4.432 -2.5181  0.4201  1.6911
 1289TIP3    H225283   4.894   3.543   4.555  0.2489 -0.9491 -0.2324
 1290TIP3   OH225284   2.317   5.114  11.345  0.2281 -0.4406 -0.5455
 1290TIP3    H125285   2.405   5.079  11.356  1.4589  1.6404 -2.6311
 1290TIP3    H225286   2.325   5.207  11.367 -2.0296 -0.5676  1.3210
 1291TIP3   OH225287   0.211   0.859  13.949 -0.9589 -0.1159  0.6686
 1291TIP3    H125288   0.168   0.913  13.883  0.7225  1.9912  1.1721
 1291TIP3    H225289   0.161   0.876  14.029  0.0934  1.5101  1.0270
 1292TIP3   OH225290   1.015   5.926  12.090  0.7143  0.2530 -0.8284
 1292TIP3    H125291   1.086   5.911  12.152 -0.9090 -1.4231  0.7741
 1292TIP3    H225292   0.938   5.941  12.145 -0.5711 -0.0187 -2.4562
 1293TIP3   OH225293   5.870   4.922   4.778 -0.5619  0.3513  0.8262
 1293TIP3    H125294   5.788   4.901   4.822 -0.3645 -0.7737  0.6936
 1293TIP3    H225295   5.852   5.002   4.729 -1.3496  0.5333  1.4010
 1294TIP3   OH225296   3.132   1.075  16.608 -0.5038 -0.0936  0.1437
 1294TIP3    H125297   3.057   1.120  16.646  0.8517  2.0750  0.4069
 1294TIP3    H225298   3.187   1.052  16.683 -0.5211 -0.9897 -0.1042
 1295TIP3   OH225299   2.680   4.042   6.505 -0.4881  0.2098 -0.0320
 1295TIP3    H125300   2.723   3.956   6.506 -1.3896 -0.2422  0.2937
 1295TIP3    H225301   2.594   4.026   6.542 -0.3676  1.4269  0.7910
 1296TIP3   OH225302   6.011   6.353  15.849 -0.1671 -0.2528  0.2044
 1296TIP3    H125303   6.088   6.354  15.906 -0.7420  0.9012  0.9958
 1296TIP3    H225304   5.944   6.398  15.899 -0.9941 -0.1161 -0.9944
 1297TIP3   OH225305   1.921   4.320  13.479 -0.4302 -0.3698 -0.2905
 1297TIP3    H125306   1.870   4.383  13.529  0.4644 -1.0808  1.5990
 1297TIP3    H225307   1.921   4.354  13.389  3.0035  4.3770  1.1258
 1298TIP3   OH225308   6.030   4.065  13.851  0.1879  0.6915 -0.5976
 1298TIP3    H125309   6.094   4.042  13.784 -0.1972 -0.0661 -0.7184
 1298TIP3    H225310   5.945   4.053  13.808 -0.2562 -3.4251  1.0176
 1299TIP3   OH225311   3.789   2.612   4.275  0.2583  0.0349 -0.4077
 1299TIP3    H125312   3.863   2.552   4.281 -1.3003 -1.9328  0.6892
 1299TIP3    H225313   3.714   2.555   4.256 -1.1610  1.8005 -0.4048
 1300TIP3   OH225314   3.571   3.473  12.713 -0.3666  0.0591 -0.5257
 1300TIP3    H125315   3.544   3.561  12.737  0.7296  0.7099 -1.5289
 1300TIP3    H225316   3.637   3.486  12.644  0.3153 -1.5109 -0.2293
 1301TIP3   OH225317   6.423   4.877   5.169 -0.4338 -0.1189  0.4596
 1301TIP3    H125318   6.339   4.833   5.155  0.3195 -1.1694 -0.9504
 1301TIP3    H225319   6.428   4.941   5.098 -0.7105  1.0777  1.4627
 1302TIP3   OH225320   3.966   3.580   2.480 -0.1615  0.2104  0.8181
 1302TIP3    H125321   3.941   3.672   2.487  2.7755  1.2331 -0.5180
 1302TIP3    H225322   4.018   3.563   2.558  2.4660  0.9119 -0.6711
 1303TIP3   OH225323   1.353   5.547  17.198  0.4634  0.2246  0.6639
 1303TIP3    H125324   1.266   5.558  17.162  0.5423  2.4815  1.0651
 1303TIP3    H225325   1.364   5.619  17.260  1.3449 -1.9346  3.2375
 1304TIP3   OH225326   2.907   5.812   6.033  0.7765 -0.3885 -0.3849
 1304TIP3    H125327   2.986   5.804   5.980  0.8571  0.5127 -0.4174
 1304TIP3    H225328   2.933   5.867   6.106 -0.2431  1.4174 -1.3111
 1305TIP3   OH225329   3.020   5.332  15.617  0.3142  0.1154  0.0642
 1305TIP3    H125330   3.068   5.276  15.679  0.8833 -0.9133 -1.2608
 1305TIP3    H225331   3.088   5.372  15.564 -0.1952  0.5300 -0.2780
 1306TIP3   OH225332   0.642   4.734   1.165  0.4765  0.0805  0.8264
 1306TIP3    H125333   0.616   4.795   1.234  1.6719  0.3095  1.0908
 1306TIP3    H225334   0.729   4.705   1.190  0.4462 -0.7514  0.0234
 1307TIP3   OH225335   0.398   2.962   0.808  0.0876  0.1231  0.4108
 1307TIP3    H125336   0.396   3.011   0.726 -1.0749  1.2574  1.0751
 1307TIP3    H225337   0.338   3.009   0.865 -0.0233 -1.3198  1.5402
 1308TIP3   OH225338   4.903   3.705  14.492  0.2586 -0.1053 -0.2019
 1308TIP3    H125339   4.920   3.747  14.576  1.4372  0.7076 -0.8272
 1308TIP3    H225340   4.988   3.703  14.448 -0.4718  0.1270 -1.6712
 1309TIP3   OH225341   2.972   1.162   1.403  0.0919 -0.2298 -0.2362
 1309TIP3    H125342   2.923   1.082   1.387 -1.6903  0.5722  0.8555
 1309TIP3    H225343   2.905   1.231   1.401  1.7570  1.5012 -2.8096
 1310TIP3   OH225344   5.723   5.638   3.585  0.1272 -0.2767  0.5507
 1310TIP3    H125345   5.744   5.602   3.671  0.8245 -0.7080  0.2071
 1310TIP3    H225346   5.790   5.704   3.568  0.5463 -0.8368 -0.0439
 1311TIP3   OH225347   2.409   0.795   5.219  0.2499  0.4305  0.2064
 1311TIP3    H125348   2.493   0.770   5.181 -1.1255 -1.0607 -2.0610
 1311TIP3    H225349   2.370   0.853   5.154 -1.2402 -0.3993  0.3214
 1312TIP3   OH225350   0.625   2.941   1.733  0.0265  0.3329  0.2000
 1312TIP3    H125351   0.601   2.968   1.645  0.3462 -0.5225 -0.1638
 1312TIP3    H225352   0.694   3.002   1.759  0.5070  0.0872 -0.4673
 1313TIP3   OH225353   2.163   1.630  14.412 -0.0373  0.1447  0.1055
 1313TIP3    H125354   2.215   1.556  14.444 -0.3505 -1.1728 -2.2149
 1313TIP3    H225355   2.104   1.592  14.347 -0.3049  2.4022 -1.0876
 1314TIP3   OH225356   2.681   0.027  15.653 -0.2671  0.3727 -0.4525
 1314TIP3    H125357   2.760   0.017  15.705 -2.1409  0.8936  2.7195
 1314TIP3    H225358   2.673   0.121  15.637 -0.9462  0.4809  0.4654
 1315TIP3   OH225359   0.717   1.970   2.665 -0.3223  0.1100  0.0584
 1315TIP3    H125360   0.810   1.991   2.673 -0.1348  0.5683 -2.4026
 1315TIP3    H225361   0.715   1.875   2.653 -0.0709  0.1799 -0.6179
 1316TIP3   OH225362   6.516   0.934  12.899 -0.4676 -0.1622 -0.0536
 1316TIP3    H125363   6.539   0.847  12.932 -0.2372  0.3113  1.0727
 1316TIP3    H225364   6.513   0.923  12.804 -0.8483 -1.4943  0.0896
 1317TIP3   OH225365   2.081   3.509  17.229  0.0623  0.2451 -0.3152
 1317TIP3    H125366   2.173   3.526  17.209  0.4703  1.5349  2.2114
 1317TIP3    H225367   2.079   3.493  17.323 -2.3410  0.5996 -0.2329
 1318TIP3   OH225368   2.925   2.463  13.937 -0.0702 -0.1246 -0.0049
 1318TIP3    H125369   2.838   2.470  13.977  0.8240  0.5806  1.8785
 1318TIP3    H225370   2.986   2.459  14.010  1.6425  1.0532 -1.2803
 1319TIP3   OH225371   4.581   5.074   4.722  0.7629 -0.0393  0.1108
 1319TIP3    H125372   4.597   4.981   4.707 -0.1017 -0.0773 -0.6636
 1319TIP3    H225373   4.494   5.077   4.763  0.2145  0.4993 -1.0576
 1320TIP3   OH225374   1.859   2.673  11.832 -0.2808  0.5319  0.7988
 1320TIP3    H125375   1.813   2.596  11.864  0.0663  0.9796  2.5319
 1320TIP3    H225376   1.944   2.669  11.876  0.3628  1.0623 -0.3492
 1321TIP3   OH225377   2.501   5.254   4.423  0.7386  0.2546 -0.6100
 1321TIP3    H125378   2.437   5.236   4.354  1.3710 -1.4816 -0.7728
 1321TIP3    H225379   2.577   5.288   4.378  0.5809  0.6323 -0.5952
 1322TIP3   OH225380   4.871   2.847  13.948  0.2866  0.2800 -0.0856
 1322TIP3    H125381   4.872   2.942  13.932 -0.4891  0.1809 -0.7798
 1322TIP3    H225382   4.961   2.826  13.972  0.4051  1.2377  0.3256
 1323TIP3   OH225383   6.318   6.278   5.854 -0.0393 -0.3498  0.0237
 1323TIP3    H125384   6.312   6.327   5.772 -2.3642  1.0059  0.9407
 1323TIP3    H225385   6.315   6.186   5.826  2.4258 -0.0565 -1.5705
 1324TIP3   OH225386   5.109   4.550   2.284 -0.0521  0.6244 -0.7466
 1324TIP3    H125387   5.058   4.487   2.334  1.0590 -0.4459 -0.9355
 1324TIP3    H225388   5.054   4.571   2.208  0.0066 -0.9318 -1.2382
 1325TIP3   OH225389   1.622   5.961   0.727  0.3142  0.5050  0.2398
 1325TIP3    H125390   1.705   5.968   0.774 -0.0352  3.4822  0.6183
 1325TIP3    H225391   1.563   6.020   0.774 -2.3423 -2.1028  0.4977
 1326TIP3   OH225392   2.269   2.653  13.582 -0.6161 -0.0208 -0.7021
 1326TIP3    H125393   2.209   2.716  13.542 -0.7121 -0.3015 -0.9995
 1326TIP3    H225394   2.306   2.700  13.657 -1.2992  0.1080 -0.4376
 1327TIP3   OH225395   4.946   3.756  12.674 -0.1228  0.0550  0.7600
 1327TIP3    H125396   4.995   3.681  12.639  0.6089  0.3421  1.1398
 1327TIP3    H225397   4.929   3.733  12.765 -1.1989 -0.2832  0.4821
 1328TIP3   OH225398   0.680   3.641   3.123 -0.4404  0.0566  0.5584
 1328TIP3    H125399   0.601   3.589   3.113 -0.6484  0.3673  0.5719
 1328TIP3    H225400   0.692   3.649   3.218 -0.0743 -0.4636  0.5635
 1329TIP3   OH225401   0.806   5.051  13.839 -0.2102  0.0856 -0.1865
 1329TIP3    H125402   0.888   5.021  13.799 -0.4594 -0.9667  0.0430
 1329TIP3    H225403   0.824   5.140  13.868  0.7644 -0.0336 -0.3975
 1330TIP3   OH225404   2.455   3.722   0.434 -0.0568 -0.4394 -0.9014
 1330TIP3    H125405   2.372   3.720   0.481  0.4965  0.6607  0.1862
 1330TIP3    H225406   2.431   3.727   0.341 -1.2458  1.2904 -0.5426
 1331TIP3   OH225407   6.295   1.755  14.840  0.3963 -0.2519 -0.3838
 1331TIP3    H125408   6.293   1.824  14.907  2.5266  0.6057 -1.1129
 1331TIP3    H225409   6.232   1.690  14.870  0.2882  0.7574  1.7257
 1332TIP3   OH225410   5.437   1.956  15.524 -0.0656 -0.0303 -0.5056
 1332TIP3    H125411   5.381   2.029  15.548 -0.8946 -0.2843 -1.5537
 1332TIP3    H225412   5.526   1.986  15.543 -0.5634  0.1494  1.7718
 1333TIP3   OH225413   5.526   3.129  16.880  0.2378 -0.5712 -0.0796
 1333TIP3    H125414   5.586   3.134  16.805 -0.1101 -0.3256 -0.3458
 1333TIP3    H225415   5.582   3.105  16.954  0.7000 -0.1550 -0.2858
 1334TIP3   OH225416   3.821   0.395  16.217 -0.0397 -0.2735  0.2478
 1334TIP3    H125417   3.859   0.311  16.241 -0.5116 -0.2344  1.2160
 1334TIP3    H225418   3.896   0.453  16.205  0.2516 -0.3600  1.4819
 1335TIP3   OH225419   6.093   2.519  15.198  0.1871  0.3229 -0.1596
 1335TIP3    H125420   6.046   2.602  15.211  0.9303  0.4683  2.2673
 1335TIP3    H225421   6.025   2.453  15.194 -0.4150  0.9965 -1.9876
 1336TIP3   OH225422   4.286   6.347  16.098 -0.3842  0.2480  0.3152
 1336TIP3    H125423   4.267   6.302  16.015  0.2028  1.3992 -0.4707
 1336TIP3    H225424   4.293   6.277  16.162 -0.8686 -0.6730 -0.6067
 1337TIP3   OH225425   1.917   3.256   5.044  0.0508  0.2664  0.2147
 1337TIP3    H125426   1.821   3.261   5.052 -0.3258  0.7648 -3.1925
 1337TIP3    H225427   1.938   3.166   5.066 -1.2185  0.0971  0.8491
 1338TIP3   OH225428   0.061   4.889  13.525  0.1421  0.0778 -0.2895
 1338TIP3    H125429   0.084   4.877  13.433  1.1402 -0.4034  0.0042
 1338TIP3    H225430  -0.015   4.833  13.538  0.2946 -0.2389 -0.7078
 1339TIP3   OH225431   5.258   4.623   2.059  0.3465 -0.1340  0.0907
 1339TIP3    H125432   5.251   4.595   2.150 -0.5559 -0.5665 -0.0929
 1339TIP3    H225433   5.196   4.567   2.012  0.3392  0.5030 -0.6880
 1340TIP3   OH225434   2.027   0.086  11.585  0.1896 -0.1255  0.5523
 1340TIP3    H125435   1.967   0.160  11.575  1.1301  0.7549  1.1540
 1340TIP3    H225436   2.112   0.127  11.603  0.8646 -1.3511  0.2353
 1341TIP3   OH225437   0.818   3.509  11.770 -0.2314  0.8548  0.3069
 1341TIP3    H125438   0.847   3.420  11.753  0.4832  0.5641  2.6990
 1341TIP3    H225439   0.784   3.540  11.686  0.1560 -1.4013 -0.7437
 1342TIP3   OH225440   6.312   6.120   1.651 -0.5466  0.7858  0.6985
 1342TIP3    H125441   6.268   6.073   1.722 -0.8622 -1.5776 -0.9373
 1342TIP3    H225442   6.245   6.130   1.583  0.5241  0.0934 -0.5186
 1343TIP3   OH225443   4.362   5.205  16.195  0.5181 -0.4261  0.6780
 1343TIP3    H125444   4.450   5.198  16.157  0.8970 -1.1951  1.6461
 1343TIP3    H225445   4.310   5.249  16.128  1.7479  0.4407  0.2582
 1344TIP3   OH225446   5.058   6.076   3.001  0.4540  0.2206 -0.4084
 1344TIP3    H125447   5.015   6.004   2.955  0.0481 -1.8113  2.9021
 1344TIP3    H225448   5.150   6.068   2.977  0.1370 -0.1047 -1.6267
 1345TIP3   OH225449   4.154   0.790   5.927 -0.5748  0.1666  0.1492
 1345TIP3    H125450   4.110   0.715   5.890 -0.3934  0.2320 -0.1982
 1345TIP3    H225451   4.118   0.797   6.016 -0.3604 -0.5146  0.2955
 1346TIP3   OH225452   3.575   2.839   5.054  0.7238  0.5907  0.5042
 1346TIP3    H125453   3.641   2.837   5.124  1.3676  1.8575 -0.0340
 1346TIP3    H225454   3.613   2.785   4.984 -0.0365 -0.8922  1.1990
 1347TIP3   OH225455   6.388   4.276   3.454 -0.0520 -0.0680  0.0669
 1347TIP3    H125456   6.477   4.245   3.433  0.7627  1.1487  1.4916
 1347TIP3    H225457   6.346   4.286   3.368  1.3612 -0.1834 -0.6823
 1348TIP3   OH225458   5.544   2.129   0.290  0.1748 -0.1294  0.2052
 1348TIP3    H125459   5.450   2.145   0.295  0.0123 -1.0068  0.1855
 1348TIP3    H225460   5.577   2.153   0.377 -0.3068 -1.1899  0.7045
 1349TIP3   OH225461   1.184   1.310  16.002 -0.5244  0.3203  0.1373
 1349TIP3    H125462   1.221   1.289  15.916 -4.3624 -2.2118 -1.1566
 1349TIP3    H225463   1.113   1.372  15.983 -0.7165  0.5824  1.6298
 1350TIP3   OH225464   5.119   4.604  10.511  0.0781 -0.0626 -0.0579
 1350TIP3    H125465   5.101   4.513  10.488 -1.4308  0.2707 -0.3233
 1350TIP3    H225466   5.034   4.648  10.503  0.5510  1.1468  1.1305
 1351TIP3   OH225467   3.370   3.100   0.940  0.2982  0.0209  0.3258
 1351TIP3    H125468   3.321   3.164   0.888  2.1480  1.3596  0.0908
 1351TIP3    H225469   3.344   3.015   0.906  0.3181  0.8060 -1.7906
 1352TIP3   OH225470   6.268   1.855   5.157 -0.4498 -0.4090  0.3164
 1352TIP3    H125471   6.292   1.762   5.158 -0.7010 -0.4740  0.3972
 1352TIP3    H225472   6.322   1.893   5.087  1.6047 -0.0776  1.9622
 1353TIP3   OH225473   5.478   5.956   1.691  0.6834  0.3671 -0.0320
 1353TIP3    H125474   5.481   5.932   1.598  0.8594 -0.4304  0.1697
 1353TIP3    H225475   5.506   5.876   1.737 -1.3657  0.0716  0.8105
 1354TIP3   OH225476   4.478   5.077  13.873 -0.0229  0.2248 -0.3301
 1354TIP3    H125477   4.389   5.055  13.843 -0.0805 -0.8686  0.5903
 1354TIP3    H225478   4.524   5.104  13.793 -0.8058 -0.4738 -1.0375
 1355TIP3   OH225479   1.915   4.624   0.509  0.0151  0.1423  0.0868
 1355TIP3    H125480   1.960   4.707   0.495  1.5930 -1.0797 -3.3761
 1355TIP3    H225481   1.844   4.625   0.444 -1.4944 -0.2650  1.6707
 1356TIP3   OH225482   2.944   0.603   5.560 -0.4242  0.0899 -0.0512
 1356TIP3    H125483   3.026   0.591   5.609 -0.5815  1.2369  0.5192
 1356TIP3    H225484   2.956   0.686   5.514 -1.7730  0.9657  1.1098
 1357TIP3   OH225485   4.208   1.404  16.968 -0.0512 -0.7027  0.6268
 1357TIP3    H125486   4.240   1.481  16.921  0.2980 -2.2127 -1.7560
 1357TIP3    H225487   4.172   1.439  17.050  0.8761  1.8659  0.0202
 1358TIP3   OH225488   4.721   1.194   5.692  0.5096  0.2053 -0.0936
 1358TIP3    H125489   4.679   1.137   5.627  1.2095 -0.5363  0.0927
 1358TIP3    H225490   4.770   1.258   5.640 -0.3587  0.7166 -0.3048
 1359TIP3   OH225491   3.415   4.017  16.703  0.1652 -0.8212  0.0403
 1359TIP3    H125492   3.410   3.999  16.797 -1.9133  0.3707  0.2284
 1359TIP3    H225493   3.476   4.091  16.695  1.0794 -1.5336  0.3252
 1360TIP3   OH225494   1.004   6.606  13.284 -0.1703  0.3892  0.2104
 1360TIP3    H125495   0.918   6.610  13.326 -0.5093 -0.2259 -0.3920
 1360TIP3    H225496   1.048   6.532  13.325 -0.3123  0.0943 -0.1617
 1361TIP3   OH225497   6.610   2.978   6.110 -0.9881 -0.2764  0.8747
 1361TIP3    H125498   6.593   2.888   6.138 -0.4868 -0.1439  1.6277
 1361TIP3    H225499   6.527   3.023   6.124 -0.7665 -0.2236  2.1380
 1362TIP3   OH225500   4.854   0.560  10.829  0.2399 -0.8891 -0.6942
 1362TIP3    H125501   4.907   0.543  10.751  1.9524  0.5767  0.0970
 1362TIP3    H225502   4.911   0.540  10.903 -1.2347 -1.8932  0.2478
 1363TIP3   OH225503   2.739   5.730  15.404 -0.0403 -0.2416 -0.2941
 1363TIP3    H125504   2.756   5.657  15.345 -1.7364 -1.5153  0.6904
 1363TIP3    H225505   2.773   5.701  15.489 -1.7547 -0.4457  0.3724
 1364TIP3   OH225506   4.301   1.632   4.227 -0.0162 -0.1535 -0.2772
 1364TIP3    H125507   4.214   1.592   4.224 -1.2562  2.3881 -3.2478
 1364TIP3    H225508   4.360   1.560   4.205 -1.4215 -1.6777  0.6426
 1365TIP3   OH225509   6.505   2.229   5.317  0.4808  0.3918 -0.7802
 1365TIP3    H125510   6.434   2.290   5.338  1.9302  1.4582  1.3873
 1365TIP3    H225511   6.476   2.145   5.353  1.0034  1.2201  1.7409
 1366TIP3   OH225512   0.575   3.529   1.698 -0.0528 -0.0421 -0.1695
 1366TIP3    H125513   0.486   3.512   1.728  0.4164 -2.1040  0.1992
 1366TIP3    H225514   0.587   3.471   1.623  1.1943 -0.3039  0.2028
 1367TIP3   OH225515   2.927   4.493  11.234  0.4149  0.0912 -0.3023
 1367TIP3    H125516   2.892   4.406  11.212  0.3828  0.0193  0.0307
 1367TIP3    H225517   2.961   4.526  11.151 -0.4684  0.1776 -0.6407
 1368TIP3   OH225518   0.061   6.691  15.253 -0.2262 -0.2174  0.2467
 1368TIP3    H125519   0.018   6.774  15.274  0.0155  0.0278 -0.2234
 1368TIP3    H225520   0.154   6.712  15.246 -0.1257 -0.5861  0.4327
 1369TIP3   OH225521   4.223   2.697   0.342 -0.2148  0.0880  0.1835
 1369TIP3    H125522   4.154   2.763   0.352 -0.0652  0.0993  1.1846
 1369TIP3    H225523   4.278   2.731   0.271  1.0247  2.1004  1.9938
 1370TIP3   OH225524   2.546   0.050   4.158  0.7768  0.1332 -0.8763
 1370TIP3    H125525   2.489  -0.026   4.173  0.1443  0.5957 -0.8914
 1370TIP3    H225526   2.618   0.039   4.219 -0.5287  0.7516  0.8618
 1371TIP3   OH225527   4.884   2.472   3.084  0.1804 -0.2332 -0.4894
 1371TIP3    H125528   4.793   2.442   3.088  0.4373 -0.8854  1.1385
 1371TIP3    H225529   4.910   2.481   3.175  1.9107 -0.5249 -0.9289
 1372TIP3   OH225530   4.203   4.875   2.928 -0.3775 -0.0040 -0.2584
 1372TIP3    H125531   4.143   4.827   2.985 -1.3287  1.0251 -0.3648
 1372TIP3    H225532   4.228   4.952   2.978 -0.0967  0.1885 -0.6851
 1373TIP3   OH225533   5.871   2.649   4.520  0.1707 -0.0468  0.2731
 1373TIP3    H125534   5.806   2.658   4.451  0.2664  0.7613  0.2809
 1373TIP3    H225535   5.937   2.716   4.501 -0.1220  0.6314  1.4844
 1374TIP3   OH225536   0.240   5.548  10.935 -0.8267 -0.0705 -0.0212
 1374TIP3    H125537   0.324   5.589  10.955 -1.0187  1.7539 -2.4124
 1374TIP3    H225538   0.255   5.504  10.851 -2.0926 -0.2374 -0.1735
 1375TIP3   OH225539   5.270   0.164   5.355  0.3844  0.3279 -0.0125
 1375TIP3    H125540   5.228   0.081   5.374 -0.9295  0.2662 -2.7117
 1375TIP3    H225541   5.355   0.158   5.399  0.5076 -2.6028 -0.4329
 1376TIP3   OH225542   2.620   0.747  15.870 -0.3103  0.1563  0.0473
 1376TIP3    H125543   2.690   0.750  15.806 -0.2545 -3.1968 -0.2087
 1376TIP3    H225544   2.543   0.779  15.824  0.5331  1.7322 -0.3414
 1377TIP3   OH225545   5.362   4.050   2.371 -0.3370 -0.4872  0.0646
 1377TIP3    H125546   5.448   4.053   2.413 -0.7950 -0.1765  0.9930
 1377TIP3    H225547   5.348   3.956   2.354 -0.0353 -0.5893  0.3622
 1378TIP3   OH225548   2.024   2.597  10.791 -0.6088  0.0835 -0.0969
 1378TIP3    H125549   2.072   2.615  10.710 -0.8082 -0.4176 -0.3333
 1378TIP3    H225550   1.967   2.673  10.802  2.5811  2.3865  2.0297
 1379TIP3   OH225551   5.475   2.706   4.955  0.5467 -0.2470  0.4875
 1379TIP3    H125552   5.485   2.717   5.050 -0.4630 -0.3654  0.6188
 1379TIP3    H225553   5.562   2.721   4.920  0.6093  1.4967  1.2836
 1380TIP3   OH225554   4.247   2.707  16.158 -0.2844 -0.3042 -0.2101
 1380TIP3    H125555   4.220   2.620  16.189  1.4609 -0.3302  1.4132
 1380TIP3    H225556   4.165   2.750  16.134 -1.2806 -2.0505 -0.1393
 1381TIP3   OH225557   0.830   2.975   4.801 -0.1281 -0.2974  0.0155
 1381TIP3    H125558   0.737   2.991   4.788  0.0942  0.1607 -1.1232
 1381TIP3    H225559   0.865   2.961   4.712  1.1445  0.9975  0.2662
 1382TIP3   OH225560   5.006   1.681  12.426  0.0662 -0.2133  0.2904
 1382TIP3    H125561   4.971   1.592  12.430  0.3939 -0.3173  2.4520
 1382TIP3    H225562   5.056   1.690  12.508  0.3817  1.8137 -0.0752
 1383TIP3   OH225563   3.709   0.854   2.319  0.0010  0.3342 -0.2006
 1383TIP3    H125564   3.705   0.766   2.282 -0.9145  0.1714  0.2663
 1383TIP3    H225565   3.772   0.847   2.391 -1.6846 -0.5035  1.2629
 1384TIP3   OH225566   0.834   1.004  10.773 -0.1595  0.1023 -0.1107
 1384TIP3    H125567   0.912   1.045  10.810 -1.5344  1.5194  1.3632
 1384TIP3    H225568   0.834   1.032  10.681 -0.0197  1.8218  0.3852
 1385TIP3   OH225569   4.884   6.294   2.987  0.1362 -0.4690 -0.0409
 1385TIP3    H125570   4.961   6.238   2.997  0.3253 -0.2467 -0.2305
 1385TIP3    H225571   4.818   6.238   2.946  0.1535 -0.6981  0.2438
 1386TIP3   OH225572   4.950   6.473  15.547  0.4565 -0.0317  0.1477
 1386TIP3    H125573   4.870   6.457  15.597  1.3341 -0.8718  1.3224
 1386TIP3    H225574   5.021   6.448  15.606  1.5175 -2.3833 -1.9209
 1387TIP3   OH225575   1.407   1.314   1.635  0.1342 -0.1533  0.2983
 1387TIP3    H125576   1.334   1.360   1.676 -0.4502 -0.8819  0.0987
 1387TIP3    H225577   1.371   1.279   1.554  0.1209 -2.2434  1.1535
 1388TIP3   OH225578   4.143   3.509  12.027 -0.3180 -0.1759  0.6323
 1388TIP3    H125579   4.179   3.597  12.019  1.1248 -0.7412  0.5705
 1388TIP3    H225580   4.076   3.504  11.959  0.7524  0.3201 -0.4976
 1389TIP3   OH225581   3.186   3.796  11.821 -0.4410 -0.5659  0.1410
 1389TIP3    H125582   3.098   3.833  11.819 -0.1318  0.2456  1.0159
 1389TIP3    H225583   3.224   3.827  11.903 -1.1665 -5.2219  2.5259
 1390TIP3   OH225584   3.454   4.788  11.979 -0.2637 -0.4281  0.7360
 1390TIP3    H125585   3.511   4.832  12.042 -1.5512  0.4564  1.3380
 1390TIP3    H225586   3.372   4.838  11.982  0.0871  0.6578 -2.8170
 1391TIP3   OH225587   1.869   0.114   0.383  0.0730 -0.0563 -0.3192
 1391TIP3    H125588   1.948   0.081   0.341 -0.6561 -1.0615 -0.9537
 1391TIP3    H225589   1.826   0.165   0.314 -0.0466  0.1138 -0.1160
 1392TIP3   OH225590   0.970   6.025  15.387  1.0517  0.4390 -0.3192
 1392TIP3    H125591   0.996   5.957  15.325  0.5512 -0.8842  0.8990
 1392TIP3    H225592   0.907   6.078  15.338  2.6695  1.0702 -1.8308
 1393TIP3   OH225593   1.429   2.898   6.753  0.6007  0.6141 -0.0562
 1393TIP3    H125594   1.390   2.812   6.769  1.7278 -0.0846 -0.9226
 1393TIP3    H225595   1.437   2.936   6.841  0.7034 -0.4553  0.4249
 1394TIP3   OH225596   5.462   6.192  12.660 -0.2807 -0.1825  0.1409
 1394TIP3    H125597   5.427   6.276  12.632  1.0932 -0.6570 -3.5520
 1394TIP3    H225598   5.406   6.127  12.617  1.5009 -1.0081 -1.0469
 1395TIP3   OH225599   0.077   0.979  15.447 -0.2364  0.5105 -0.1493
 1395TIP3    H125600   0.015   0.917  15.486  1.0268 -1.2395 -0.7993
 1395TIP3    H225601   0.045   1.065  15.474 -2.0392 -0.4068  0.8222
 1396TIP3   OH225602   1.836   3.942  14.598  0.1254 -0.0654  0.2399
 1396TIP3    H125603   1.898   3.870  14.590  1.0750  0.4903  2.0628
 1396TIP3    H225604   1.793   3.928  14.683 -0.6522  0.7733  0.0042
 1397TIP3   OH225605   5.703   3.713   1.259 -0.6836 -0.2369  0.5952
 1397TIP3    H125606   5.688   3.746   1.171 -1.6829 -0.0178  0.8287
 1397TIP3    H225607   5.731   3.622   1.246 -0.3537 -0.0603  0.0416
 1398TIP3   OH225608   4.294   1.069   3.828  0.3442  0.1459 -0.7379
 1398TIP3    H125609   4.314   1.036   3.741  0.5075 -0.9138 -0.3148
 1398TIP3    H225610   4.362   1.134   3.846  0.8160 -0.2537 -1.0567
 1399TIP3   OH225611   3.542   6.041  10.933 -0.0652  0.3756 -0.3470
 1399TIP3    H125612   3.494   6.115  10.968 -0.4362  0.4085 -0.9170
 1399TIP3    H225613   3.492   5.964  10.961 -0.4206  0.4063 -0.8789
 1400TIP3   OH225614   6.599   3.981   1.217 -0.4970 -0.1765 -0.1969
 1400TIP3    H125615   6.643   4.016   1.140 -1.3032 -1.0974 -1.0913
 1400TIP3    H225616   6.667   3.982   1.285  1.2372 -2.3411 -1.7415
 1401TIP3   OH225617   3.903   4.949  13.559  0.0268 -0.0898 -0.0379
 1401TIP3    H125618   3.893   4.859  13.529 -0.3342  0.1740 -0.7359
 1401TIP3    H225619   3.888   5.002  13.481 -1.2382  0.6287  0.6430
 1402TIP3   OH225620   1.436   5.798  16.420  0.2024 -0.0975 -0.1769
 1402TIP3    H125621   1.343   5.785  16.404 -0.4009  2.1514  0.9425
 1402TIP3    H225622   1.459   5.873  16.365  1.5165 -0.9739 -0.8555
 1403TIP3   OH225623   0.484   5.743   3.293  0.1302 -0.1579 -0.1150
 1403TIP3    H125624   0.438   5.813   3.246  0.6290  0.6469  0.5522
 1403TIP3    H225625   0.564   5.729   3.243  0.6711  0.7126  0.4732
 1404TIP3   OH225626   4.957   3.544   0.511 -0.1142  0.0596  0.4722
 1404TIP3    H125627   5.026   3.545   0.444 -3.2606 -1.1833 -3.1783
 1404TIP3    H225628   4.899   3.615   0.486 -0.8939  0.2490  2.6500
 1405TIP3   OH225629   4.927   1.748  10.943 -0.3497  0.1293 -0.0135
 1405TIP3    H125630   5.021   1.766  10.950  0.5005 -2.2578 -3.1796
 1405TIP3    H225631   4.893   1.817  10.886 -0.1150 -0.0523 -0.3763
 1406TIP3   OH225632   5.831   5.065  10.682  0.1582  0.0006 -0.6247
 1406TIP3    H125633   5.851   5.147  10.637  1.2510 -0.4224 -0.9424
 1406TIP3    H225634   5.859   4.997  10.621 -2.9206 -0.7051 -1.4096
 1407TIP3   OH225635   3.236   1.027  12.588  0.2072 -0.3053 -0.6103
 1407TIP3    H125636   3.298   1.039  12.660  0.4292 -1.1420 -0.6497
 1407TIP3    H225637   3.262   0.944  12.548 -1.2012 -0.8812 -0.3746
 1408TIP3   OH225638   1.259   5.939  15.420  0.0013 -0.2962  0.3690
 1408TIP3    H125639   1.278   5.862  15.474 -0.1453  0.0972  1.0041
 1408TIP3    H225640   1.169   5.962  15.442 -0.3135 -0.5658 -0.6138
 1409TIP3   OH225641   6.119   0.506   1.328 -0.3081  0.0077  0.5757
 1409TIP3    H125642   6.073   0.493   1.411  0.1020  1.5558  1.0880
 1409TIP3    H225643   6.177   0.581   1.344  0.2964 -0.0963 -0.9066
 1410TIP3   OH225644   1.788   0.274  12.719 -0.5949  0.4465  0.8083
 1410TIP3    H125645   1.880   0.299  12.714 -0.4633  0.0363  1.0979
 1410TIP3    H225646   1.764   0.288  12.810 -1.3056  2.1671  0.3959
 1411TIP3   OH225647   6.683   0.978   4.760 -0.1013 -0.1934 -0.4327
 1411TIP3    H125648   6.588   0.982   4.762 -0.1720 -0.8946 -1.6652
 1411TIP3    H225649   6.710   1.070   4.751 -0.6920 -0.0562 -0.8895
 1412TIP3   OH225650   0.236   1.387   1.017 -0.2588 -0.1859  0.4295
 1412TIP3    H125651   0.243   1.381   1.112  1.2679 -4.0717  0.2196
 1412TIP3    H225652   0.162   1.330   0.994 -1.0423  1.2225 -0.7490
 1413TIP3   OH225653   5.796   3.964   5.713 -0.2908 -0.0036 -0.6748
 1413TIP3    H125654   5.872   3.908   5.700 -0.2764 -0.1399 -0.0585
 1413TIP3    H225655   5.805   4.034   5.648  0.3744 -0.0040 -0.5882
 1414TIP3   OH225656   5.200   6.664   0.926  0.2756 -0.0402 -0.1060
 1414TIP3    H125657   5.233   6.708   0.848  0.8586 -1.1241 -0.5032
 1414TIP3    H225658   5.154   6.732   0.975  0.8776  0.9202 -0.8347
 1415TIP3   OH225659   2.122   4.128   4.931  0.5767 -0.3525 -0.0228
 1415TIP3    H125660   2.180   4.163   4.864  1.2647 -1.2567  0.0877
 1415TIP3    H225661   2.175   4.126   5.010  0.2119 -0.6319  0.2194
 1416TIP3   OH225662   0.639   1.188  16.046 -0.5565 -0.3306 -0.6964
 1416TIP3    H125663   0.559   1.181  15.994  0.8893  0.3411 -3.1366
 1416TIP3    H225664   0.661   1.281  16.043  0.3750 -0.5162 -0.1109
 1417TIP3   OH225665   6.605   6.758  11.830  0.4122 -0.5199 -0.0266
 1417TIP3    H125666   6.609   6.720  11.743 -0.8533 -2.0649  0.5330
 1417TIP3    H225667   6.677   6.717  11.878  2.0306  1.4072 -0.6756
 1418TIP3   OH225668   1.240   4.733   0.494 -0.3097  0.7635  0.2556
 1418TIP3    H125669   1.244   4.646   0.455 -2.7239  0.6772  0.0628
 1418TIP3    H225670   1.238   4.793   0.420  1.1781  1.0386  0.3876
 1419TIP3   OH225671   2.841   5.921  16.997 -0.9281 -0.4539  0.3899
 1419TIP3    H125672   2.935   5.937  16.999 -0.8023 -0.9424 -0.7590
 1419TIP3    H225673   2.831   5.832  17.031 -1.0355 -0.2206  0.9870
 1420TIP3   OH225674   5.723   3.620   6.558  0.1990 -0.0592 -0.2405
 1420TIP3    H125675   5.740   3.684   6.489  0.0206 -0.6264 -0.8291
 1420TIP3    H225676   5.663   3.557   6.518 -0.2355 -0.1788  0.5698
 1421TIP3   OH225677   4.668   6.649   0.725 -0.2665 -0.5759  0.3647
 1421TIP3    H125678   4.719   6.591   0.669  0.2756  0.3444 -0.1117
 1421TIP3    H225679   4.704   6.736   0.709  1.3157 -0.4713  3.6536
 1422TIP3   OH225680   6.270   4.309  12.104  0.3404  0.1000  0.4330
 1422TIP3    H125681   6.183   4.275  12.081  0.5317  0.2954 -0.6323
 1422TIP3    H225682   6.321   4.301  12.023  1.4400 -0.3870  1.1582
 1423TIP3   OH225683   3.182   0.036   6.111  0.5660  0.6601  0.5924
 1423TIP3    H125684   3.107   0.050   6.169 -0.4635  0.2443 -0.5774
 1423TIP3    H225685   3.155  -0.037   6.055  0.6627  2.2798 -1.7080
 1424TIP3   OH225686   5.604   4.480   0.257 -0.3416 -0.3295  0.2031
 1424TIP3    H125687   5.640   4.391   0.255  1.4444  0.3583 -1.1245
 1424TIP3    H225688   5.547   4.484   0.180 -3.1184 -1.2768  2.0600
 1425TIP3   OH225689   4.666   4.167   2.481  0.3990 -0.3974  0.0677
 1425TIP3    H125690   4.669   4.072   2.489  1.1272 -0.6147 -2.1005
 1425TIP3    H225691   4.637   4.198   2.567  1.1824 -2.5024  1.1483
 1426TIP3   OH225692   6.287   4.788   3.166  0.3420  0.2820  0.0828
 1426TIP3    H125693   6.318   4.712   3.118 -1.0731 -0.0038 -0.4397
 1426TIP3    H225694   6.191   4.780   3.165  0.2129 -0.2121  3.7615
 1427TIP3   OH225695   3.751   0.497   0.582  0.0250 -0.3499  0.0245
 1427TIP3    H125696   3.683   0.551   0.621 -0.0282 -0.4635  0.0887
 1427TIP3    H225697   3.790   0.553   0.514 -0.3288 -0.3877 -0.2134
 1428TIP3   OH225698   4.085   4.562   2.926  0.0868 -0.3173 -0.1214
 1428TIP3    H125699   3.998   4.559   2.966  0.2207  0.2012  0.2247
 1428TIP3    H225700   4.068   4.564   2.832 -0.2778 -0.2970 -0.0576
 1429TIP3   OH225701   6.044   2.180  12.392 -0.3025  0.3474  0.0510
 1429TIP3    H125702   6.015   2.256  12.342 -0.8209  0.3236  0.3173
 1429TIP3    H225703   5.964   2.140  12.424  0.0528  0.8168  1.5835
 1430TIP3   OH225704   5.684   3.032   3.849 -0.0031 -0.0070  0.0575
 1430TIP3    H125705   5.637   2.994   3.774 -0.7579 -0.9079  0.9502
 1430TIP3    H225706   5.737   2.959   3.883 -0.7295 -0.0122  1.2178
 1431TIP3   OH225707   0.538   2.861   2.020 -0.0873 -0.2304 -0.2136
 1431TIP3    H125708   0.566   2.870   1.929  2.4505 -0.4942  0.4808
 1431TIP3    H225709   0.514   2.949   2.047 -1.3822 -0.2289 -1.2373
 1432TIP3   OH225710   0.168   5.343  15.582  0.2680  0.8437 -0.8431
 1432TIP3    H125711   0.108   5.322  15.511  0.5156  1.0007 -1.1018
 1432TIP3    H225712   0.179   5.261  15.630  0.5165  0.6055 -1.3032
 1433TIP3   OH225713   1.263   0.727  12.848 -0.6598 -0.2384 -0.6028
 1433TIP3    H125714   1.269   0.633  12.828  0.2420 -0.6625  1.4344
 1433TIP3    H225715   1.277   0.770  12.764  2.3591 -1.8935 -1.0786
 1434TIP3   OH225716   0.941   6.599   0.405 -0.0958  0.0483 -0.5321
 1434TIP3    H125717   0.975   6.684   0.376 -0.3841  0.4761  0.3314
 1434TIP3    H225718   0.965   6.595   0.498  0.3978 -1.0649 -0.6940
 1435TIP3   OH225719   6.651   1.629  14.589  0.0069 -0.4960 -0.9216
 1435TIP3    H125720   6.599   1.552  14.611  0.3907 -0.7392 -0.8585
 1435TIP3    H225721   6.658   1.677  14.672 -0.9282  0.0380 -1.1361
 1436TIP3   OH225722   0.625   3.542   6.718 -0.2236 -0.2876 -0.2598
 1436TIP3    H125723   0.597   3.634   6.717  0.1159 -0.1386  1.0668
 1436TIP3    H225724   0.549   3.494   6.749  0.3252 -0.1072  1.5282
 1437TIP3   OH225725   4.700   3.062   1.395 -0.5844 -0.4778  0.9045
 1437TIP3    H125726   4.795   3.057   1.407 -0.0795  4.0140  0.5447
 1437TIP3    H225727   4.664   3.006   1.463  2.2590 -2.0054  1.3306
 1438TIP3   OH225728   3.805   3.816  10.592 -0.3450  0.3855  0.0926
 1438TIP3    H125729   3.728   3.800  10.538  0.7296  1.3951 -1.8730
 1438TIP3    H225730   3.788   3.769  10.673 -3.0328  0.6115 -0.2419
 1439TIP3   OH225731   4.646   1.489  17.080 -0.0820 -0.4301 -0.0233
 1439TIP3    H125732   4.595   1.464  17.157  0.8612 -1.2302  0.3614
 1439TIP3    H225733   4.627   1.421  17.015  1.0117 -1.1310  0.3660
 1440TIP3   OH225734   2.030   6.240  12.923 -0.8890  0.0503 -0.5183
 1440TIP3    H125735   2.055   6.183  12.996 -2.0053  1.3206  0.8897
 1440TIP3    H225736   1.992   6.180  12.858  2.3420 -1.4649 -1.2519
 1441TIP3   OH225737   4.707   0.201   2.100 -0.7010  0.6341 -0.7246
 1441TIP3    H125738   4.658   0.239   2.027  0.5246  0.8496 -1.4795
 1441TIP3    H225739   4.794   0.239   2.092 -0.3344  0.0915  0.4293
 1442TIP3   OH225740   3.067   1.136  10.711  0.2901 -0.3986  0.0021
 1442TIP3    H125741   3.016   1.095  10.641 -3.9767  1.9291  1.3510
 1442TIP3    H225742   3.028   1.101  10.792  0.1223  2.1878  1.1233
 1443TIP3   OH225743   2.122   3.523   4.029  0.0085 -0.3263  0.0123
 1443TIP3    H125744   2.086   3.450   3.978  2.9995 -1.8026 -0.2287
 1443TIP3    H225745   2.094   3.505   4.119 -3.6330  1.2167 -0.6393
 1444TIP3   OH225746   6.597   0.243  13.248  0.4659 -0.2313 -0.1906
 1444TIP3    H125747   6.583   0.295  13.169 -0.2420  1.6152  1.0824
 1444TIP3    H225748   6.516   0.194  13.260 -0.9370  2.2093  1.2432
 1445TIP3   OH225749   0.351   5.381   1.792  0.5912  0.0371 -0.5402
 1445TIP3    H125750   0.286   5.343   1.852  0.7616 -0.5152 -0.7018
 1445TIP3    H225751   0.429   5.393   1.847  1.0744 -1.4034 -0.8658
 1446TIP3   OH225752   3.006   3.750   1.759  0.8362  0.5295  0.5129
 1446TIP3    H125753   2.973   3.803   1.686 -0.9190 -1.2030 -0.0649
 1446TIP3    H225754   2.942   3.762   1.829  0.5799 -0.5530  0.4809
 1447TIP3   OH225755   1.700   2.746   3.173 -0.0204  0.2007 -0.4408
 1447TIP3    H125756   1.742   2.668   3.210 -2.5656 -1.7496 -1.4064
 1447TIP3    H225757   1.768   2.786   3.119  1.0972 -1.9214 -0.7226
 1448TIP3   OH225758   1.323   0.576  14.837 -0.1316  0.3244 -0.3119
 1448TIP3    H125759   1.391   0.515  14.868 -0.4107  0.6694  1.0410
 1448TIP3    H225760   1.357   0.663  14.860 -1.0580  0.4950  0.4532
 1449TIP3   OH225761   5.421   3.526  13.794  0.3297  0.0533 -0.5705
 1449TIP3    H125762   5.484   3.480  13.738  1.0355  0.6840 -0.3160
 1449TIP3    H225763   5.354   3.461  13.813  0.2657 -0.2675 -1.8474
 1450TIP3   OH225764   3.516   5.332  16.142  0.2742  0.1146  0.0059
 1450TIP3    H125765   3.470   5.252  16.166 -1.4288  0.5183 -1.6335
 1450TIP3    H225766   3.553   5.313  16.055  0.9137  0.7125  0.1365
 1451TIP3   OH225767   2.649   2.635   2.426  0.2618 -0.0656  0.1871
 1451TIP3    H125768   2.610   2.697   2.488  0.2533 -0.8044  0.9467
 1451TIP3    H225769   2.739   2.666   2.414  0.8316 -0.8683  1.9642
 1452TIP3   OH225770   5.486   1.735  16.315  0.0097  0.0484  0.2205
 1452TIP3    H125771   5.479   1.679  16.392 -0.3313  0.9310  0.8577
 1452TIP3    H225772   5.551   1.801  16.340 -1.8183  1.7770  0.7332
 1453TIP3   OH225773   6.471   5.541  15.021 -0.0504 -0.5653  0.9471
 1453TIP3    H125774   6.539   5.588  15.070  0.0779  0.5433 -0.2318
 1453TIP3    H225775   6.515   5.514  14.940 -1.1370  0.7162 -0.1196
 1454TIP3   OH225776   2.141   2.937   4.169 -0.6974 -0.0690  0.4703
 1454TIP3    H125777   2.048   2.919   4.166 -0.6201 -0.5411  0.9313
 1454TIP3    H225778   2.181   2.869   4.114 -0.8424  1.7913 -2.1815
 1455TIP3   OH225779   3.772   6.552  12.335  0.1898 -0.6505 -0.1638
 1455TIP3    H125780   3.853   6.557  12.386 -0.8491  0.0941  1.4948
 1455TIP3    H225781   3.726   6.477  12.372 -0.0968 -0.7799 -0.7753
 1456TIP3   OH225782   2.190   1.193   1.606 -0.2845  0.5335 -0.0937
 1456TIP3    H125783   2.251   1.169   1.676  0.6490  2.1576 -0.3070
 1456TIP3    H225784   2.164   1.109   1.568 -0.9740 -0.4315  2.2904
 1457TIP3   OH225785   6.082   1.894   0.974  0.4362 -0.0501 -0.8734
 1457TIP3    H125786   6.002   1.919   0.927  0.0542  1.0045  0.2944
 1457TIP3    H225787   6.082   1.798   0.971  0.5548 -0.0360 -3.1845
 1458TIP3   OH225788   1.253   3.396   6.675  0.1462  0.1590  0.1545
 1458TIP3    H125789   1.205   3.313   6.671 -1.1084  0.9082 -1.4178
 1458TIP3    H225790   1.320   3.388   6.607 -0.7886  0.8960 -0.8706
 1459TIP3   OH225791   0.089   4.258   1.022 -0.0170 -0.5955 -0.2504
 1459TIP3    H125792   0.050   4.269   1.109 -0.7510  0.3985 -0.6986
 1459TIP3    H225793   0.075   4.165   1.002 -0.3077 -0.7171  0.4661
 1460TIP3   OH225794   4.096   3.376  13.294 -0.3178  0.4567  0.3488
 1460TIP3    H125795   4.075   3.465  13.324 -0.1669  0.1953  1.2832
 1460TIP3    H225796   4.011   3.335  13.280 -0.3981  1.0462 -1.0872
 1461TIP3   OH225797   6.147   4.189  15.756  0.0117  0.8662  0.2523
 1461TIP3    H125798   6.220   4.206  15.696  0.8458  0.5856  1.1505
 1461TIP3    H225799   6.163   4.100  15.788 -0.6150  0.8808  0.6224
 1462TIP3   OH225800   4.500   4.687  15.886 -0.4023  0.1500  0.0398
 1462TIP3    H125801   4.508   4.593  15.905  0.4669  0.1150 -0.4197
 1462TIP3    H225802   4.558   4.700  15.811 -1.7342  0.7640 -0.8952
 1463TIP3   OH225803   5.046   4.840  11.805 -0.0567 -0.0542 -0.7018
 1463TIP3    H125804   5.103   4.807  11.735  0.8964 -2.6995  1.1719
 1463TIP3    H225805   4.970   4.781  11.804 -0.1361  0.0111  0.3453
 1464TIP3   OH225806   2.715   0.254  14.490  0.0962  0.2783 -0.5054
 1464TIP3    H125807   2.809   0.268  14.487  0.0454  0.4224 -2.0999
 1464TIP3    H225808   2.677   0.342  14.483 -0.1645  0.1982 -0.1588
 1465TIP3   OH225809   4.462   3.286   6.012  0.0680  0.0125  0.0636
 1465TIP3    H125810   4.534   3.298   5.951 -0.2362 -0.9238 -0.4955
 1465TIP3    H225811   4.502   3.242   6.088  0.2765  0.4086  0.1869
 1466TIP3   OH225812   5.562   4.692   2.744 -0.3066 -0.3699  0.1756
 1466TIP3    H125813   5.615   4.615   2.723  1.3586  0.8728 -0.3470
 1466TIP3    H225814   5.573   4.750   2.669 -0.7941  0.7837  0.9664
 1467TIP3   OH225815   5.715   1.659  14.068 -0.4342 -0.4000 -0.0146
 1467TIP3    H125816   5.664   1.579  14.082 -0.1528 -0.8075 -1.1468
 1467TIP3    H225817   5.801   1.626  14.040  0.1729  0.2871  0.9770
 1468TIP3   OH225818   0.614   3.953   6.150  0.0384  0.4258 -0.0460
 1468TIP3    H125819   0.533   3.918   6.189  1.2232 -1.6432  0.7416
 1468TIP3    H225820   0.653   4.004   6.220  1.7401 -2.5943  1.4204
 1469TIP3   OH225821   5.324   4.383   0.543 -0.3050 -0.1710  0.6742
 1469TIP3    H125822   5.290   4.427   0.621 -0.4050 -1.7102  1.5256
 1469TIP3    H225823   5.301   4.442   0.471 -1.9962  0.3328  1.5698
 1470TIP3   OH225824   5.254   5.070  11.578 -0.4087 -0.2260  0.3123
 1470TIP3    H125825   5.220   5.153  11.612 -0.6886 -0.7909  1.4262
 1470TIP3    H225826   5.181   5.031  11.531  0.0983  0.7521 -1.3788
 1471TIP3   OH225827   5.491   2.916  14.361 -0.2933  0.4073 -0.3209
 1471TIP3    H125828   5.543   2.982  14.407  1.2728 -0.7403 -0.3311
 1471TIP3    H225829   5.402   2.928  14.393  0.4098  0.8788  1.5981
 1472TIP3   OH225830   1.821   3.209   4.607  0.5847  0.8966 -0.3342
 1472TIP3    H125831   1.729   3.206   4.633  0.9955  1.8587  1.4121
 1472TIP3    H225832   1.826   3.279   4.542  0.4174  2.5434  1.3302
 1473TIP3   OH225833   2.580   0.021   3.342 -0.1343  0.8003  0.3338
 1473TIP3    H125834   2.603   0.084   3.410 -1.4220  0.5390  1.0454
 1473TIP3    H225835   2.566  -0.061   3.390 -0.2228  0.4130 -0.3501
 1474TIP3   OH225836   2.786   6.493  11.389 -0.1977  0.3182 -0.0994
 1474TIP3    H125837   2.694   6.470  11.373 -1.1641  2.0555  2.2733
 1474TIP3    H225838   2.803   6.463  11.479  0.6751  2.3548  0.4721
 1475TIP3   OH225839   3.202   4.507   0.393 -0.2339 -0.0466 -0.1727
 1475TIP3    H125840   3.244   4.510   0.479  1.6593 -0.9448 -1.0082
 1475TIP3    H225841   3.182   4.599   0.373  0.5416  0.3105  0.6417
 1476TIP3   OH225842   0.620   4.362  11.396  0.9798 -0.1346 -0.2690
 1476TIP3    H125843   0.676   4.334  11.468 -0.5813 -2.6169  0.1038
 1476TIP3    H225844   0.680   4.384  11.325  2.5091  1.4051  1.4024
 1477TIP3   OH225845   0.601   1.796  13.744 -0.1523 -0.0156 -0.0149
 1477TIP3    H125846   0.610   1.755  13.829  0.0934 -0.0606 -0.0614
 1477TIP3    H225847   0.506   1.796  13.727 -0.1019 -1.4501 -0.4526
 1478TIP3   OH225848   0.903   4.883   6.238 -0.4950  0.5383  0.1058
 1478TIP3    H125849   0.945   4.803   6.205  0.4088  1.0787 -0.0785
 1478TIP3    H225850   0.864   4.856   6.321 -0.6818 -0.2319 -0.2217
 1479TIP3   OH225851   6.275   1.655  14.175 -0.2839 -0.7284 -0.4955
 1479TIP3    H125852   6.331   1.628  14.102  0.5780  2.3726 -1.1223
 1479TIP3    H225853   6.323   1.726  14.218 -1.2359 -1.7366  2.5204
 1480TIP3   OH225854   3.010   4.115  16.335  0.3990 -0.0141 -0.1847
 1480TIP3    H125855   3.072   4.125  16.407  1.8118  0.1730 -1.3784
 1480TIP3    H225856   3.038   4.178  16.269 -1.6453  0.7474 -0.4124
 1481TIP3   OH225857   3.343   4.111   1.386 -0.3439  0.1514 -0.3030
 1481TIP3    H125858   3.322   4.074   1.471  1.4505 -2.4825 -0.8700
 1481TIP3    H225859   3.406   4.180   1.404  1.4304 -1.5724  0.5168
 1482TIP3   OH225860   5.856   0.001  14.506 -0.0859 -0.1753 -0.0666
 1482TIP3    H125861   5.780  -0.005  14.564 -0.6648  0.3624 -0.7579
 1482TIP3    H225862   5.930  -0.024  14.562 -0.5770  0.6725  1.0074
 1483TIP3   OH225863   2.420   3.968   1.260 -0.0079  0.0849 -0.1220
 1483TIP3    H125864   2.451   3.907   1.192 -1.3325 -0.3369 -0.3756
 1483TIP3    H225865   2.455   4.053   1.234  0.3843 -0.2611 -0.7432
 1484TIP3   OH225866   0.546   5.076   3.809 -0.1846  0.4210  0.3274
 1484TIP3    H125867   0.464   5.085   3.857 -0.4779  1.4572 -0.3201
 1484TIP3    H225868   0.611   5.121   3.863 -0.2090  0.2983  0.4587
 1485TIP3   OH225869   3.310   2.606   4.072  0.2418  0.1233  0.1452
 1485TIP3    H125870   3.397   2.576   4.099 -0.0835 -0.5453  0.4682
 1485TIP3    H225871   3.253   2.582   4.145 -0.3817 -0.2969 -0.4682
 1486TIP3   OH225872   3.193   2.114  16.747  0.1551  0.0015  0.0232
 1486TIP3    H125873   3.269   2.114  16.804 -0.7329  1.7709  1.3063
 1486TIP3    H225874   3.141   2.038  16.776  0.2545  0.2280  0.8156
 1487TIP3   OH225875   1.657   4.000   4.217 -0.0002  0.5602  0.0268
 1487TIP3    H125876   1.603   3.996   4.138 -1.1719  0.5011  0.8018
 1487TIP3    H225877   1.721   4.069   4.200  0.8567 -0.6018 -1.6212
 1488TIP3   OH225878   5.242   5.144   5.484 -0.3783  0.1866  0.0861
 1488TIP3    H125879   5.330   5.131   5.448 -0.1023 -3.0998  1.5385
 1488TIP3    H225880   5.183   5.133   5.410  0.3859  0.4857 -0.5760
 1489TIP3   OH225881   4.340   5.210   1.808 -0.4655 -0.4428 -0.3470
 1489TIP3    H125882   4.319   5.300   1.782  1.0972 -0.0881 -0.5063
 1489TIP3    H225883   4.368   5.218   1.899 -2.5757 -1.1639  0.4325
 1490TIP3   OH225884   3.142   4.948  14.620  0.0984 -0.3537  0.4865
 1490TIP3    H125885   3.175   5.037  14.608 -0.7483 -0.0716  0.1925
 1490TIP3    H225886   3.083   4.934  14.546 -0.5946 -0.7608  1.1039
 1491TIP3   OH225887   4.990   3.304   4.345  0.0531 -0.0113 -0.0665
 1491TIP3    H125888   4.934   3.353   4.405  1.3452 -0.0331  1.1826
 1491TIP3    H225889   4.994   3.359   4.266 -1.1386  0.3234  0.0856
 1492TIP3   OH225890   4.971   3.131   5.526 -0.1348 -0.0704 -0.0192
 1492TIP3    H125891   4.947   3.048   5.567  1.0189 -0.2294  0.3726
 1492TIP3    H225892   5.044   3.164   5.579 -0.4693  1.1119 -0.2726
 1493TIP3   OH225893   2.991   2.101   4.469  0.0462  0.2618  0.3699
 1493TIP3    H125894   3.076   2.079   4.430  0.4417 -0.9656  1.8091
 1493TIP3    H225895   2.971   2.188   4.435  2.6659  1.3134  1.2029
 1494TIP3   OH225896   1.189   6.181  13.156  0.1931 -0.5205 -0.1603
 1494TIP3    H125897   1.117   6.124  13.129 -1.1105  0.4661  1.1333
 1494TIP3    H225898   1.235   6.132  13.224 -1.4430  0.2248  1.5712
 1495TIP3   OH225899   1.261   3.663  11.695  0.0458  0.3042  0.1495
 1495TIP3    H125900   1.278   3.619  11.612 -0.5910  1.7495 -0.7719
 1495TIP3    H225901   1.343   3.655  11.743 -0.1304 -2.1654  0.1963
 1496TIP3   OH225902   5.624   1.302  17.227  0.7602  0.2765 -0.4140
 1496TIP3    H125903   5.590   1.300  17.137  1.0078 -2.9664 -0.5498
 1496TIP3    H225904   5.717   1.279  17.217  0.1849 -2.9871  0.7838
 1497TIP3   OH225905   2.444   5.631  13.158 -0.2073  0.2360 -0.1037
 1497TIP3    H125906   2.408   5.718  13.172 -2.0467 -0.5610  0.3183
 1497TIP3    H225907   2.423   5.583  13.238  1.9205 -0.2650  0.2209
 1498TIP3   OH225908   2.541   3.689  16.440  0.9148 -0.2596 -0.3492
 1498TIP3    H125909   2.523   3.601  16.472 -0.0672 -0.2177 -0.7481
 1498TIP3    H225910   2.464   3.740  16.466  0.1731 -0.1706 -2.5064
 1499TIP3   OH225911   6.768   5.482   3.267  0.2128 -0.1416  0.3321
 1499TIP3    H125912   6.692   5.462   3.212 -0.5135  3.1917 -0.0816
 1499TIP3    H225913   6.731   5.526   3.343  1.6393  0.7602  0.5332
 1500TIP3   OH225914   6.461   3.506  12.739  0.1995  0.1740  0.4661
 1500TIP3    H125915   6.537   3.541  12.691  0.1955  0.7176  0.8433
 1500TIP3    H225916   6.403   3.581  12.749  0.6405  0.3339  2.1688
 1501TIP3   OH225917   4.479   5.947  16.921  0.2634  0.4617 -0.1505
 1501TIP3    H125918   4.494   5.972  16.830 -0.0552 -1.0182 -0.6299
 1501TIP3    H225919   4.394   5.985  16.943 -0.6978 -1.0185 -1.1898
 1502TIP3   OH225920   5.791   3.146   4.788 -0.9970  0.2978 -0.0835
 1502TIP3    H125921   5.776   3.058   4.754  0.0812 -0.3388  0.9995
 1502TIP3    H225922   5.733   3.152   4.864 -2.3548  1.1967 -1.1347
 1503TIP3   OH225923   6.001   0.549  11.840 -0.2559 -0.5293  0.2317
 1503TIP3    H125924   5.949   0.598  11.904 -0.9899 -1.4720  0.3681
 1503TIP3    H225925   6.064   0.500  11.893  1.0296  0.8616  0.0515
 1504TIP3   OH225926   5.686   3.427  15.739  0.6051  0.1450  0.4538
 1504TIP3    H125927   5.638   3.480  15.803  1.4865  0.6634  0.7088
 1504TIP3    H225928   5.642   3.443  15.656  0.4087  0.7089  0.6614
 1505TIP3   OH225929   6.122   6.742   5.926  0.2861 -0.4900  0.0077
 1505TIP3    H125930   6.188   6.796   5.969  0.3404 -0.4441 -0.1322
 1505TIP3    H225931   6.075   6.803   5.868  0.8314 -0.7332 -0.7058
 1506TIP3   OH225932   3.204   3.097   1.959  0.0457  0.2650  0.5830
 1506TIP3    H125933   3.251   3.154   2.020  0.1286 -1.5068  2.3045
 1506TIP3    H225934   3.112   3.104   1.986 -0.3256  1.5426 -0.9145
 1507TIP3   OH225935   2.187   1.159  12.363 -0.2876  0.5292 -0.2306
 1507TIP3    H125936   2.279   1.159  12.389 -0.8706  0.4121  2.0638
 1507TIP3    H225937   2.164   1.252  12.360  0.3801  0.6803 -2.9179
 1508TIP3   OH225938   5.145   2.996  17.156 -0.0431 -0.3280 -0.4090
 1508TIP3    H125939   5.215   3.036  17.207 -1.5294 -1.0849  2.4073
 1508TIP3    H225940   5.191   2.938  17.094  1.8311 -0.6469  1.1781
 1509TIP3   OH225941   1.345   2.571  15.887  0.0409  0.0180  0.3119
 1509TIP3    H125942   1.275   2.507  15.873 -1.8268  1.7937  1.1929
 1509TIP3    H225943   1.425   2.518  15.885 -1.4172 -2.4276  1.3160
 1510TIP3   OH225944   0.060   0.742   0.838 -0.3054  0.1978 -0.0547
 1510TIP3    H125945   0.077   0.777   0.926 -0.1955 -0.8862  0.3774
 1510TIP3    H225946   0.125   0.672   0.828 -1.6343 -1.0706 -0.1566
 1511TIP3   OH225947   1.956   5.923  12.511  0.4541  0.7613 -0.3098
 1511TIP3    H125948   1.981   6.015  12.508  0.6793  0.6879 -1.1096
 1511TIP3    H225949   1.942   5.899  12.419 -3.3282  0.9839  0.0631
 1512TIP3   OH225950   5.475   6.783  15.913  0.0931 -0.0069  0.4662
 1512TIP3    H125951   5.505   6.858  15.862 -1.6919  0.0405 -0.5909
 1512TIP3    H225952   5.450   6.821  15.998  1.3894  0.1942  0.7799
 1513TIP3   OH225953   1.458   1.754  13.351  0.2868  0.0919 -0.5529
 1513TIP3    H125954   1.505   1.778  13.271 -0.3161  0.7375 -0.7250
 1513TIP3    H225955   1.443   1.837  13.396  0.2175 -0.2183  0.0058
 1514TIP3   OH225956   4.005   5.432  16.483 -0.2747 -0.4588  0.1691
 1514TIP3    H125957   3.954   5.432  16.564  0.8051  0.6672  0.8913
 1514TIP3    H225958   4.030   5.524  16.471  0.3007 -0.7507 -0.9708
 1515TIP3   OH225959   6.596   6.607  13.634 -0.5306  0.5427  0.5736
 1515TIP3    H125960   6.691   6.597  13.637 -0.6854 -1.8787 -0.2615
 1515TIP3    H225961   6.576   6.625  13.542 -0.9270  0.2865  0.6062
 1516TIP3   OH225962   4.550   6.569   6.013  0.5879  0.7814  0.0319
 1516TIP3    H125963   4.623   6.526   5.969  1.2689  1.5010  0.4385
 1516TIP3    H225964   4.580   6.581   6.103 -0.9706 -1.1399  0.8816
 1517TIP3   OH225965   4.172   0.652   1.559 -0.5641 -0.4593 -0.7351
 1517TIP3    H125966   4.147   0.568   1.597  1.8168  0.1552  2.7136
 1517TIP3    H225967   4.268   0.651   1.559 -0.4724  1.9000 -1.4271
 1518TIP3   OH225968   1.255   5.728  14.339 -0.0091  0.0973  0.1024
 1518TIP3    H125969   1.217   5.790  14.277 -1.4445 -0.9871 -0.1482
 1518TIP3    H225970   1.306   5.668  14.284 -2.2633 -1.6038 -0.2839
 1519TIP3   OH225971   4.572   2.822   3.535  0.3408  0.1601 -0.1359
 1519TIP3    H125972   4.484   2.835   3.571  0.4937  2.2308 -0.3856
 1519TIP3    H225973   4.561   2.751   3.472 -0.6553 -1.1634  1.4476
 1520TIP3   OH225974   1.055   5.518  13.261  0.2310 -0.3607 -0.0238
 1520TIP3    H125975   1.039   5.516  13.167  0.2648 -1.2015 -0.0172
 1520TIP3    H225976   1.091   5.432  13.282 -0.3793 -0.4216  0.8625
 1521TIP3   OH225977   2.995   6.566  13.689 -0.0722 -0.3725 -0.5388
 1521TIP3    H125978   2.917   6.582  13.635 -0.8617 -0.0829  0.6609
 1521TIP3    H225979   3.045   6.647  13.684 -1.7708  0.9268  1.7699
 1522TIP3   OH225980   2.602   1.903  12.175  0.2469  0.2810  0.1626
 1522TIP3    H125981   2.567   1.909  12.264  0.1351  2.1451  0.0475
 1522TIP3    H225982   2.542   1.956  12.122  1.9019  1.6532 -0.4580
 1523TIP3   OH225983   3.015   0.826  15.907  0.1263  0.1866  0.1057
 1523TIP3    H125984   2.991   0.905  15.956  0.0840 -0.1807  0.6829
 1523TIP3    H225985   2.992   0.754  15.964  0.2971 -0.2474 -0.3627
 1524TIP3   OH225986   1.555   1.865  13.121 -0.8511  0.2555 -0.2392
 1524TIP3    H125987   1.571   1.779  13.084 -0.8262  0.8677 -1.7158
 1524TIP3    H225988   1.467   1.888  13.091 -0.8323  0.7760  0.0869
 1525TIP3   OH225989   6.612   6.688  14.361  0.2333  0.5500 -0.3173
 1525TIP3    H125990   6.588   6.614  14.306 -1.7736  0.3377  0.7774
 1525TIP3    H225991   6.678   6.653  14.421  0.6692  0.1621 -1.0083
 1526TIP3   OH225992   2.168   4.338   3.104  0.2347 -0.2308 -0.1270
 1526TIP3    H125993   2.228   4.382   3.165  0.5416 -1.9972  0.8945
 1526TIP3    H225994   2.190   4.245   3.111 -1.2089 -0.6973 -1.3249
 1527TIP3   OH225995   3.750   0.582   3.816  0.0528  0.4008  0.1945
 1527TIP3    H125996   3.824   0.641   3.804  0.3603  0.1363  0.7626
 1527TIP3    H225997   3.784   0.495   3.794  0.2908  0.0834  1.7145
 1528TIP3   OH225998   5.081   2.482  13.375  0.0708 -0.3085 -0.1429
 1528TIP3    H125999   5.049   2.397  13.403 -0.9443  0.6043  1.6841
 1528TIP3    H226000   5.130   2.515  13.451  2.1824 -0.0677 -1.5165
 1529TIP3   OH226001   0.447   5.491   4.185 -0.3135 -0.9074 -0.1913
 1529TIP3    H126002   0.354   5.487   4.163 -0.5961  0.3869  0.6632
 1529TIP3    H226003   0.476   5.399   4.184 -1.2018 -1.2212 -1.9853
 1530TIP3   OH226004   4.120   0.332   4.458 -0.1613  0.1597  0.1136
 1530TIP3    H126005   4.032   0.348   4.423 -0.4961  0.7252  1.1768
 1530TIP3    H226006   4.165   0.416   4.450  0.8035 -0.4851 -1.7779
 1531TIP3   OH226007   6.771   5.616  12.290  0.0826  0.2892 -0.2736
 1531TIP3    H126008   6.676   5.614  12.301  0.1687  0.6398  0.6496
 1531TIP3    H226009   6.799   5.528  12.315  0.0120  0.2299 -0.4028
 1532TIP3   OH226010   2.024   5.986   1.922 -0.0685 -0.6101  0.3948
 1532TIP3    H126011   2.000   6.021   2.008  0.8390 -0.1156  0.4551
 1532TIP3    H226012   2.095   6.042   1.892  0.3673 -1.4611 -0.1957
 1533TIP3   OH226013   2.819   2.301   2.387 -0.0885 -0.2693  0.1122
 1533TIP3    H126014   2.803   2.320   2.294 -0.2462  2.1901  0.5647
 1533TIP3    H226015   2.804   2.207   2.395  1.9555 -0.9562 -2.7268
 1534TIP3   OH226016   4.236   1.489  10.784 -0.7823  0.3660  0.1611
 1534TIP3    H126017   4.165   1.425  10.791 -0.8637  0.4624  0.2273
 1534TIP3    H226018   4.257   1.490  10.690 -1.8840  1.4089 -0.1051
 1535TIP3   OH226019   0.177   5.652   5.531 -0.0725 -0.1024 -0.8500
 1535TIP3    H126020   0.215   5.735   5.559 -0.5420  0.1345 -0.9024
 1535TIP3    H226021   0.133   5.618   5.609 -1.1839  0.4459 -1.2184
 1536TIP3   OH226022   2.226   3.278   3.449  0.5894  0.4411 -0.0502
 1536TIP3    H126023   2.194   3.365   3.474 -1.0013  0.3928 -1.7903
 1536TIP3    H226024   2.207   3.270   3.356  0.2234 -1.9796  0.1583
 1537TIP3   OH226025   2.367   1.358  12.593 -0.1469  0.0736  0.5233
 1537TIP3    H126026   2.418   1.277  12.594 -0.4053 -0.0893  0.7150
 1537TIP3    H226027   2.410   1.413  12.528 -0.7015 -0.6993 -0.5256
 1538TIP3   OH226028   4.700   5.913  13.753 -0.4702 -0.8285  0.2560
 1538TIP3    H126029   4.672   5.905  13.662  3.4990  0.0859 -1.2374
 1538TIP3    H226030   4.685   6.005  13.774 -1.4157 -1.0464  0.5532
 1539TIP3   OH226031   6.074   4.729   1.199  0.0382 -0.0591 -0.1117
 1539TIP3    H126032   6.160   4.766   1.180  0.3794 -0.2480  1.0080
 1539TIP3    H226033   6.087   4.674   1.275 -1.0093 -0.3844 -0.1432
 1540TIP3   OH226034   2.119   4.336   4.098 -0.2660 -0.1019  0.1062
 1540TIP3    H126035   2.082   4.323   4.010  2.7211 -1.4953 -1.0776
 1540TIP3    H226036   2.161   4.422   4.093 -1.0925  0.3354  0.5826
 1541TIP3   OH226037   5.233   2.407  15.031  0.4518  0.3816 -0.3200
 1541TIP3    H126038   5.313   2.438  15.075  1.4022 -0.7739 -1.1662
 1541TIP3    H226039   5.238   2.312  15.036 -1.1685  0.2937  0.0757
 1542TIP3   OH226040   3.937   0.323  11.846 -0.3307  0.3822 -0.5136
 1542TIP3    H126041   3.912   0.231  11.834  0.9938 -0.1766  0.7168
 1542TIP3    H226042   3.881   0.354  11.917  0.5170 -0.0605  0.3711
 1543TIP3   OH226043   3.532   3.728  13.257 -0.5296  0.0572  0.5686
 1543TIP3    H126044   3.500   3.772  13.335 -0.6416 -1.5806  1.5057
 1543TIP3    H226045   3.453   3.690  13.217 -0.3551  0.1179  0.1544
 1544TIP3   OH226046   6.501   3.928   1.697  0.2501 -0.3286  0.1487
 1544TIP3    H126047   6.580   3.876   1.696 -0.0728 -1.0378  2.8843
 1544TIP3    H226048   6.497   3.964   1.786 -2.1730  0.1692 -0.0887
 1545TIP3   OH226049   5.070   6.462   0.647 -0.0880 -0.2601  0.1965
 1545TIP3    H126050   5.157   6.425   0.663 -0.0309  0.0469  0.6112
 1545TIP3    H226051   5.015   6.426   0.716  0.1682  1.0989  1.1451
 1546TIP3   OH226052   6.533   1.000  16.891 -0.5392 -0.2153 -0.0842
 1546TIP3    H126053   6.527   1.017  16.797  0.4657 -0.4844 -0.2018
 1546TIP3    H226054   6.561   0.909  16.897  0.7331  0.1954  0.4490
 1547TIP3   OH226055   5.060   6.459   1.342  0.0345  0.0795 -0.0492
 1547TIP3    H126056   4.978   6.501   1.368  0.7563  0.1221  2.3497
 1547TIP3    H226057   5.119   6.532   1.322 -0.3090  0.0513 -1.2947
 1548TIP3   OH226058   3.141   6.423   6.227 -0.5590  0.6348 -0.3034
 1548TIP3    H126059   3.214   6.456   6.176 -1.2111  0.3283 -1.4705
 1548TIP3    H226060   3.124   6.335   6.192 -1.1361  0.4869  0.3115
 1549TIP3   OH226061   2.851   4.858   4.299  0.7639 -0.2983  0.4215
 1549TIP3    H126062   2.946   4.867   4.292  0.6840  0.8995  0.6867
 1549TIP3    H226063   2.822   4.940   4.339 -0.5142 -0.0988 -0.8489
 1550TIP3   OH226064   4.014   2.879  16.144 -0.2511 -0.2481  0.1239
 1550TIP3    H126065   3.979   2.897  16.057  0.3908 -0.1635 -0.1253
 1550TIP3    H226066   3.956   2.925  16.204  0.8181  1.9640 -0.4322
 1551TIP3   OH226067   3.910   0.376  10.633  0.1088 -0.9320  0.1648
 1551TIP3    H126068   3.858   0.435  10.688 -1.0343 -1.9806  0.2602
 1551TIP3    H226069   3.938   0.431  10.559 -1.3932 -0.3905 -0.0346
 1552TIP3   OH226070   4.029   5.733   1.425  0.3920  0.6169 -0.6908
 1552TIP3    H126071   3.942   5.773   1.418 -0.6159 -1.3976 -0.3996
 1552TIP3    H226072   4.018   5.645   1.388  2.1682  0.1300 -0.1575
 1553TIP3   OH226073   1.623   6.356  11.983 -0.0681 -0.1746 -0.4725
 1553TIP3    H126074   1.617   6.450  11.971 -2.8942 -0.4680 -2.1579
 1553TIP3    H226075   1.546   6.333  12.035  0.3537 -1.6134 -0.4330
 1554TIP3   OH226076   2.114   2.740   2.986  0.6222  0.2378  0.0694
 1554TIP3    H126077   2.068   2.781   3.059 -0.3121  1.2774 -1.0679
 1554TIP3    H226078   2.093   2.647   2.994 -0.8035  0.5476  0.1974
 1555TIP3   OH226079   0.592   3.387   0.225  0.2086  0.4752 -0.6899
 1555TIP3    H126080   0.609   3.309   0.279 -1.3914  0.5613 -0.0064
 1555TIP3    H226081   0.660   3.449   0.252  1.5340 -0.6579 -1.2681
 1556TIP3   OH226082   3.786   5.096   4.338  0.3256  0.0699 -0.3151
 1556TIP3    H126083   3.841   5.115   4.262  0.8707  1.1954  0.3306
 1556TIP3    H226084   3.698   5.123   4.313  0.2817 -0.6437 -0.9439
 1557TIP3   OH226085   3.758   3.466   3.881  0.1314 -0.3100  0.1866
 1557TIP3    H126086   3.779   3.400   3.947 -0.8485 -0.0534  0.7778
 1557TIP3    H226087   3.686   3.428   3.831  0.6619 -0.3719 -0.5373
 1558TIP3   OH226088   0.721   0.391   5.138 -0.0516  0.1383  0.5315
 1558TIP3    H126089   0.718   0.376   5.233 -1.7657 -0.8589  0.3692
 1558TIP3    H226090   0.781   0.325   5.105 -0.0029  0.0174  0.8573
 1559TIP3   OH226091   1.790   1.494  11.464 -0.4078 -0.3589 -0.0796
 1559TIP3    H126092   1.857   1.432  11.435  1.6418  2.3402 -1.5347
 1559TIP3    H226093   1.715   1.476  11.407 -0.2407 -2.1091  0.2066
 1560TIP3   OH226094   5.167   3.730   2.649  0.1806  0.0674 -0.3608
 1560TIP3    H126095   5.191   3.725   2.742 -0.2519 -2.1500 -0.3198
 1560TIP3    H226096   5.149   3.823   2.634  1.2274  0.6211  1.5130
 1561TIP3   OH226097   2.713   4.270   1.260  0.0471  0.2835  0.4721
 1561TIP3    H126098   2.619   4.257   1.245  0.3471 -0.2264 -1.2250
 1561TIP3    H226099   2.723   4.365   1.271 -0.4834  0.5655 -1.1324
 1562TIP3   OH226100   2.130   1.245   5.668  0.3041 -0.0543  0.2815
 1562TIP3    H126101   2.118   1.157   5.634 -1.1364 -1.1371  3.2893
 1562TIP3    H226102   2.193   1.235   5.739 -0.4629  1.2082  1.1605
 1563TIP3   OH226103   4.264   3.488   0.377 -0.0446 -0.2903  0.1778
 1563TIP3    H126104   4.273   3.426   0.449 -0.7360 -1.2076 -0.5125
 1563TIP3    H226105   4.192   3.545   0.405  1.3760  1.0204  1.3609
 1564TIP3   OH226106   6.403   4.433   1.386  0.1069  0.4271  0.4748
 1564TIP3    H126107   6.484   4.473   1.353 -0.7914  1.5099 -0.5318
 1564TIP3    H226108   6.398   4.349   1.342  0.0863  0.8835 -0.4225
 1565TIP3   OH226109   1.795   0.805   1.797  0.0534  0.1495  0.3984
 1565TIP3    H126110   1.757   0.876   1.850  0.5801  0.5496  0.2529
 1565TIP3    H226111   1.877   0.842   1.763  0.7282 -0.7938  0.9455
 1566TIP3   OH226112   0.348   6.722   3.521 -0.8225  0.5319  0.2361
 1566TIP3    H126113   0.437   6.755   3.529 -0.3422 -0.2605 -1.3359
 1566TIP3    H226114   0.325   6.691   3.608  0.7955 -0.0831  0.4783
 1567TIP3   OH226115   0.107   6.538   3.685  0.2730 -0.5881  0.2857
 1567TIP3    H126116   0.149   6.475   3.745  0.8818 -0.1313  0.3547
 1567TIP3    H226117   0.106   6.620   3.734 -1.8514 -0.8505  0.7653
 1568TIP3   OH226118   3.550   4.152   2.246  0.1260  0.0986  0.4787
 1568TIP3    H126119   3.533   4.236   2.204  0.3990  0.1085  0.3816
 1568TIP3    H226120   3.636   4.126   2.213 -0.7052 -1.0811 -0.8852
 1569TIP3   OH226121   4.836   1.378   3.684 -0.9203 -0.2742  0.5958
 1569TIP3    H126122   4.802   1.317   3.618  0.2557 -1.1226  0.7503
 1569TIP3    H226123   4.763   1.439   3.699 -1.2424 -0.0833 -1.4274
 1570TIP3   OH226124   2.425   1.582  15.342 -0.0988 -0.2730  0.0145
 1570TIP3    H126125   2.347   1.632  15.318 -0.1385 -0.3136  0.0585
 1570TIP3    H226126   2.495   1.617  15.286 -0.2834 -0.6627 -0.4633
 1571TIP3   OH226127   2.208   6.210   1.907 -0.1904  0.1903 -0.1805
 1571TIP3    H126128   2.199   6.248   1.820  0.4094  0.4218 -0.1535
 1571TIP3    H226129   2.303   6.206   1.921 -0.1383  4.0718  2.0860
 1572TIP3   OH226130   3.389   4.461   4.871  0.6153 -0.1763 -0.4868
 1572TIP3    H126131   3.313   4.435   4.819  1.0861 -2.1231 -0.2490
 1572TIP3    H226132   3.370   4.552   4.897 -3.5287 -1.6355  2.8227
 1573TIP3   OH226133   6.746   5.797  13.233 -0.5278 -0.2471  0.2739
 1573TIP3    H126134   6.798   5.717  13.222 -0.9484 -0.4401 -0.3507
 1573TIP3    H226135   6.686   5.796  13.159 -0.9923  0.3049  0.6435
 1574TIP3   OH226136   2.105   4.055   3.946  0.0100 -1.0876 -0.2273
 1574TIP3    H126137   2.193   4.082   3.917 -0.4694  2.2858  1.0359
 1574TIP3    H226138   2.115   4.036   4.039 -0.3183 -2.3924 -0.4383
 1575TIP3   OH226139   3.030   2.939   6.724  1.1867  0.0886 -0.2017
 1575TIP3    H126140   3.093   2.877   6.688 -1.0078 -1.6652 -1.3179
 1575TIP3    H226141   2.951   2.927   6.670 -1.0121  0.1278  2.7423
 1576TIP3   OH226142   2.602   4.388  16.483 -0.0649 -0.2116 -0.4496
 1576TIP3    H126143   2.563   4.321  16.428  1.0237 -0.0700 -1.4456
 1576TIP3    H226144   2.529   4.430  16.528 -0.7253 -2.5261  0.7715
 1577TIP3   OH226145   5.255   3.181  14.239  1.0059  0.0138  0.0845
 1577TIP3    H126146   5.275   3.138  14.156 -2.5062 -4.9583  1.3395
 1577TIP3    H226147   5.266   3.112  14.305 -1.4906  2.1173  2.9846
 1578TIP3   OH226148   1.273   0.872  12.606  0.7403  0.1835 -0.0416
 1578TIP3    H126149   1.235   0.897  12.521  0.2906 -1.7157 -0.4691
 1578TIP3    H226150   1.254   0.945  12.664 -1.0228  0.5545 -1.0106
 1579TIP3   OH226151   5.161   1.348  12.282  0.2257 -0.0607  0.1844
 1579TIP3    H126152   5.167   1.263  12.240  0.6180  0.9341 -1.8949
 1579TIP3    H226153   5.115   1.404  12.219  0.0945  1.3005  1.4235
 1580TIP3   OH226154   6.309   3.413  15.883  0.3883  0.3150 -0.2103
 1580TIP3    H126155   6.325   3.320  15.895  1.4509  0.5932  0.6153
 1580TIP3    H226156   6.266   3.419  15.797  0.3811 -0.9119 -0.3037
 1581TIP3   OH226157   1.256   3.241  14.560  0.0844 -0.5817 -0.4065
 1581TIP3    H126158   1.199   3.213  14.631 -0.4812 -0.3307 -0.7506
 1581TIP3    H226159   1.295   3.323  14.591 -0.0355 -0.5602 -0.3115
 1582TIP3   OH226160   3.337   5.212   5.864 -0.4861  0.4287 -0.4617
 1582TIP3    H126161   3.426   5.186   5.887 -0.2209  1.8765  0.2829
 1582TIP3    H226162   3.287   5.130   5.867  0.4559 -0.1382  0.9243
 1583TIP3   OH226163   1.236   4.725   5.639  0.2006  0.1504 -0.3530
 1583TIP3    H126164   1.306   4.670   5.603 -0.4267  0.0649 -1.4955
 1583TIP3    H226165   1.159   4.701   5.589 -0.2216  1.6567 -0.4684
 1584TIP3   OH226166   0.681   3.502  13.293 -0.2395 -0.5360 -0.2027
 1584TIP3    H126167   0.716   3.514  13.204 -0.4794  0.1643 -0.2129
 1584TIP3    H226168   0.625   3.425  13.286  0.8522 -1.3351 -0.3182
 1585TIP3   OH226169   5.924   6.577  13.276  0.4203 -0.3486  0.0402
 1585TIP3    H126170   5.964   6.553  13.192  3.1269  0.1909  1.0639
 1585TIP3    H226171   5.910   6.494  13.321  3.4004 -0.5384  0.8500
 1586TIP3   OH226172   0.945   6.370  13.918  0.4997  0.0222 -0.6028
 1586TIP3    H126173   0.939   6.287  13.965  2.8319 -0.1280 -0.4757
 1586TIP3    H226174   0.854   6.398  13.907 -0.2598 -1.7813  0.6850
 1587TIP3   OH226175   6.007   6.382   5.412  0.3727  0.4522 -0.0135
 1587TIP3    H126176   6.037   6.320   5.478  0.9115 -0.0103 -0.6849
 1587TIP3    H226177   5.913   6.392   5.429  0.4433  0.0996  0.6127
 1588TIP3   OH226178   6.302   3.919   2.957 -0.3995 -0.0860  0.2208
 1588TIP3    H126179   6.392   3.942   2.936 -0.2920 -0.0210  0.7586
 1588TIP3    H226180   6.279   3.973   3.032 -0.8970 -0.0862  0.0779
 1589TIP3   OH226181   5.985   6.192  14.296  0.0603 -0.4231 -0.2177
 1589TIP3    H126182   5.980   6.136  14.218 -0.2596 -1.1351  0.2996
 1589TIP3    H226183   5.928   6.149  14.360  1.0845 -0.4064  0.7426
 1590TIP3   OH226184   1.730   1.093  16.868 -0.2684 -0.0758 -0.0515
 1590TIP3    H126185   1.771   1.135  16.943 -0.2636 -2.3100  1.2857
 1590TIP3    H226186   1.783   1.120  16.793  0.9815  0.5804  1.0377
 1591TIP3   OH226187   0.958   2.434  14.101  0.1640 -0.0454 -0.9676
 1591TIP3    H126188   0.873   2.424  14.058  1.0996 -1.6346 -2.6063
 1591TIP3    H226189   1.006   2.356  14.076  2.5541  1.3951 -1.1858
 1592TIP3   OH226190   1.128   3.508  13.137 -0.1393 -0.3440 -0.0651
 1592TIP3    H126191   1.216   3.534  13.109 -0.4659 -0.0284 -0.8361
 1592TIP3    H226192   1.116   3.421  13.100 -0.2931 -0.2288 -0.2895
 1593TIP3   OH226193   0.456   0.703  10.439 -0.0100  0.1996 -0.7208
 1593TIP3    H126194   0.444   0.608  10.429 -1.4215  0.5307 -2.5365
 1593TIP3    H226195   0.419   0.722  10.525 -1.6677 -0.6075 -1.2181
 1594TIP3   OH226196   4.255   5.750   1.276  0.3892 -0.0256 -0.3462
 1594TIP3    H126197   4.186   5.773   1.338 -0.4324 -0.9551 -0.8865
 1594TIP3    H226198   4.307   5.830   1.267 -0.0801  0.4200  0.7550
 1595TIP3   OH226199   1.381   0.294   4.581  0.7376 -0.2653  0.0231
 1595TIP3    H126200   1.384   0.386   4.606  0.9629 -0.3820  0.4276
 1595TIP3    H226201   1.428   0.248   4.650  0.0932 -0.7554  0.1554
 1596TIP3   OH226202   3.631   0.423  10.815  0.2681 -0.3720 -0.5209
 1596TIP3    H126203   3.706   0.479  10.795 -0.2028  0.2402 -0.6212
 1596TIP3    H226204   3.573   0.479  10.868  0.1225 -1.0067  0.0051
 1597TIP3   OH226205   2.284   1.230   2.250 -0.4298  0.1747 -0.3493
 1597TIP3    H126206   2.351   1.165   2.270  0.2397  1.3210  1.4741
 1597TIP3    H226207   2.278   1.230   2.155 -0.7350 -2.7571 -0.4238
 1598TIP3   OH226208   5.714   1.396   0.563  0.8594 -0.0280 -0.5449
 1598TIP3    H126209   5.685   1.306   0.580  0.8374 -0.1066 -0.9886
 1598TIP3    H226210   5.796   1.386   0.515  1.2732  0.1946  0.1041
 1599TIP3   OH226211   1.888   1.494  14.350  0.0689 -0.0991  0.0022
 1599TIP3    H126212   1.900   1.585  14.322  1.1481  0.8580  3.1956
 1599TIP3    H226213   1.804   1.493  14.395  0.5902 -0.3691  0.9975
 1600TIP3   OH226214   0.953   2.044   1.961  0.5143 -0.3174 -0.4943
 1600TIP3    H126215   0.949   2.089   2.045 -1.2107  0.8865 -1.1819
 1600TIP3    H226216   0.904   1.963   1.974  3.2343 -1.9131  0.6107
 1601TIP3   OH226217   5.446   5.521  16.485 -0.4328 -0.3583  0.3630
 1601TIP3    H126218   5.391   5.600  16.483 -0.7886 -0.6172 -0.1350
 1601TIP3    H226219   5.526   5.550  16.530 -0.5767  0.2793  0.2288
 1602TIP3   OH226220   0.031   3.239  16.622 -0.0803 -0.4756 -0.6016
 1602TIP3    H126221   0.095   3.174  16.595  0.5991 -0.3703  0.7098
 1602TIP3    H226222   0.042   3.247  16.717 -2.0303 -0.4614 -0.3198
 1603TIP3   OH226223   0.284   3.846   5.564 -0.2334  0.0096 -0.7786
 1603TIP3    H126224   0.324   3.773   5.611  2.0591  2.7644  2.0100
 1603TIP3    H226225   0.336   3.856   5.485  1.7134  0.6435  0.5251
 1604TIP3   OH226226   4.465   3.597   4.629 -0.6475  0.1220 -0.3368
 1604TIP3    H126227   4.392   3.595   4.568 -0.3003 -0.4260 -0.7416
 1604TIP3    H226228   4.424   3.599   4.716 -1.1453  1.0441 -0.5748
 1605TIP3   OH226229   3.557   5.379  15.861  0.3950 -0.5203  0.1706
 1605TIP3    H126230   3.590   5.469  15.862 -1.1355  0.0737  1.3331
 1605TIP3    H226231   3.633   5.326  15.836  1.6382  0.9741  0.6035
 1606TIP3   OH226232   0.375   6.010  13.868 -0.8925 -0.2134 -0.2890
 1606TIP3    H126233   0.364   6.103  13.888 -0.0286 -0.0990 -0.2961
 1606TIP3    H226234   0.439   5.980  13.933 -1.3955 -0.8811 -0.0885
 1607TIP3   OH226235   5.998   2.593   2.518  0.2963 -0.0881  0.0843
 1607TIP3    H126236   6.059   2.533   2.560  1.2929  1.5556  1.0629
 1607TIP3    H226237   6.041   2.618   2.436  0.2472 -0.1016  0.0545
 1608TIP3   OH226238   0.177   5.406   2.297  0.4047  0.1004  0.2701
 1608TIP3    H126239   0.135   5.346   2.235  1.2073 -0.9349  0.7032
 1608TIP3    H226240   0.225   5.349   2.357  0.6494  1.1485  1.1042
 1609TIP3   OH226241   4.870   6.141   1.812  0.1880 -0.4954  0.2565
 1609TIP3    H126242   4.961   6.164   1.834  0.1840 -0.0471 -0.1812
 1609TIP3    H226243   4.843   6.208   1.749  0.0792 -1.5545 -0.8501
 1610TIP3   OH226244   2.958   0.101   0.344  0.4765  0.1270 -1.0921
 1610TIP3    H126245   3.008   0.165   0.292 -0.5064  2.1517  0.3150
 1610TIP3    H226246   3.005   0.096   0.427 -0.4097  0.3461 -0.5677
 1611TIP3   OH226247   3.967   5.345  17.019 -0.1376 -0.0488 -0.0219
 1611TIP3    H126248   4.029   5.273  17.024 -0.4261 -0.2922  0.1173
 1611TIP3    H226249   4.003   5.405  16.954  1.0685  0.6019  1.2084
 1612TIP3   OH226250   4.589   1.244   6.306  0.3564 -0.0471  0.0380
 1612TIP3    H126251   4.660   1.307   6.291  0.2601 -0.3038 -1.7958
 1612TIP3    H226252   4.552   1.229   6.219 -1.3495 -0.6441  0.8260
 1613TIP3   OH226253   0.519   3.676   5.139  0.1186 -0.7014  0.2272
 1613TIP3    H126254   0.588   3.617   5.171 -0.4355 -1.5956 -0.1983
 1613TIP3    H226255   0.552   3.708   5.055  0.1485 -0.8786  0.1713
 1614TIP3   OH226256   1.517   3.983   4.004 -0.1220 -0.3279  0.2438
 1614TIP3    H126257   1.518   3.957   3.911 -1.2320  0.7158 -0.0852
 1614TIP3    H226258   1.425   4.005   4.022  0.4168  1.5480  0.9841
 1615TIP3   OH226259   1.082   5.462   6.064 -0.1975  0.0132 -0.2466
 1615TIP3    H126260   1.009   5.402   6.075 -1.1679  1.1343 -0.3355
 1615TIP3    H226261   1.082   5.483   5.970 -0.1068  0.4285 -0.1580
 1616TIP3   OH226262   6.573   5.891   2.037  0.4891 -0.2024 -0.0175
 1616TIP3    H126263   6.568   5.899   1.941 -0.7569 -0.5077  0.0049
 1616TIP3    H226264   6.497   5.939   2.069  0.7634 -0.3099  0.8108
 1617TIP3   OH226265   2.255   2.951  16.292  0.0825 -0.7247  0.2085
 1617TIP3    H126266   2.270   3.041  16.321 -2.3685 -0.1684  0.0330
 1617TIP3    H226267   2.307   2.897  16.351  1.2490  0.7774  0.6048
 1618TIP3   OH226268   4.570   0.692  14.975 -0.2340  0.2361 -0.4940
 1618TIP3    H126269   4.610   0.704  14.889  1.1121  0.8030  0.1845
 1618TIP3    H226270   4.510   0.766  14.985 -2.0110 -0.9523 -1.7766
 1619TIP3   OH226271   3.722   1.921  14.695 -0.3391 -1.0171 -0.2825
 1619TIP3    H126272   3.655   1.987  14.716 -1.4817 -2.4112  0.5922
 1619TIP3    H226273   3.699   1.890  14.607  0.0812 -0.4318 -0.6106
 1620TIP3   OH226274   4.335   5.219  16.851  0.0435 -0.3526 -0.2781
 1620TIP3    H126275   4.289   5.234  16.768  0.4224  0.5773 -0.3248
 1620TIP3    H226276   4.366   5.129  16.844  1.3084  0.1509 -1.7738
 1621TIP3   OH226277   4.225   6.541  13.296 -0.1207  0.1629 -0.5309
 1621TIP3    H126278   4.202   6.622  13.341 -0.5107  0.2126 -0.8124
 1621TIP3    H226279   4.186   6.471  13.349  1.2082  0.0593  0.3656
 1622TIP3   OH226280   3.472   0.179  14.868 -0.2818 -0.4514 -0.2592
 1622TIP3    H126281   3.557   0.142  14.892 -0.1585  0.2430  0.4417
 1622TIP3    H226282   3.421   0.174  14.948 -0.0240  1.4889  0.0886
 1623TIP3   OH226283   0.579   5.326   4.715  0.3326 -0.4301 -0.2269
 1623TIP3    H126284   0.497   5.290   4.749 -0.3425  0.1074 -1.2350
 1623TIP3    H226285   0.643   5.256   4.728 -0.3463 -0.9571  0.3367
 1624TIP3   OH226286   5.811   3.093   5.941 -0.2653  0.0585  0.6132
 1624TIP3    H126287   5.898   3.120   5.912 -0.5128  0.2327  0.0183
 1624TIP3    H226288   5.823   3.003   5.971  0.0426 -0.0486  0.1775
 1625TIP3   OH226289   4.031   4.739  14.870  0.4056 -0.2371  0.0354
 1625TIP3    H126290   4.101   4.765  14.810  1.2329  2.0602  1.8177
 1625TIP3    H226291   4.073   4.674  14.928  0.0126 -1.4023 -0.9448
 1626TIP3   OH226292   3.187   2.348  17.150  0.2016 -0.4296  0.6450
 1626TIP3    H126293   3.179   2.252  17.148 -0.3992 -0.3818  0.4898
 1626TIP3    H226294   3.175   2.375  17.059  3.2841 -0.3933  0.1532
 1627TIP3   OH226295   4.744   5.711   2.345 -0.2391 -0.6742  0.0574
 1627TIP3    H126296   4.729   5.747   2.257 -3.9367 -1.4876  0.1825
 1627TIP3    H226297   4.704   5.776   2.404 -0.4387 -1.5140  0.8658
 1628TIP3   OH226298   0.230   4.117  14.241  0.2588  0.1016 -0.2713
 1628TIP3    H126299   0.146   4.154  14.216  0.7778  0.0368 -2.2662
 1628TIP3    H226300   0.289   4.141  14.170  1.2618 -2.2554 -0.3281
 1629TIP3   OH226301   0.287   2.454  11.222  0.7928  0.5280 -0.3094
 1629TIP3    H126302   0.289   2.420  11.133 -3.6054 -0.8404 -0.1308
 1629TIP3    H226303   0.226   2.528  11.218  1.1688  0.9846  1.4466
 1630TIP3   OH226304   6.462   2.140   3.321 -0.4384 -0.3026 -0.1686
 1630TIP3    H126305   6.462   2.111   3.230 -1.8651  0.0798 -0.3036
 1630TIP3    H226306   6.460   2.236   3.316  1.2019 -0.2020  0.2900
 1631TIP3   OH226307   0.858   6.296  12.015 -0.1673  0.1215  0.4206
 1631TIP3    H126308   0.843   6.381  11.973 -0.2011  0.2185  0.6305
 1631TIP3    H226309   0.808   6.235  11.961 -0.0388  0.2146  0.1929
 1632TIP3   OH226310   4.587   0.418  14.271  0.2522  0.6387  0.3447
 1632TIP3    H126311   4.650   0.446  14.204 -0.2313  0.3850 -0.2263
 1632TIP3    H226312   4.546   0.340  14.234 -1.4418  1.6266  0.0467
 1633TIP3   OH226313   6.393   6.020  10.942  0.0206  0.1984  0.5675
 1633TIP3    H126314   6.374   5.935  10.981 -0.5373 -0.2101 -0.5364
 1633TIP3    H226315   6.482   6.011  10.908 -0.1405 -0.0613  0.1994
 1634TIP3   OH226316   4.505   2.185  12.659  0.4651  0.4221 -0.2794
 1634TIP3    H126317   4.523   2.174  12.753 -1.3839  0.4279  0.1072
 1634TIP3    H226318   4.511   2.097  12.623  0.0854  0.2586  0.0526
 1635TIP3   OH226319   2.855   2.736   0.171 -0.2920  0.5687 -0.2354
 1635TIP3    H126320   2.814   2.817   0.141 -0.2531  0.7298  0.1435
 1635TIP3    H226321   2.789   2.696   0.228 -0.7388 -0.2028 -1.2581
 1636TIP3   OH226322   1.843   4.944   6.053 -0.9131  0.0797  0.1157
 1636TIP3    H126323   1.924   4.903   6.025 -1.3556 -1.5509  1.1111
 1636TIP3    H226324   1.870   5.026   6.094  0.3238 -0.8721  1.2635
 1637TIP3   OH226325   2.335   4.728   1.584  0.0710 -0.1996  0.0604
 1637TIP3    H126326   2.380   4.810   1.565 -0.6885  0.6323  1.5886
 1637TIP3    H226327   2.299   4.700   1.500 -0.0443  1.2901 -0.4229
 1638TIP3   OH226328   3.885   2.649  15.931 -0.6192  0.0322 -0.1496
 1638TIP3    H126329   3.838   2.603  15.862 -0.4288 -0.5773  0.1246
 1638TIP3    H226330   3.921   2.727  15.887  0.1895 -0.7578 -0.9403
 1639TIP3   OH226331   0.990   6.032   4.425  0.2804  0.7400 -0.5163
 1639TIP3    H126332   1.069   6.067   4.467  0.1122  0.0369  0.4106
 1639TIP3    H226333   1.011   5.940   4.408 -0.3958  0.5129 -0.1326
 1640TIP3   OH226334   5.173   5.268   0.834  0.0462  0.5994 -0.0119
 1640TIP3    H126335   5.109   5.332   0.804 -0.4951  0.0099 -0.1288
 1640TIP3    H226336   5.256   5.297   0.796 -0.5629  0.0200 -1.8951
 1641TIP3   OH226337   4.444   2.335  11.085 -0.1378  0.3851  0.1258
 1641TIP3    H126338   4.359   2.296  11.108 -0.2248 -0.8729 -2.0859
 1641TIP3    H226339   4.446   2.417  11.135 -1.6944 -0.5598  1.8857
 1642TIP3   OH226340   1.824   4.754  11.368 -0.5800  0.4198  0.0414
 1642TIP3    H126341   1.912   4.768  11.404 -0.2043 -0.7526 -0.3483
 1642TIP3    H226342   1.819   4.813  11.293  0.2018 -0.0751 -0.4218
 1643TIP3   OH226343   0.070   3.480  15.186 -0.2212 -0.5470 -0.1015
 1643TIP3    H126344   0.137   3.548  15.195 -0.0093 -0.3441 -2.4284
 1643TIP3    H226345   0.099   3.410  15.245  0.9942  0.3113  0.3748
 1644TIP3   OH226346   2.569   6.011   5.157 -0.5218  0.2829 -0.3027
 1644TIP3    H126347   2.496   5.998   5.218  0.5676 -0.5109  0.8770
 1644TIP3    H226348   2.643   6.034   5.213  0.6491 -1.0040 -1.2570
 1645TIP3   OH226349   6.674   0.075   5.660 -0.2456  0.0024 -0.2251
 1645TIP3    H126350   6.716   0.018   5.595  0.0567  1.0923 -1.0116
 1645TIP3    H226351   6.701   0.163   5.636 -2.4251  0.6977 -0.3558
 1646TIP3   OH226352   6.044   1.526  14.263 -0.4494 -0.1343 -0.0744
 1646TIP3    H126353   6.121   1.573  14.231 -0.9842  0.3245 -0.7286
 1646TIP3    H226354   6.025   1.461  14.195 -0.6465 -0.2369  0.0752
 1647TIP3   OH226355   6.754   4.100   4.507 -0.1548 -0.3929 -0.2370
 1647TIP3    H126356   6.760   4.007   4.527 -2.5110 -0.2633  1.5109
 1647TIP3    H226357   6.671   4.110   4.461  0.6044  0.7407 -1.4651
 1648TIP3   OH226358   4.106   1.494  16.227 -0.4971 -0.3157 -0.0567
 1648TIP3    H126359   4.109   1.399  16.230  0.4788 -0.2866  1.9765
 1648TIP3    H226360   4.050   1.515  16.153 -3.0431 -2.5078  1.0995
 1649TIP3   OH226361   5.813   3.451   0.668 -0.2848  0.1823 -0.0753
 1649TIP3    H126362   5.871   3.401   0.612 -0.4371 -0.2878  0.1862
 1649TIP3    H226363   5.781   3.389   0.733 -0.5902  0.5785  0.1649
 1650TIP3   OH226364   0.235   4.260  16.316  0.5943  0.7935 -0.0145
 1650TIP3    H126365   0.330   4.267  16.318  0.5159  2.0517  0.7062
 1650TIP3    H226366   0.207   4.335  16.262  0.0535 -0.2498 -1.2290
 1651TIP3   OH226367   6.500   3.466   3.253  0.4569  0.1924 -0.0190
 1651TIP3    H126368   6.514   3.420   3.170  1.6666  3.1196 -1.5606
 1651TIP3    H226369   6.410   3.443   3.278  0.1335 -0.9337 -2.0061
 1652TIP3   OH226370   3.611   6.612  13.389 -0.2943 -0.4952  0.2849
 1652TIP3    H126371   3.564   6.682  13.343  2.6208 -0.0338 -2.3781
 1652TIP3    H226372   3.601   6.536  13.333  0.6498 -0.8286  0.5470
 1653TIP3   OH226373   3.980   3.653   3.762  0.0939  0.0567  0.0085
 1653TIP3    H126374   3.938   3.595   3.827  0.5237  0.3412  0.5539
 1653TIP3    H226375   3.921   3.727   3.754  0.0101 -0.0071  0.0307
 1654TIP3   OH226376   5.603   4.069  15.941 -0.3667 -0.4322 -0.2000
 1654TIP3    H126377   5.585   3.976  15.926 -0.7086 -0.2867 -0.7210
 1654TIP3    H226378   5.668   4.070  16.011 -0.3462 -1.0658 -0.2057
 1655TIP3   OH226379   3.791   5.313  13.366 -0.2801 -0.8925  0.3475
 1655TIP3    H126380   3.784   5.318  13.461 -0.7482 -3.0549  0.4780
 1655TIP3    H226381   3.755   5.396  13.335  0.4852  0.1270  2.0495
 1656TIP3   OH226382   1.541   3.204  16.786 -0.3808 -0.4526  0.2625
 1656TIP3    H126383   1.465   3.217  16.729 -0.7220 -0.7138  0.6482
 1656TIP3    H226384   1.504   3.203  16.874  0.1199 -0.2249  0.4777
 1657TIP3   OH226385   5.992   1.034  12.260  0.6592  0.6281  0.2971
 1657TIP3    H126386   6.001   1.129  12.252  2.0968  0.4490 -0.5603
 1657TIP3    H226387   6.078   1.000  12.236 -0.2171 -0.9632 -0.7198
 1658TIP3   OH226388   5.119   2.819   5.363  0.0849  0.2163  0.5527
 1658TIP3    H126389   5.071   2.794   5.442  0.4767 -0.5622  0.5442
 1658TIP3    H226390   5.206   2.843   5.394 -0.0141  0.7093  0.4524
 1659TIP3   OH226391   3.421   1.455  15.096 -0.1954 -0.4494 -0.5271
 1659TIP3    H126392   3.378   1.498  15.170  0.0644 -0.6322 -0.2681
 1659TIP3    H226393   3.406   1.514  15.022  0.3716  0.2153 -0.1280
 1660TIP3   OH226394   3.146   4.726  11.840 -0.3033 -0.0271  0.3181
 1660TIP3    H126395   3.194   4.726  11.923 -0.0166 -1.3174  0.1839
 1660TIP3    H226396   3.062   4.766  11.860 -0.0122  0.2177  1.0860
 1661TIP3   OH226397   1.049   1.625  14.615 -0.1031  0.3539  0.1084
 1661TIP3    H126398   0.955   1.612  14.626 -0.2782 -0.8372 -2.2221
 1661TIP3    H226399   1.085   1.613  14.702 -2.0454  0.2880  0.9593
 1662TIP3   OH226400   5.991   0.301  17.174 -0.1911 -0.1560  0.8717
 1662TIP3    H126401   6.026   0.222  17.132  0.1543 -0.0292  0.9219
 1662TIP3    H226402   5.968   0.358  17.101  1.9163  0.7287  0.8401
 1663TIP3   OH226403   2.081   5.626  14.951  0.2723  0.0813  0.6217
 1663TIP3    H126404   2.024   5.636  15.027  1.3917  0.5983  1.4345
 1663TIP3    H226405   2.029   5.579  14.887 -0.4526 -1.0516  1.9977
 1664TIP3   OH226406   5.728   0.886  15.525 -0.1093  0.0946 -0.0794
 1664TIP3    H126407   5.823   0.885  15.531 -0.1172  0.6078  0.1624
 1664TIP3    H226408   5.709   0.843  15.441  0.3149 -0.3200  0.0301
 1665TIP3   OH226409   3.304   5.628  13.239  0.3115  0.3779  0.3769
 1665TIP3    H126410   3.365   5.559  13.265 -1.9196 -0.5342  3.8032
 1665TIP3    H226411   3.324   5.701  13.298 -2.3451 -0.2680  2.2210
 1666TIP3   OH226412   0.278   1.201   1.490 -0.0812 -0.0944  0.0102
 1666TIP3    H126413   0.309   1.116   1.461 -0.5641 -0.7816  1.3723
 1666TIP3    H226414   0.329   1.219   1.569  0.3412  1.1098 -0.5193
 1667TIP3   OH226415   3.170   4.293   3.102  0.3247 -0.2618 -0.3205
 1667TIP3    H126416   3.092   4.237   3.110  0.8008 -0.8998 -0.0397
 1667TIP3    H226417   3.232   4.256   3.164 -0.1396  1.9966  1.6381
 1668TIP3   OH226418   4.173   5.285  15.502  0.3084 -0.3497 -0.0502
 1668TIP3    H126419   4.172   5.315  15.411 -1.7389  1.1624  0.3962
 1668TIP3    H226420   4.085   5.302  15.534  0.2921 -3.0021  1.5809
 1669TIP3   OH226421   6.537   4.420  14.288 -0.7012  0.2043  0.2249
 1669TIP3    H126422   6.500   4.380  14.209  0.3603  0.3109 -0.3330
 1669TIP3    H226423   6.465   4.473  14.323 -0.6509  1.6282 -1.6716
 1670TIP3   OH226424   5.539   5.708   1.806 -0.0768 -0.2837 -0.6363
 1670TIP3    H126425   5.596   5.640   1.769 -0.2353 -0.3537 -0.7505
 1670TIP3    H226426   5.573   5.721   1.895 -0.1246 -0.6045 -0.5674
 1671TIP3   OH226427   3.765   4.143  16.186 -0.3007 -0.0072  0.0318
 1671TIP3    H126428   3.702   4.148  16.114 -0.3627 -1.7140 -0.0769
 1671TIP3    H226429   3.742   4.063  16.233  0.8606  0.1217  0.8704
 1672TIP3   OH226430   3.219   1.269   0.156  0.5368 -0.3193 -0.6694
 1672TIP3    H126431   3.148   1.301   0.211  1.9471  0.3623  0.8215
 1672TIP3    H226432   3.199   1.176   0.141  0.7378 -0.8689  2.0650
 1673TIP3   OH226433   0.987   5.340   1.453 -0.4611 -0.5023  0.1578
 1673TIP3    H126434   1.008   5.313   1.542  0.7522 -2.5419 -0.6817
 1673TIP3    H226435   1.072   5.361   1.414 -0.6707 -2.0281 -1.2214
 1674TIP3   OH226436   4.346   1.214   3.339 -0.0184  0.1377 -0.2426
 1674TIP3    H126437   4.389   1.131   3.360 -1.0810  0.0752  1.9783
 1674TIP3    H226438   4.273   1.189   3.281  1.0171 -0.1404 -1.4708
 1675TIP3   OH226439   1.958   5.524   4.579  0.1302  0.1187  0.5371
 1675TIP3    H126440   1.876   5.571   4.592  0.6798  1.5315 -0.8189
 1675TIP3    H226441   1.980   5.490   4.666 -0.9353  1.3099  1.3049
 1676TIP3   OH226442   6.151   1.489   2.552 -0.1925 -0.1410  0.2354
 1676TIP3    H126443   6.231   1.504   2.502 -0.8531 -1.5893 -1.3527
 1676TIP3    H226444   6.112   1.576   2.562  1.0199  0.4365  0.0976
 1677TIP3   OH226445   5.601   1.533  16.874  0.0034 -0.1542  0.3755
 1677TIP3    H126446   5.672   1.469  16.877 -1.4076 -1.7956  0.6275
 1677TIP3    H226447   5.621   1.595  16.944  0.9927 -0.7812  0.6723
 1678TIP3   OH226448   2.853   5.515  14.221 -0.0984  0.0969  0.0243
 1678TIP3    H126449   2.815   5.489  14.137 -0.0974 -1.8490  0.5701
 1678TIP3    H226450   2.840   5.610  14.226 -1.0441  0.0839 -1.6888
 1679TIP3   OH226451   2.894   1.223   0.737 -0.2301 -0.3104  0.1973
 1679TIP3    H126452   2.862   1.306   0.773  0.3348  0.3394 -0.7448
 1679TIP3    H226453   2.820   1.163   0.745 -1.1921  0.7207 -0.5156
 1680TIP3   OH226454   0.190   2.402   4.677  0.0063 -0.3164 -0.1775
 1680TIP3    H126455   0.213   2.313   4.703 -0.2254 -0.0532  0.9836
 1680TIP3    H226456   0.094   2.404   4.676  0.0037  0.0346  0.2504
 1681TIP3   OH226457   3.898   3.947   2.866  0.2821 -0.2694 -0.0198
 1681TIP3    H126458   3.849   3.942   2.784 -0.4877 -0.2156  0.4315
 1681TIP3    H226459   3.909   4.041   2.881  0.4035 -0.2794 -0.0413
 1682TIP3   OH226460   1.257   1.089  13.792  0.5968 -0.1198 -0.4800
 1682TIP3    H126461   1.241   1.061  13.702  1.4556  0.3390 -0.7909
 1682TIP3    H226462   1.324   1.029  13.824  0.6221 -0.0009 -0.3074
 1683TIP3   OH226463   4.200   5.848  16.157  0.3515  0.2304 -0.7376
 1683TIP3    H126464   4.238   5.771  16.199  0.0573  0.8738  0.7665
 1683TIP3    H226465   4.166   5.816  16.073 -0.7452 -1.4921  0.3215
 1684TIP3   OH226466   1.688   2.347   4.930  0.2211  0.1477  0.6226
 1684TIP3    H126467   1.782   2.333   4.939  0.2456  0.7726  1.4530
 1684TIP3    H226468   1.650   2.314   5.011 -0.2862 -0.1604  0.2693
 1685TIP3   OH226469   2.592   1.193  14.904 -0.8682 -0.1694 -0.3014
 1685TIP3    H126470   2.682   1.158  14.906 -0.6720  0.3338  1.4195
 1685TIP3    H226471   2.588   1.252  14.979 -2.5086  0.1990 -0.6455
 1686TIP3   OH226472   5.979   1.313  12.330  0.2746 -0.1398  0.1728
 1686TIP3    H126473   5.918   1.308  12.404 -1.1945 -0.6387 -1.0514
 1686TIP3    H226474   5.934   1.366  12.265  0.3132 -2.0651 -1.5091
 1687TIP3   OH226475   0.934   3.662   3.546 -0.5480  0.4065 -0.3985
 1687TIP3    H126476   0.996   3.735   3.555 -0.1673  0.0079  0.3301
 1687TIP3    H226477   0.891   3.658   3.632  0.4667 -1.1377  0.0714
 1688TIP3   OH226478   0.607   6.040   3.880 -0.3489  0.3992 -0.2152
 1688TIP3    H126479   0.614   5.954   3.838 -1.1539 -0.1034  0.6486
 1688TIP3    H226480   0.668   6.095   3.831 -0.5236 -0.4123 -1.4035
 1689TIP3   OH226481   6.602   6.463   6.344 -0.3139  0.1729  0.0598
 1689TIP3    H126482   6.674   6.509   6.301 -0.9129  1.6185  0.5347
 1689TIP3    H226483   6.631   6.372   6.349  1.6192  0.7668  0.5172
 1690TIP3   OH226484   2.987   4.511  14.244  0.1899 -0.2024 -0.1233
 1690TIP3    H126485   2.994   4.480  14.154 -0.3535 -0.5214 -0.0568
 1690TIP3    H226486   2.945   4.597  14.237  1.9108  0.6780 -0.3291
 1691TIP3   OH226487   2.598   5.087   4.849 -0.5339  0.7785  0.0640
 1691TIP3    H126488   2.672   5.105   4.790 -0.9506 -3.1801 -2.0516
 1691TIP3    H226489   2.635   5.030   4.916 -1.4396 -0.7597 -0.6839
 1692TIP3   OH226490   6.499   0.088   4.809  0.4581 -0.2393  0.0025
 1692TIP3    H126491   6.490   0.129   4.895  0.4723 -0.8569  0.3014
 1692TIP3    H226492   6.587   0.112   4.781  0.5635 -0.2815  0.2897
 1693TIP3   OH226493   2.459   1.995  16.411  0.0440 -0.1953  0.0677
 1693TIP3    H126494   2.516   2.028  16.480  0.7172  0.2666 -0.6973
 1693TIP3    H226495   2.404   2.070  16.387  1.2572  0.3008 -1.3453
 1694TIP3   OH226496   6.618   4.779   0.195 -0.0891  0.1619  0.3165
 1694TIP3    H126497   6.705   4.752   0.223 -0.5901  0.0352  1.8501
 1694TIP3    H226498   6.607   4.867   0.230 -0.0234  0.7810 -1.1605
 1695TIP3   OH226499   2.065   3.722  13.095  0.4716  0.1146 -0.2448
 1695TIP3    H126500   2.157   3.703  13.080  0.6500  1.1288 -0.4937
 1695TIP3    H226501   2.025   3.720  13.008  0.0302 -1.3287 -0.0500
 1696TIP3   OH226502   0.943   1.222  14.230  0.6145  0.1500 -0.2516
 1696TIP3    H126503   0.995   1.142  14.227 -0.5217 -0.5875 -1.1132
 1696TIP3    H226504   0.940   1.246  14.322  0.1991 -1.3238  0.1399
 1697TIP3   OH226505   1.123   5.610  17.107  0.9781 -0.2954  0.6120
 1697TIP3    H126506   1.169   5.693  17.093  2.1011 -1.1731 -1.2158
 1697TIP3    H226507   1.036   5.624  17.068  0.3985  0.6482  2.1433
 1698TIP3   OH226508   5.825   1.819  14.632  0.2534 -0.5296 -0.6640
 1698TIP3    H126509   5.820   1.764  14.553 -1.6817 -1.2693 -0.0663
 1698TIP3    H226510   5.758   1.785  14.690  0.5970  0.9981  0.7120
 1699TIP3   OH226511   6.434   2.733  16.019 -0.1460  0.6110  0.0883
 1699TIP3    H126512   6.445   2.734  15.924 -1.6375  1.7422 -0.1065
 1699TIP3    H226513   6.490   2.661  16.048  0.5129  0.3778 -1.6098
 1700TIP3   OH226514   3.281   6.696   1.628 -0.3831 -0.2299  0.2258
 1700TIP3    H126515   3.282   6.707   1.533 -0.4425 -0.2321  0.2245
 1700TIP3    H226516   3.363   6.653   1.649  0.0415  0.5798  0.2753
 1701TIP3   OH226517   2.675   6.395  17.242 -0.2609  0.2407  0.3455
 1701TIP3    H126518   2.701   6.337  17.171  1.0539  2.1335 -0.8361
 1701TIP3    H226519   2.612   6.455  17.203 -1.5574 -0.3131  1.5176
 1702TIP3   OH226520   2.078   2.778   5.618 -0.5052 -0.1017  0.5855
 1702TIP3    H126521   2.142   2.717   5.581  0.8283  1.2848  0.5323
 1702TIP3    H226522   2.040   2.823   5.543  0.2313  0.7808  0.7222
 1703TIP3   OH226523   5.804   4.729  15.368  0.5723 -0.1842 -0.1366
 1703TIP3    H126524   5.744   4.659  15.341 -1.8597  1.7723 -0.1524
 1703TIP3    H226525   5.886   4.709  15.323 -0.2463 -2.6043 -0.6931
 1704TIP3   OH226526   6.073   4.509   0.271 -0.4470 -0.4112  0.2574
 1704TIP3    H126527   6.089   4.591   0.318  0.5751 -0.2460 -0.3521
 1704TIP3    H226528   6.160   4.470   0.261 -0.4206  0.1707 -2.5867
 1705TIP3   OH226529   2.566   3.445   5.368  0.0834 -0.4016 -0.2291
 1705TIP3    H126530   2.549   3.387   5.442  1.7876 -1.4660 -0.6287
 1705TIP3    H226531   2.654   3.479   5.384 -0.3007  0.9393 -0.7766
 1706TIP3   OH226532   6.267   5.866   4.773 -0.1532 -0.0237  0.2259
 1706TIP3    H126533   6.280   5.854   4.867  2.3776  0.6179  0.0421
 1706TIP3    H226534   6.227   5.953   4.765  1.3999  0.7731  0.6847
 1707TIP3   OH226535   5.609   2.191   3.342 -0.2125  0.5589  0.8061
 1707TIP3    H126536   5.674   2.259   3.360  0.7849  0.4993 -2.0688
 1707TIP3    H226537   5.661   2.113   3.320 -1.1332  0.5545 -1.7396
 1708TIP3   OH226538   5.152   3.566   0.956 -0.4013  0.3230 -0.6699
 1708TIP3    H126539   5.090   3.599   0.891 -0.2199 -0.1067 -1.0671
 1708TIP3    H226540   5.135   3.472   0.959  0.7494  0.0737 -1.3568
 1709TIP3   OH226541   2.713   1.929   0.034 -0.1191 -0.3888  0.5444
 1709TIP3    H126542   2.798   1.917   0.077  1.3408  0.6497 -1.8834
 1709TIP3    H226543   2.688   2.019   0.056  2.0810  1.2578 -2.9077
 1710TIP3   OH226544   5.612   0.986   4.141  0.9365 -0.1900 -0.3483
 1710TIP3    H126545   5.612   0.897   4.107  1.1481  0.0884 -1.0998
 1710TIP3    H226546   5.545   1.031   4.091 -0.0027 -0.2118  0.8461
 1711TIP3   OH226547   6.385   2.674  10.960 -0.5543 -0.1096 -0.3610
 1711TIP3    H126548   6.387   2.692  11.054 -1.0095  1.0263 -0.5482
 1711TIP3    H226549   6.456   2.726  10.924  0.1886 -1.2274 -0.5618
 1712TIP3   OH226550   5.687   5.602  15.096  0.0495 -0.1974  0.6413
 1712TIP3    H126551   5.712   5.604  15.004  0.1584  1.6393  0.6680
 1712TIP3    H226552   5.620   5.669  15.105  0.6831  0.3001  2.0584
 1713TIP3   OH226553   1.299   5.025   3.885 -0.1096  0.2308  0.1995
 1713TIP3    H126554   1.385   5.059   3.910 -0.6162  1.8654 -0.1461
 1713TIP3    H226555   1.295   4.937   3.923  1.0337  0.7818  1.6619
 1714TIP3   OH226556   4.998   3.385  16.042  0.6158 -0.1143  0.6455
 1714TIP3    H126557   4.903   3.389  16.026  0.2599  0.4774  2.5653
 1714TIP3    H226558   5.034   3.456  15.989 -0.3312  1.0538  1.4925
 1715TIP3   OH226559   5.421   6.448   0.047  0.3041  0.3465 -0.3045
 1715TIP3    H126560   5.487   6.446  -0.022 -1.3763  0.6980 -2.0074
 1715TIP3    H226561   5.403   6.541   0.060  0.2580  0.2621  0.2782
 1716TIP3   OH226562   1.511   1.934  17.054  0.3722 -0.3354 -0.4351
 1716TIP3    H126563   1.574   1.917  16.984  0.4845  2.1908 -1.0489
 1716TIP3    H226564   1.433   1.884  17.030  0.6394 -0.0238 -2.0493
 1717TIP3   OH226565   3.854   5.604  14.705  0.1857 -0.2006 -0.3825
 1717TIP3    H126566   3.918   5.659  14.659  0.9335 -1.4248 -0.8577
 1717TIP3    H226567   3.781   5.595  14.643  0.3398 -0.2473 -0.5601
 1718TIP3   OH226568   0.035   5.647   1.719  0.1839  0.1167  0.0241
 1718TIP3    H126569   0.069   5.623   1.804 -0.7204  0.8198  0.6075
 1718TIP3    H226570  -0.009   5.731   1.733 -0.4504 -0.0141 -1.0071
 1719TIP3   OH226571   0.831   3.203  14.777 -0.6031 -0.4132 -0.1375
 1719TIP3    H126572   0.774   3.186  14.853 -0.8435 -0.1496 -0.2575
 1719TIP3    H226573   0.919   3.187  14.810 -0.7420 -0.7781  0.0645
 1720TIP3   OH226574   2.356   2.000   1.638  0.0536  0.4676  0.1275
 1720TIP3    H126575   2.347   2.083   1.683  3.0085  0.3469  1.1662
 1720TIP3    H226576   2.401   2.021   1.556  0.5332 -0.0370  0.2491
 1721TIP3   OH226577   2.746   0.222  11.811  0.3416  0.1070  0.5163
 1721TIP3    H126578   2.798   0.142  11.813 -1.1067 -1.0732 -2.4528
 1721TIP3    H226579   2.662   0.197  11.848  0.4506  0.7656  1.2188
 1722TIP3   OH226580   1.789   0.442  15.359  0.1272 -0.4295 -0.4841
 1722TIP3    H126581   1.802   0.372  15.296  0.6120 -1.9050  1.1946
 1722TIP3    H226582   1.777   0.398  15.443  0.4295  1.4900  0.6388
 1723TIP3   OH226583   5.551   5.992  15.328 -0.2727 -0.1268 -0.4338
 1723TIP3    H126584   5.558   5.946  15.244  1.1342  1.3630 -1.2070
 1723TIP3    H226585   5.535   6.084  15.303 -1.2201  0.1205  0.9857
 1724TIP3   OH226586   6.780   1.441  16.129 -0.0680  0.5104 -0.2074
 1724TIP3    H126587   6.725   1.518  16.116 -0.3712  0.2342 -0.5444
 1724TIP3    H226588   6.742   1.373  16.074 -1.0938 -0.5374  1.6835
 1725TIP3   OH226589   6.592   2.707   2.992 -0.2043 -0.2695 -0.2479
 1725TIP3    H126590   6.679   2.746   2.999 -0.4230  0.0145  1.3841
 1725TIP3    H226591   6.571   2.679   3.082 -2.6788  1.6830 -0.0953
 1726TIP3   OH226592   5.914   3.266   2.173  0.3623 -0.2273  0.1443
 1726TIP3    H126593   5.996   3.269   2.221 -0.1928 -2.4043  1.3508
 1726TIP3    H226594   5.933   3.214   2.095  0.1700 -0.6764  0.3913
 1727TIP3   OH226595   5.405   4.639  15.422  0.3400  0.3737  0.5536
 1727TIP3    H126596   5.494   4.607  15.411 -0.5907 -1.8356 -1.4892
 1727TIP3    H226597   5.394   4.703  15.352 -0.0194 -0.2926 -0.0180
 1728TIP3   OH226598   5.499   1.668  14.458 -0.1942 -0.5904 -0.0247
 1728TIP3    H126599   5.561   1.638  14.525 -0.5240 -1.2871 -0.0262
 1728TIP3    H226600   5.425   1.608  14.465 -0.0795 -0.9162 -1.2545
 1729TIP3   OH226601   6.103   0.247  15.114 -0.2345  0.1847  0.3460
 1729TIP3    H126602   6.118   0.222  15.205  1.6017 -1.3130 -0.3074
 1729TIP3    H226603   6.070   0.167  15.073  2.2616 -0.2517 -1.0152
 1730TIP3   OH226604   6.409   6.111   1.323  0.0970 -0.0982  0.3717
 1730TIP3    H126605   6.331   6.166   1.318 -0.4382 -0.8577  0.2747
 1730TIP3    H226606   6.412   6.082   1.414  1.8193  2.1283  1.1111
 1731TIP3   OH226607   4.370   5.717   4.731 -0.1954 -0.5188  0.2331
 1731TIP3    H126608   4.310   5.703   4.657  1.3433  0.3848 -1.2390
 1731TIP3    H226609   4.359   5.638   4.785 -0.1067 -2.0696 -1.8643
 1732TIP3   OH226610   6.312   2.624  16.510  0.5169  0.1169  0.3525
 1732TIP3    H126611   6.332   2.690  16.443 -0.3350 -0.1133 -0.1414
 1732TIP3    H226612   6.310   2.541  16.463  0.2399 -0.0933  0.7291
 1733TIP3   OH226613   5.390   3.612  13.182 -0.3516 -0.7130  0.7691
 1733TIP3    H126614   5.395   3.616  13.086 -0.9281 -0.6760  0.7384
 1733TIP3    H226615   5.297   3.627  13.202 -0.1811 -0.4000  1.3504
 1734TIP3   OH226616   4.417   0.871  17.226  0.5606  0.1915 -0.0489
 1734TIP3    H126617   4.455   0.958  17.218  2.4626 -0.6134 -0.1600
 1734TIP3    H226618   4.376   0.855  17.141  0.6784  0.7389 -0.2134
 1735TIP3   OH226619   2.308   3.340   6.088  0.0791 -0.2568 -0.3496
 1735TIP3    H126620   2.331   3.253   6.119 -0.1431 -0.4941 -0.8405
 1735TIP3    H226621   2.384   3.368   6.036  1.0074  0.6647  1.4046
 1736TIP3   OH226622   3.943   5.585   5.566  0.4937  0.2731  0.0755
 1736TIP3    H126623   3.987   5.513   5.610 -0.2386 -0.1602  0.1082
 1736TIP3    H226624   3.974   5.581   5.475  0.1753 -0.3173 -0.0125
 1737TIP3   OH226625   4.713   2.713  13.771 -0.1731 -0.9597 -0.5607
 1737TIP3    H126626   4.767   2.713  13.692  0.5274  2.7938 -0.2712
 1737TIP3    H226627   4.767   2.755  13.837 -1.4516 -2.2662  1.3973
 1738TIP3   OH226628   2.918   4.056  12.310  0.6621  0.2139 -0.1426
 1738TIP3    H126629   3.011   4.076  12.322  1.0714 -1.0074 -1.0600
 1738TIP3    H226630   2.874   4.104  12.380  1.9012  1.4193 -0.1649
 1739TIP3   OH226631   2.056   0.869  15.137  0.3795 -0.2084  0.6643
 1739TIP3    H126632   2.011   0.794  15.176 -2.4816 -1.1900 -3.6938
 1739TIP3    H226633   2.097   0.834  15.058  0.4080  2.4867 -0.6484
 1740TIP3   OH226634   0.036   3.751   2.060 -0.0483  0.0618 -0.2670
 1740TIP3    H126635   0.119   3.796   2.045  0.4198 -0.2807  1.1281
 1740TIP3    H226636  -0.025   3.820   2.086  0.2768  0.1049  0.4112
 1741TIP3   OH226637   1.738   1.699  15.431  0.1363 -0.1803 -0.5901
 1741TIP3    H126638   1.790   1.738  15.501  1.6398 -1.6875 -0.8119
 1741TIP3    H226639   1.729   1.607  15.456 -0.7685 -0.3660 -1.5344
 1742TIP3   OH226640   1.408   3.233  11.470 -0.0278  0.5652 -0.5001
 1742TIP3    H126641   1.355   3.197  11.399  0.9589 -0.7351 -0.6075
 1742TIP3    H226642   1.497   3.203  11.451  0.3586  0.7336  0.9491
 1743TIP3   OH226643   6.328   4.918   0.010  0.5598  0.1192  0.5004
 1743TIP3    H126644   6.415   4.927  -0.030 -0.1611  0.1994 -1.1238
 1743TIP3    H226645   6.274   4.880  -0.059 -1.2753  2.2815  0.6456
 1744TIP3   OH226646   5.423   4.749   1.001 -0.0957  0.6670 -0.2864
 1744TIP3    H126647   5.467   4.664   1.006 -1.6452 -0.1752 -0.1902
 1744TIP3    H226648   5.486   4.812   1.036  1.5366 -0.2586 -1.5017
 1745TIP3   OH226649   0.011   3.685  17.036 -0.2461 -0.4676 -0.1991
 1745TIP3    H126650  -0.080   3.714  17.042  0.1263  0.8954 -0.7859
 1745TIP3    H226651   0.036   3.664  17.126 -0.8888 -0.0448  0.0786
 1746TIP3   OH226652   3.155   1.185   0.732 -0.3070 -0.1580 -0.4133
 1746TIP3    H126653   3.061   1.172   0.749 -0.2923 -0.1340 -0.3121
 1746TIP3    H226654   3.173   1.274   0.762 -0.2683 -0.1352 -0.5056
 1747TIP3   OH226655   2.577   3.654  13.776 -0.3420  0.8946 -0.1552
 1747TIP3    H126656   2.574   3.725  13.840  0.7997  1.6637 -0.9209
 1747TIP3    H226657   2.536   3.580  13.820 -1.5110  2.0014  0.6805
 1748TIP3   OH226658   5.078   1.212  11.652  0.7837  0.1297  0.1602
 1748TIP3    H126659   5.099   1.299  11.619 -1.8541  0.3400 -1.2667
 1748TIP3    H226660   4.989   1.195  11.620  0.8707 -2.7417  1.1207
 1749TIP3   OH226661   3.136   5.923  16.965  0.7232  0.3406  0.1827
 1749TIP3    H126662   3.128   5.900  16.873 -0.3834  1.2397  0.0293
 1749TIP3    H226663   3.185   6.005  16.965  1.8025 -0.2890  0.4925
 1750TIP3   OH226664   0.311   5.862   4.292  0.6194  0.0560 -0.0277
 1750TIP3    H126665   0.239   5.800   4.298  1.2589 -0.7702 -0.5449
 1750TIP3    H226666   0.347   5.866   4.380 -0.5669  1.1327  0.4335
 1751TIP3   OH226667   5.109   3.009   2.697 -0.3465 -0.0913 -0.5375
 1751TIP3    H126668   5.051   3.046   2.762  1.9095 -0.7139  2.0320
 1751TIP3    H226669   5.092   3.059   2.617 -2.3527  1.5683  0.8331
 1752TIP3   OH226670   3.441   4.910  16.072  0.4094 -0.2351  0.5057
 1752TIP3    H126671   3.514   4.855  16.099  2.3210  2.8309  2.0636
 1752TIP3    H226672   3.469   4.948  15.989  0.6248  0.9456  1.1017
 1753TIP3   OH226673   5.459   4.928   1.927 -0.4124 -0.1478  0.5823
 1753TIP3    H126674   5.463   4.888   1.840  0.2144  0.0397  0.5205
 1753TIP3    H226675   5.486   4.858   1.986 -0.2512 -0.0952  0.5696
 1754TIP3   OH226676   3.142   3.945  17.004  0.2105 -0.7273 -0.3896
 1754TIP3    H126677   3.181   3.942  17.092 -1.7911  0.5902  0.5947
 1754TIP3    H226678   3.145   3.854  16.974  0.8286 -1.2167  1.0671
 1755TIP3   OH226679   1.515   3.682   3.171 -0.5602 -0.3833  0.6670
 1755TIP3    H126680   1.588   3.682   3.232  0.1684  0.9379 -0.1625
 1755TIP3    H226681   1.553   3.709   3.087 -1.0133 -4.3977 -1.0697
 1756TIP3   OH226682   5.995   4.983   0.736 -0.3638  0.7878  0.1676
 1756TIP3    H126683   5.945   4.939   0.804  1.1415  2.1175  2.2545
 1756TIP3    H226684   5.929   5.021   0.678 -1.6851 -1.1109  0.3194
 1757TIP3   OH226685   3.680   5.172  16.430 -0.0797 -0.3028 -0.3057
 1757TIP3    H126686   3.631   5.096  16.459  1.5437 -1.2702  0.0202
 1757TIP3    H226687   3.614   5.240  16.415 -1.3494 -1.0646  1.5786
 1758TIP3   OH226688   1.110   3.681   2.136  0.1468  0.5144  0.4753
 1758TIP3    H126689   1.204   3.663   2.137  0.4775  2.0994  0.2260
 1758TIP3    H226690   1.083   3.655   2.048 -0.1800 -2.1872  1.2655
 1759TIP3   OH226691   0.460   5.127  13.608 -0.1308 -0.4202  0.0284
 1759TIP3    H126692   0.486   5.050  13.660  0.1513 -0.1182  0.3392
 1759TIP3    H226693   0.426   5.090  13.527  0.6665 -0.8553 -0.1209
 1760TIP3   OH226694   0.329   2.504   6.518 -0.1061 -0.4350 -0.2097
 1760TIP3    H126695   0.334   2.410   6.533  1.1387 -0.5118 -0.9577
 1760TIP3    H226696   0.385   2.519   6.442 -3.1047  0.4234 -2.4502
 1761TIP3   OH226697   0.465   4.746  14.819 -0.1781  0.3004 -0.1497
 1761TIP3    H126698   0.422   4.819  14.863 -2.1395 -0.5398 -0.5625
 1761TIP3    H226699   0.504   4.784  14.740 -1.8358  0.7995 -0.7605
 1762TIP3   OH226700   3.863   3.501   2.915 -0.4792  0.7561  0.1573
 1762TIP3    H126701   3.931   3.563   2.888 -1.7547  1.6849 -1.0626
 1762TIP3    H226702   3.908   3.440   2.973  1.4082  1.3072 -0.6446
 1763TIP3   OH226703   3.313   6.715  11.241  0.2218 -0.3994  0.3875
 1763TIP3    H126704   3.317   6.810  11.250 -0.1575 -0.2623 -0.8066
 1763TIP3    H226705   3.293   6.683  11.330 -4.2976  0.9270  0.0775
 1764TIP3   OH226706   6.754   2.846  11.837  0.8438  0.1438  0.2788
 1764TIP3    H126707   6.683   2.825  11.897 -0.2471  1.7567 -0.3920
 1764TIP3    H226708   6.795   2.761  11.818 -2.2740 -1.2109 -1.0714
 1765TIP3   OH226709   1.434   6.424  13.501 -0.3898 -0.5807 -0.5093
 1765TIP3    H126710   1.484   6.498  13.534 -0.9210 -0.7858  0.8332
 1765TIP3    H226711   1.366   6.463  13.446  0.7131 -0.2526 -1.6870
 1766TIP3   OH226712   1.128   1.343  15.302 -0.3226 -0.0786 -0.7106
 1766TIP3    H126713   1.091   1.425  15.271  0.6449 -0.4218 -2.9374
 1766TIP3    H226714   1.150   1.295  15.223 -0.3306 -2.2690  0.5309
 1767TIP3   OH226715   1.437   2.116  11.294 -0.3794 -0.1019  0.0176
 1767TIP3    H126716   1.509   2.085  11.239 -1.2338 -1.1767 -0.5370
 1767TIP3    H226717   1.371   2.148  11.231 -0.9395 -0.3820  0.4555
 1768TIP3   OH226718   0.848   0.252   3.803  0.1345 -0.0615  0.4909
 1768TIP3    H126719   0.936   0.232   3.834 -0.3039  0.6169  2.3161
 1768TIP3    H226720   0.803   0.288   3.879 -1.3760  0.7111 -0.6963
 1769TIP3   OH226721   4.665   4.522   3.472 -0.2629  0.5824 -0.5477
 1769TIP3    H126722   4.586   4.575   3.482 -0.4421  0.2384 -0.1289
 1769TIP3    H226723   4.651   4.447   3.530  0.2361  0.3638 -0.7079
 1770TIP3   OH226724   0.479   3.634   2.777 -0.0435  0.1154  0.0944
 1770TIP3    H126725   0.450   3.722   2.800 -0.7065  0.1195 -0.7335
 1770TIP3    H226726   0.561   3.648   2.729  0.0078  0.2574  0.2201
 1771TIP3   OH226727   3.647   3.287  15.284  0.4876  0.1954  0.1658
 1771TIP3    H126728   3.722   3.308  15.228  0.2036  0.7935  0.0109
 1771TIP3    H226729   3.609   3.209  15.244 -0.5998  1.4469 -1.3802
 1772TIP3   OH226730   0.115   1.018  11.804 -0.0766 -0.3264  0.2445
 1772TIP3    H126731   0.100   1.066  11.885  0.2981  1.4117 -0.6628
 1772TIP3    H226732   0.195   0.969  11.819 -1.5663 -2.4221  1.9247
 1773TIP3   OH226733   6.348   4.751  13.521  0.2799 -0.0517 -0.2938
 1773TIP3    H126734   6.332   4.658  13.537  2.3280 -0.2446  1.0606
 1773TIP3    H226735   6.294   4.797  13.585  0.3535 -0.3754  0.0007
 1774TIP3   OH226736   2.362   5.748  14.471  0.2166 -0.4652  0.1101
 1774TIP3    H126737   2.425   5.746  14.543  0.3724 -1.4287 -0.0318
 1774TIP3    H226738   2.277   5.743  14.515  0.0761  2.6240  0.4086
 1775TIP3   OH226739   6.563   0.814   3.900 -0.3689  0.9340 -0.5389
 1775TIP3    H126740   6.500   0.755   3.858 -0.9095  1.4145 -0.4267
 1775TIP3    H226741   6.647   0.771   3.889 -0.5142  0.9432 -1.9599
 1776TIP3   OH226742   5.339   4.517   1.296 -0.1322  0.1790  0.2581
 1776TIP3    H126743   5.423   4.543   1.334  0.3080  0.3463 -0.8006
 1776TIP3    H226744   5.355   4.429   1.261  0.1491  0.9071 -1.5453
 1777TIP3   OH226745   4.192   6.243   3.171  0.5872 -0.5132  0.2407
 1777TIP3    H126746   4.229   6.184   3.106 -0.0377  0.4831 -1.0748
 1777TIP3    H226747   4.111   6.200   3.199  0.1333 -0.3053 -0.7067
 1778TIP3   OH226748   4.026   1.027   3.752  0.4382  0.3255 -0.2332
 1778TIP3    H126749   4.107   1.055   3.795 -0.7258  3.1497  0.3265
 1778TIP3    H226750   4.056   0.972   3.679  2.7600  0.3668  0.6005
 1779TIP3   OH226751   4.788   2.251   5.295 -0.5633  0.3156 -0.3527
 1779TIP3    H126752   4.714   2.194   5.275  0.4373 -0.8530 -0.8515
 1779TIP3    H226753   4.832   2.209   5.369  0.4744  0.1337 -1.0486
 1780TIP3   OH226754   1.318   5.373   6.779 -0.2461 -0.2291 -0.6851
 1780TIP3    H126755   1.336   5.306   6.714  0.4283  0.0884 -0.8353
 1780TIP3    H226756   1.244   5.339   6.830  0.9541 -1.7273  0.1339
 1781TIP3   OH226757   5.810   5.726   1.155  0.3237  0.5207  0.5721
 1781TIP3    H126758   5.814   5.801   1.215 -0.1560  0.7663  0.3056
 1781TIP3    H226759   5.760   5.758   1.080  2.1819  0.6951 -0.6527
 1782TIP3   OH226760   1.227   5.397   0.354 -0.4573 -0.0330 -0.1513
 1782TIP3    H126761   1.292   5.382   0.423  1.1201  3.8937 -0.5198
 1782TIP3    H226762   1.267   5.363   0.275  0.3640  0.6306 -0.0402
 1783TIP3   OH226763   0.768   4.251  12.054  0.2733  0.2051 -0.6824
 1783TIP3    H126764   0.678   4.230  12.028 -0.0145 -1.0701  1.1566
 1783TIP3    H226765   0.758   4.309  12.129  1.0130  0.5426 -0.8328
 1784TIP3   OH226766   0.435   1.306   3.227 -0.3107  0.0576 -0.0087
 1784TIP3    H126767   0.456   1.317   3.320  0.9210 -0.2682 -0.2350
 1784TIP3    H226768   0.366   1.371   3.210 -1.8109 -1.0472  1.5282
 1785TIP3   OH226769   6.594   5.341   3.574  0.1625 -0.0119 -0.3483
 1785TIP3    H126770   6.600   5.360   3.668 -1.1346  2.1451 -0.6235
 1785TIP3    H226771   6.603   5.427   3.532  2.7154 -1.1196 -2.3763
 1786TIP3   OH226772   5.983   2.018   0.332  0.3962  0.1909  0.3910
 1786TIP3    H126773   5.905   1.962   0.337 -0.1535  1.0335  2.1789
 1786TIP3    H226774   6.030   2.000   0.414  2.1083 -0.3049 -0.6659
 1787TIP3   OH226775   4.712   2.550   5.770 -0.3679  0.6718  0.3942
 1787TIP3    H126776   4.792   2.572   5.817  1.4831  0.2106 -2.3192
 1787TIP3    H226777   4.668   2.634   5.758  0.8579  1.2783 -0.0246
 1788TIP3   OH226778   5.217   0.220   1.357 -0.2018 -0.4725  0.4613
 1788TIP3    H126779   5.311   0.208   1.367  0.0917  1.8875  1.0680
 1788TIP3    H226780   5.207   0.266   1.274 -0.4801  1.8599  1.6777
 1789TIP3   OH226781   4.010   2.580   5.248  0.1728  0.2364 -0.1088
 1789TIP3    H126782   4.063   2.530   5.187  0.9468  0.9653 -0.0619
 1789TIP3    H226783   3.993   2.663   5.203  1.7878  1.2755  1.0954
 1790TIP3   OH226784   0.488   3.929   2.812 -0.4568  0.5355  0.1797
 1790TIP3    H126785   0.401   3.916   2.849 -0.7958  1.6036 -0.2035
 1790TIP3    H226786   0.547   3.930   2.888 -0.5318 -1.8186  0.3337
 1791TIP3   OH226787   3.612   4.450  13.101 -0.3176  0.0271 -0.1642
 1791TIP3    H126788   3.667   4.385  13.146 -0.5890  0.1576  0.3715
 1791TIP3    H226789   3.625   4.530  13.152  0.4893  0.5621 -1.1809
 1792TIP3   OH226790   0.507   1.449  17.013  0.0404  0.1354 -0.0800
 1792TIP3    H126791   0.424   1.476  17.053 -0.4704 -1.7119  0.2037
 1792TIP3    H226792   0.483   1.423  16.924  0.3137 -0.3895 -0.0027
 1793TIP3   OH226793   0.679   4.832  11.767 -0.3839 -0.7227  0.3979
 1793TIP3    H126794   0.736   4.767  11.727  0.3248 -0.1734  0.5042
 1793TIP3    H226795   0.616   4.780  11.817 -1.3705 -1.4403 -1.4659
 1794TIP3   OH226796   1.968   2.441   0.241 -0.7534 -0.1012 -0.5677
 1794TIP3    H126797   1.967   2.348   0.263  0.4003  0.0545  0.2219
 1794TIP3    H226798   1.922   2.484   0.313 -4.1575 -0.2712 -2.4104
 1795TIP3   OH226799   1.696   3.989   1.583 -0.5084 -0.0665  0.6374
 1795TIP3    H126800   1.671   4.067   1.632 -0.9345  0.6501 -0.6542
 1795TIP3    H226801   1.792   3.989   1.583 -0.5027 -0.0458  1.3815
 1796TIP3   OH226802   3.128   0.389  17.196  0.3842  0.1628  0.0368
 1796TIP3    H126803   3.146   0.472  17.241  0.5508 -0.7244  1.6903
 1796TIP3    H226804   3.072   0.341  17.257 -0.5734 -0.5428 -1.3527
 1797TIP3   OH226805   4.231   1.761  15.898  0.3384  0.3039 -0.4437
 1797TIP3    H126806   4.263   1.743  15.986  4.4985 -2.5020 -2.2017
 1797TIP3    H226807   4.141   1.727  15.898  0.5215 -0.4444  2.4438
 1798TIP3   OH226808   6.193   0.983  16.804 -0.4141  0.3222 -0.1909
 1798TIP3    H126809   6.238   1.061  16.837 -0.6635  0.5477 -0.3825
 1798TIP3    H226810   6.236   0.963  16.721 -1.0078  0.8474 -0.6317
 1799TIP3   OH226811   3.778   1.041   2.554 -0.0371 -0.5422  0.2958
 1799TIP3    H126812   3.859   1.070   2.596 -0.4618 -0.2795  0.9529
 1799TIP3    H226813   3.749   0.966   2.606 -2.2604  1.6974  2.5585
 1800TIP3   OH226814   2.562   0.997   5.945 -0.2477 -0.4062 -0.4227
 1800TIP3    H126815   2.609   1.068   5.989 -1.6261  0.0498  0.3620
 1800TIP3    H226816   2.501   0.964   6.010 -1.9199 -0.1215 -1.7808
 1801TIP3   OH226817   2.470   0.397   5.710  0.1617  0.3454 -0.1564
 1801TIP3    H126818   2.537   0.465   5.703  1.1788 -0.3827  1.8925
 1801TIP3    H226819   2.388   0.441   5.687  0.6739  2.4861  1.8779
 1802TIP3   OH226820   6.746   2.595  15.786 -0.2056 -0.0466  0.2023
 1802TIP3    H126821   6.821   2.646  15.755  0.4396 -0.7366  0.5868
 1802TIP3    H226822   6.749   2.515  15.734  0.9730 -1.2870  2.0390
 1803TIP3   OH226823   5.311   3.713   0.241 -0.1304  0.0871 -0.2731
 1803TIP3    H126824   5.259   3.786   0.207 -0.4715  0.4329  0.9297
 1803TIP3    H226825   5.398   3.750   0.253  0.1182 -0.1732 -1.2082
 1804TIP3   OH226826   5.875   0.065  12.822 -0.3124  0.2391 -0.1542
 1804TIP3    H126827   5.938   0.095  12.887 -0.0737  0.4341 -0.4722
 1804TIP3    H226828   5.887   0.124  12.747 -0.9881  0.3858 -0.1572
 1805TIP3   OH226829   0.969   3.621  14.999 -0.0610 -0.1898 -0.0093
 1805TIP3    H126830   0.917   3.562  14.944  0.2807  0.7639 -1.4216
 1805TIP3    H226831   0.924   3.621  15.084 -1.5484 -0.4871 -0.7679
 1806TIP3   OH226832   4.949   2.510  15.282  0.1704 -0.0834  0.3880
 1806TIP3    H126833   4.972   2.429  15.326  3.0834  2.1950  3.6112
 1806TIP3    H226834   4.875   2.545  15.331  0.3177  0.2370  0.3832
 1807TIP3   OH226835   6.494   3.057  14.756  0.3446 -0.0438  0.1722
 1807TIP3    H126836   6.523   3.122  14.820  0.8137  0.8415 -0.9128
 1807TIP3    H226837   6.410   3.026  14.790  0.6805  0.2494  1.3192
 1808TIP3   OH226838   2.180   6.190  14.832  0.1588 -0.4147 -0.0203
 1808TIP3    H126839   2.264   6.153  14.859  0.0856 -0.2050  0.5199
 1808TIP3    H226840   2.157   6.143  14.752 -0.0234 -1.7064  0.7463
 1809TIP3   OH226841   1.911   5.006  10.264  0.1676  0.1315 -0.1407
 1809TIP3    H126842   1.996   5.004  10.220 -0.0702 -0.2647 -0.5941
 1809TIP3    H226843   1.907   5.092  10.306  0.3328  0.5950 -1.0425
 1810TIP3   OH226844   0.479   2.911   4.447  0.1304  0.2978 -0.1554
 1810TIP3    H126845   0.409   2.859   4.407 -1.0055  1.9288 -0.4005
 1810TIP3    H226846   0.553   2.851   4.454 -0.8607 -1.1009 -1.1622
 1811TIP3   OH226847   2.177   6.493  14.957  0.1165 -0.3457  0.5942
 1811TIP3    H126848   2.143   6.565  14.905  1.2292  0.8632  1.4729
 1811TIP3    H226849   2.158   6.414  14.905  1.1462  0.7800 -1.6429
 1812TIP3   OH226850   3.630   3.409   5.134  0.1195  0.4753  0.0426
 1812TIP3    H126851   3.701   3.469   5.111  1.2226 -0.9599 -0.4032
 1812TIP3    H226852   3.550   3.462   5.126  0.9792  1.6520 -1.1685
 1813TIP3   OH226853   5.310   3.215  12.763 -0.1681  0.0656  0.1400
 1813TIP3    H126854   5.275   3.126  12.760  2.0724 -0.8416 -0.7878
 1813TIP3    H226855   5.363   3.218  12.843 -0.9020  0.8752  0.6226
 1814TIP3   OH226856   0.155   0.515   4.715 -0.1669 -0.0530  0.7338
 1814TIP3    H126857   0.134   0.468   4.634 -0.0883 -0.8926  1.1908
 1814TIP3    H226858   0.140   0.607   4.694 -0.0212 -0.2487 -0.2751
 1815TIP3   OH226859   4.048   0.303  16.868  0.0110  0.3054 -0.5656
 1815TIP3    H126860   4.051   0.281  16.961 -0.2160  2.6684  0.0546
 1815TIP3    H226861   3.976   0.249  16.833  0.2970 -0.8394  0.5291
 1816TIP3   OH226862   2.984   1.977   5.650 -0.1658 -0.1815  0.0268
 1816TIP3    H126863   3.015   1.961   5.561 -1.3811 -0.1405 -0.4171
 1816TIP3    H226864   2.909   1.919   5.661 -2.3543  2.3982 -0.2952
 1817TIP3   OH226865   6.338   3.894  14.215  0.0209  0.9235  0.4379
 1817TIP3    H126866   6.333   3.839  14.137  0.3777  2.0301 -0.3883
 1817TIP3    H226867   6.431   3.896  14.236 -0.2059 -0.5655  1.8076
 1818TIP3   OH226868   0.951   5.290  13.455 -0.0730  0.6578 -0.7344
 1818TIP3    H126869   0.892   5.350  13.501 -0.8907  0.6808 -1.7919
 1818TIP3    H226870   1.001   5.248  13.525 -0.2424  1.7776  0.0859
 1819TIP3   OH226871   5.839   3.477  13.956  0.5197  0.2686 -0.1895
 1819TIP3    H126872   5.832   3.569  13.931 -1.0642  0.2241  0.0238
 1819TIP3    H226873   5.754   3.455  13.992  1.3923 -0.8535  1.2950
 1820TIP3   OH226874   0.069   3.978   1.047 -1.1246 -0.4126 -0.2670
 1820TIP3    H126875   0.145   3.949   1.099 -1.4040  0.4984  0.6995
 1820TIP3    H226876   0.070   3.922   0.970  0.8315 -0.0959 -0.5239
 1821TIP3   OH226877   2.570   2.750   1.762 -0.3331  0.4323 -0.0375
 1821TIP3    H126878   2.476   2.735   1.750  0.1453 -1.8190 -1.9121
 1821TIP3    H226879   2.582   2.844   1.748 -2.3066  0.7704  0.3381
 1822TIP3   OH226880   0.858   2.670  14.358  0.0444  0.8186 -0.1570
 1822TIP3    H126881   0.937   2.687  14.409 -0.8125  0.5618  1.2800
 1822TIP3    H226882   0.881   2.698  14.269  1.6070  1.1298  0.3202
 1823TIP3   OH226883   1.221   5.013   4.274 -0.1940  0.5102  0.0432
 1823TIP3    H126884   1.272   5.024   4.354 -0.1973 -1.1716  0.3100
 1823TIP3    H226885   1.184   5.100   4.257  0.7154  1.1573  1.2302
 1824TIP3   OH226886   4.741   0.553  12.795  0.0718 -0.2241  0.3263
 1824TIP3    H126887   4.699   0.569  12.710  0.0718 -2.5390 -0.1588
 1824TIP3    H226888   4.811   0.490  12.776  0.4575 -0.3335  1.9622
 1825TIP3   OH226889   3.478   0.213  12.147  0.0782 -0.2422  0.0670
 1825TIP3    H126890   3.471   0.143  12.083 -0.9918 -0.6288  0.5854
 1825TIP3    H226891   3.421   0.186  12.219  1.2378  0.1937  1.1747
 1826TIP3   OH226892   2.156   6.375  12.015 -0.0361  0.0684  0.1847
 1826TIP3    H126893   2.156   6.423  11.933  0.6514  1.1917  0.8156
 1826TIP3    H226894   2.088   6.309  12.004  0.2525 -0.0056 -1.3901
 1827TIP3   OH226895   2.722   5.015  11.003  0.0343  0.1646 -0.4452
 1827TIP3    H126896   2.736   4.984  11.093  0.3462  1.6559  0.0513
 1827TIP3    H226897   2.781   5.090  10.995  0.3546 -0.2358 -2.0661
 1828TIP3   OH226898   2.896   4.174  12.060  0.1399  0.9840 -0.0484
 1828TIP3    H126899   2.955   4.102  12.038 -1.1710  0.4458 -2.0624
 1828TIP3    H226900   2.873   4.159  12.152  0.9084 -0.4179 -0.0551
 1829TIP3   OH226901   3.332   2.644  13.985 -0.4542 -0.5603  0.8382
 1829TIP3    H126902   3.314   2.734  14.013 -0.0862 -0.3584  0.4473
 1829TIP3    H226903   3.251   2.597  14.003 -2.4791  0.8698 -3.2293
 1830TIP3   OH226904   0.465   5.950   2.973  0.0607  0.2990  0.2568
 1830TIP3    H126905   0.385   5.965   2.924  0.2644  1.2680  0.1837
 1830TIP3    H226906   0.526   5.914   2.909  0.0632  0.7570 -0.0087
 1831TIP3   OH226907   3.827   3.863   5.552  0.3542 -0.3756 -0.8818
 1831TIP3    H126908   3.897   3.818   5.600 -0.8259  0.2853  1.6524
 1831TIP3    H226909   3.779   3.910   5.620 -3.2484 -1.6617 -2.3279
 1832TIP3   OH226910   3.250   0.592  13.161  0.3651  0.1441  0.1882
 1832TIP3    H126911   3.159   0.621  13.149  0.8816  1.6004 -0.3968
 1832TIP3    H226912   3.282   0.644  13.235  0.7569 -0.2941  0.3288
 1833TIP3   OH226913   4.181   5.289  15.778  0.2056 -0.1873  0.5316
 1833TIP3    H126914   4.152   5.252  15.694  0.1828 -0.1308  0.5143
 1833TIP3    H226915   4.267   5.251  15.793  1.2157  1.4919 -0.6102
 1834TIP3   OH226916   0.041   4.838   1.942  0.4070 -0.3638 -0.4102
 1834TIP3    H126917  -0.036   4.845   1.999 -0.5279 -0.2187 -1.6451
 1834TIP3    H226918   0.044   4.921   1.894  1.6137 -0.1864 -0.0576
 1835TIP3   OH226919   6.626   5.359  15.595  0.3924 -0.2081 -0.0333
 1835TIP3    H126920   6.678   5.396  15.524  0.8109  1.3391  1.0279
 1835TIP3    H226921   6.638   5.419  15.669  0.7396 -2.2332  1.6840
 1836TIP3   OH226922   1.212   0.135   3.845  0.3317  1.0074 -0.4660
 1836TIP3    H126923   1.293   0.165   3.806  1.0975 -1.2288 -0.7458
 1836TIP3    H226924   1.231   0.128   3.939  0.7124 -0.1307 -0.6102
 1837TIP3   OH226925   4.765   1.055  15.573 -0.2663 -0.4427 -0.5527
 1837TIP3    H126926   4.690   1.047  15.632  1.1928 -2.2377  1.1677
 1837TIP3    H226927   4.726   1.051  15.485 -2.3453  0.7679  0.2514
 1838TIP3   OH226928   1.513   1.180   0.597  0.3458 -0.1451  0.0344
 1838TIP3    H126929   1.516   1.182   0.502  2.1611 -0.9659  0.0246
 1838TIP3    H226930   1.461   1.103   0.618 -0.9051  0.5947 -0.2566
 1839TIP3   OH226931   0.606   4.969   4.497 -0.1924 -0.4140 -0.1519
 1839TIP3    H126932   0.532   4.959   4.437  0.3022 -1.6202 -0.5809
 1839TIP3    H226933   0.677   5.002   4.441 -0.0178 -0.5657 -0.0176
 1840TIP3   OH226934   2.368   4.511  16.531  0.2347  0.2546  0.0399
 1840TIP3    H126935   2.379   4.600  16.497 -0.5516  0.0313 -0.8591
 1840TIP3    H226936   2.273   4.496  16.527 -0.4337  1.3128  5.3457
 1841TIP3   OH226937   6.373   1.548   4.047 -0.4183  0.2805  0.2245
 1841TIP3    H126938   6.328   1.631   4.060  0.4990  0.4649  2.7392
 1841TIP3    H226939   6.423   1.534   4.128  0.0385 -2.3667 -0.4038
 1842TIP3   OH226940   3.170   6.074  14.684 -0.5223  0.4932 -0.2025
 1842TIP3    H126941   3.214   6.047  14.604 -1.3490  0.8857 -0.8061
 1842TIP3    H226942   3.216   6.153  14.712 -0.2661  0.3857 -0.3215
 1843TIP3   OH226943   0.820   5.355  12.302 -0.1846  0.4306 -0.3485
 1843TIP3    H126944   0.853   5.444  12.290 -1.2993  1.0489  0.9506
 1843TIP3    H226945   0.728   5.360  12.276 -0.4918 -0.1275  0.6003
 1844TIP3   OH226946   4.813   2.505   5.351  0.2082 -0.4510  0.0114
 1844TIP3    H126947   4.794   2.412   5.340  0.9950 -0.9337  2.2624
 1844TIP3    H226948   4.887   2.508   5.411  0.6324  1.6390 -0.5197
 1845TIP3   OH226949   5.677   4.378   0.798 -0.0780  0.3215 -0.2577
 1845TIP3    H126950   5.701   4.286   0.782  0.5126  0.5790 -0.8985
 1845TIP3    H226951   5.741   4.428   0.748  1.3282  1.1994  2.2623
 1846TIP3   OH226952   5.176   5.915   4.975 -0.2721  0.1362  0.1705
 1846TIP3    H126953   5.142   5.877   5.056 -0.8692  1.7283  0.7159
 1846TIP3    H226954   5.104   5.909   4.913 -1.0350  1.9421  0.8077
 1847TIP3   OH226955   3.443   4.826   2.089  0.4823  0.5328  0.3370
 1847TIP3    H126956   3.459   4.810   1.996 -0.5733  0.9656  0.0679
 1847TIP3    H226957   3.530   4.845   2.125  0.9948 -0.3315 -0.4130
 1848TIP3   OH226958   1.807   1.285   5.823 -0.0235  0.4351  0.2253
 1848TIP3    H126959   1.863   1.352   5.783 -1.6749  1.2425 -0.8730
 1848TIP3    H226960   1.759   1.333   5.892  0.0582 -0.0543  0.6273
 1849TIP3   OH226961   0.129   3.629  13.717 -0.0105 -0.5668 -0.6587
 1849TIP3    H126962   0.050   3.642  13.769  0.1772  0.6161 -0.6290
 1849TIP3    H226963   0.158   3.718  13.695  2.0054 -0.8848  0.4052
 1850TIP3   OH226964   5.495   0.167  17.079  0.0693 -0.3459 -0.0108
 1850TIP3    H126965   5.405   0.134  17.073 -0.7941  2.0375 -1.4998
 1850TIP3    H226966   5.537   0.134  17.000  0.7362 -1.9374  0.9643
 1851TIP3   OH226967   2.884   0.401   0.085 -0.2620 -0.3130 -0.3947
 1851TIP3    H126968   2.857   0.360   0.003  1.8133 -1.4153 -0.6037
 1851TIP3    H226969   2.834   0.353   0.152 -1.2266 -0.0782 -0.9196
 1852TIP3   OH226970   1.454   1.435   2.416  0.0710 -0.6561 -0.1522
 1852TIP3    H126971   1.368   1.469   2.443  0.6408  1.3475 -0.7162
 1852TIP3    H226972   1.511   1.455   2.490  0.2640 -1.0600 -0.1946
 1853TIP3   OH226973   1.491   3.290   5.834 -0.2583 -0.1337 -0.2562
 1853TIP3    H126974   1.578   3.307   5.870 -0.2921  0.2328 -0.3543
 1853TIP3    H226975   1.498   3.201   5.798  0.0694 -0.1099 -0.2564
 1854TIP3   OH226976   4.080   2.231   2.119  0.1233 -0.0050  0.5685
 1854TIP3    H126977   4.016   2.249   2.187 -1.0835  1.9166 -0.9510
 1854TIP3    H226978   4.149   2.296   2.132 -0.4451  0.8280 -0.3714
 1855TIP3   OH226979   2.993   4.894   2.469 -0.0661  0.3750 -0.4103
 1855TIP3    H126980   3.071   4.875   2.417 -0.2986  0.8992 -0.9663
 1855TIP3    H226981   2.935   4.941   2.409 -0.7043  0.2151  0.0738
 1856TIP3   OH226982   2.478   0.671   0.338 -0.3004  0.1770  0.5789
 1856TIP3    H126983   2.425   0.750   0.344  1.0917  1.0992  1.2482
 1856TIP3    H226984   2.435   0.609   0.398 -1.8945  0.0783 -0.6063
 1857TIP3   OH226985   4.759   6.179  15.580 -0.2328  0.2214  0.0683
 1857TIP3    H126986   4.801   6.145  15.659  1.0501 -1.8201 -1.3875
 1857TIP3    H226987   4.670   6.144  15.584  0.2827 -1.2045 -0.0789
 1858TIP3   OH226988   2.595   2.919   0.026 -0.4037 -0.7258 -0.1604
 1858TIP3    H126989   2.577   2.980  -0.045 -2.6175  0.2913  1.1846
 1858TIP3    H226990   2.528   2.851   0.017 -0.6664 -0.6212  0.8929
 1859TIP3   OH226991   6.135   0.085   2.433  0.5016  0.5635 -0.2675
 1859TIP3    H126992   6.049   0.043   2.443 -0.3532  2.4272  0.6284
 1859TIP3    H226993   6.190   0.043   2.500  0.4741 -0.9787 -1.1563
 1860TIP3   OH226994   3.100   6.174   1.045  0.1089  0.2528  0.6599
 1860TIP3    H126995   3.159   6.100   1.054  1.1887  0.9298 -0.6583
 1860TIP3    H226996   3.030   6.156   1.108  0.1218 -2.0813  0.0870
 1861TIP3   OH226997   4.534   6.774   2.089 -0.3423  0.2664  0.8248
 1861TIP3    H126998   4.610   6.832   2.090  0.6398 -0.9977  1.2064
 1861TIP3    H226999   4.533   6.736   2.177 -0.6055 -0.7673  0.3786
 1862TIP3   OH227000   1.283   4.633  12.778 -0.5084 -0.0663 -0.0379
 1862TIP3    H127001   1.379   4.629  12.780 -0.4229  0.2224 -1.9647
 1862TIP3    H227002   1.255   4.542  12.770 -0.4293 -0.1746  0.7950
 1863TIP3   OH227003   3.334   5.941   3.152  0.2604  0.2361 -0.0065
 1863TIP3    H127004   3.329   5.845   3.150  1.1275  0.1165 -4.2879
 1863TIP3    H227005   3.244   5.969   3.169 -0.3333 -1.3546 -0.3231
 1864TIP3   OH227006   6.591   6.200  12.648  0.3663 -0.7153  1.3807
 1864TIP3    H127007   6.602   6.196  12.553 -1.9889  0.3004  1.0134
 1864TIP3    H227008   6.619   6.113  12.679  0.0329 -1.4828 -0.3628
 1865TIP3   OH227009   5.315   0.782  15.232 -0.0609 -0.0362  0.3773
 1865TIP3    H127010   5.355   0.853  15.282 -0.4617  0.2472  0.2974
 1865TIP3    H227011   5.298   0.714  15.297  1.0175 -0.3779  0.3312
 1866TIP3   OH227012   3.643   0.856   5.398  0.1826 -0.6843 -0.4543
 1866TIP3    H127013   3.640   0.780   5.455 -3.9730 -1.4152 -1.3284
 1866TIP3    H227014   3.629   0.820   5.310  1.5388  0.8485 -1.3544
 1867TIP3   OH227015   0.820   6.586   4.036 -0.3372  0.4011 -0.4237
 1867TIP3    H127016   0.896   6.529   4.024 -0.6141  0.2364 -1.5489
 1867TIP3    H227017   0.803   6.622   3.949  0.4064  2.9725  0.4042
 1868TIP3   OH227018   1.752   1.353   4.782  0.4976 -0.1620  0.5508
 1868TIP3    H127019   1.677   1.301   4.809 -0.1345  0.5627  0.2415
 1868TIP3    H227020   1.714   1.426   4.733  1.4333  0.0066  0.0520
 1869TIP3   OH227021   1.637   4.694   1.278  0.0417  0.5566  0.0122
 1869TIP3    H127022   1.598   4.698   1.191 -0.5329 -0.5104  0.2066
 1869TIP3    H227023   1.563   4.685   1.338  0.4877  0.1451  0.5161
 1870TIP3   OH227024   1.207   6.255   3.386 -0.1481 -0.2241  0.6888
 1870TIP3    H127025   1.126   6.303   3.404  0.6543  0.7941  1.7304
 1870TIP3    H227026   1.262   6.317   3.338 -0.5469 -1.4368 -1.4484
 1871TIP3   OH227027   2.203   5.575   5.078  0.3619 -0.1027  0.1201
 1871TIP3    H127028   2.111   5.552   5.085  0.4508 -1.1037 -1.4760
 1871TIP3    H227029   2.248   5.517   5.140  0.1884 -1.7170 -1.2025
 1872TIP3   OH227030   5.346   6.683  16.520  0.4744  0.1497  0.2841
 1872TIP3    H127031   5.442   6.684  16.526  0.5017  0.9954 -0.1727
 1872TIP3    H227032   5.317   6.751  16.581 -0.0190 -2.0574  2.7066
 1873TIP3   OH227033   0.519   0.086  12.022  0.1156  0.4961 -0.1812
 1873TIP3    H127034   0.471   0.004  12.011  1.9102 -0.5365 -0.8160
 1873TIP3    H227035   0.457   0.145  12.065 -3.0422  0.5701 -4.3070
 1874TIP3   OH227036   5.133   0.355   3.843 -0.1747  0.3249  0.7072
 1874TIP3    H127037   5.170   0.389   3.924 -0.8698  1.9097  0.4066
 1874TIP3    H227038   5.194   0.383   3.775  1.1201 -2.1544  0.7628
 1875TIP3   OH227039   6.574   6.507   2.534 -0.3586  0.6420 -0.4016
 1875TIP3    H127040   6.568   6.598   2.505 -1.3593  0.5229 -0.5889
 1875TIP3    H227041   6.663   6.482   2.511  0.3298  1.9259  0.7162
 1876TIP3   OH227042   3.951   6.123  16.065  0.0255  0.3948  0.3406
 1876TIP3    H127043   3.892   6.053  16.094  1.6866 -1.0132  0.4719
 1876TIP3    H227044   4.027   6.078  16.030  0.6371  2.1530 -0.7461
 1877TIP3   OH227045   5.786   5.176   4.130  0.1708  0.0774  0.1391
 1877TIP3    H127046   5.739   5.221   4.059 -0.2143  1.0776  1.0105
 1877TIP3    H227047   5.736   5.095   4.143  0.6782 -0.4894 -1.2167
 1878TIP3   OH227048   0.992   1.753   1.187 -0.0225 -0.0149 -0.3663
 1878TIP3    H127049   1.013   1.684   1.125 -0.2787 -0.9714  0.5906
 1878TIP3    H227050   1.011   1.716   1.273  1.2960  1.6201  0.1101
 1879TIP3   OH227051   2.275   4.296   0.049 -0.5593  0.0568  0.1587
 1879TIP3    H127052   2.267   4.231   0.120 -0.1314 -1.5403 -1.1790
 1879TIP3    H227053   2.213   4.364   0.072 -2.2060 -1.5881  0.8789
 1880TIP3   OH227054   3.013   3.655  12.098 -0.1881 -0.3040 -0.0159
 1880TIP3    H127055   2.982   3.566  12.080 -2.0974  0.1689  0.6503
 1880TIP3    H227056   3.107   3.647  12.107 -0.0090 -1.8476 -2.3890
 1881TIP3   OH227057   1.869   5.460  14.248  0.0346 -0.0673  0.3646
 1881TIP3    H127058   1.781   5.435  14.221 -0.1599 -1.6520  2.2328
 1881TIP3    H227059   1.859   5.484  14.340  1.5299 -0.1350  0.5693
 1882TIP3   OH227060   6.490   5.584  12.410  0.1430  0.5650  0.8320
 1882TIP3    H127061   6.459   5.665  12.371  0.1121 -0.0005 -0.3675
 1882TIP3    H227062   6.511   5.607  12.500 -0.3044  1.7894  0.6399
 1883TIP3   OH227063   5.895   3.935  15.648 -0.2544 -0.3173  0.3377
 1883TIP3    H127064   5.846   3.864  15.606  0.0977 -1.7587  2.2388
 1883TIP3    H227065   5.828   3.994  15.681 -0.5826 -0.1889 -0.5331
 1884TIP3   OH227066   5.257   6.522  12.975 -0.2140 -0.1646 -0.4507
 1884TIP3    H127067   5.257   6.584  13.048  2.1983  1.7916 -1.9575
 1884TIP3    H227068   5.287   6.440  13.014  0.6301  0.7224  0.8608
 1885TIP3   OH227069   5.057   5.814  13.008  0.2516 -0.1807  0.3653
 1885TIP3    H127070   5.121   5.858  13.064 -0.6034  0.6532  0.7144
 1885TIP3    H227071   4.988   5.879  12.994  0.5332 -0.2680 -1.8729
 1886TIP3   OH227072   0.277   4.893   0.267 -0.1775 -0.1531  0.3386
 1886TIP3    H127073   0.329   4.815   0.249  0.3238  0.0165  1.0026
 1886TIP3    H227074   0.258   4.930   0.181 -0.8272 -1.2560 -0.0110
 1887TIP3   OH227075   5.895   4.364   0.448 -0.2205 -0.1008 -0.2645
 1887TIP3    H127076   5.923   4.412   0.370  0.3634 -0.4680 -0.2862
 1887TIP3    H227077   5.913   4.272   0.427 -0.3573 -0.2316  0.1789
 1888TIP3   OH227078   3.563   6.534   0.156 -0.3278  0.0550  0.2370
 1888TIP3    H127079   3.474   6.514   0.185  0.1452 -1.5916  0.6611
 1888TIP3    H227080   3.561   6.627   0.135 -1.2516  0.9547  3.6524
 1889TIP3   OH227081   4.963   0.163   3.650  0.3914  0.0381 -0.2810
 1889TIP3    H127082   4.897   0.103   3.683  3.3548 -2.5624  1.4436
 1889TIP3    H227083   4.960   0.239   3.709 -0.4904 -0.4090  0.2520
 1890TIP3   OH227084   4.030   6.250   2.557  0.0877  0.7042  0.4051
 1890TIP3    H127085   4.014   6.258   2.463  1.3942 -0.6819  0.0211
 1890TIP3    H227086   4.002   6.333   2.593 -0.7463  1.1518 -1.1691
 1891TIP3   OH227087   6.197   2.537   6.576  0.1589  0.2571  0.4613
 1891TIP3    H127088   6.261   2.542   6.647  0.6302  1.2149 -0.0160
 1891TIP3    H227089   6.143   2.615   6.587  0.9658  1.0379 -0.9017
 1892TIP3   OH227090   0.259   3.082   5.463 -0.0932 -1.1215 -0.0220
 1892TIP3    H127091   0.347   3.118   5.470 -0.5133  0.4218 -2.0251
 1892TIP3    H227092   0.202   3.147   5.504 -0.8209  0.5805 -3.4074
 1893TIP3   OH227093   0.768   1.902  14.537  0.0108 -0.3067  0.5045
 1893TIP3    H127094   0.688   1.931  14.581  0.9656  0.9130  1.5155
 1893TIP3    H227095   0.806   1.838  14.597  0.1542 -0.3505  0.3673
 1894TIP3   OH227096   4.905   0.272  15.682  0.3651 -0.0341  0.1689
 1894TIP3    H127097   4.925   0.196  15.737  0.0937  0.3721  0.8420
 1894TIP3    H227098   4.981   0.281  15.625  0.5755 -0.5667  0.3574
 1895TIP3   OH227099   3.639   3.041  16.743  0.2267 -0.1685 -0.0522
 1895TIP3    H127100   3.667   3.132  16.732  0.0232 -0.1662 -0.5785
 1895TIP3    H227101   3.591   3.020  16.662 -0.3042 -0.5350  0.3489
 1896TIP3   OH227102   0.572   2.726   6.568  0.4691 -0.1804  0.6965
 1896TIP3    H127103   0.509   2.731   6.640 -0.2867  2.1807 -0.0347
 1896TIP3    H227104   0.547   2.647   6.520  0.2322 -1.1299  2.3129
 1897TIP3   OH227105   2.505   3.315   0.318 -0.2215  0.0499 -0.8681
 1897TIP3    H127106   2.503   3.342   0.226 -1.0438 -1.1750 -1.2325
 1897TIP3    H227107   2.437   3.248   0.325  0.8483 -0.9760  0.2769
 1898TIP3   OH227108   5.993   5.541  12.271  0.1484 -0.5887 -0.4096
 1898TIP3    H127109   6.047   5.614  12.302  0.0121 -0.1322 -1.2124
 1898TIP3    H227110   5.994   5.478  12.343  2.7147 -1.1290 -0.8121
 1899TIP3   OH227111   4.431   0.882   5.116 -0.1344  0.0113  0.2915
 1899TIP3    H127112   4.504   0.885   5.179  1.4459  1.8773 -1.4688
 1899TIP3    H227113   4.365   0.939   5.155  0.1628 -0.0933  0.9771
 1900TIP3   OH227114   5.128   0.714  15.450  0.4780  0.0763 -0.1813
 1900TIP3    H127115   5.169   0.797  15.423 -1.1205  0.9204 -0.0932
 1900TIP3    H227116   5.048   0.740  15.495 -1.1353 -1.5363 -1.9360
 1901TIP3   OH227117   4.193   3.871   3.469 -0.3558  0.1446 -0.0267
 1901TIP3    H127118   4.135   3.901   3.399  0.2043  1.6908  0.1245
 1901TIP3    H227119   4.273   3.922   3.457  0.5915 -1.1736  0.4151
 1902TIP3   OH227120   1.697   3.682   5.779  0.0171  0.0583 -0.5640
 1902TIP3    H127121   1.703   3.599   5.732  2.0232  0.3944 -0.9828
 1902TIP3    H227122   1.614   3.676   5.827 -0.7393 -1.4334 -1.9610
 1903TIP3   OH227123   0.872   1.968   6.114  0.7612 -0.2442  0.1953
 1903TIP3    H127124   0.880   1.968   6.210  0.3262 -1.6745  0.2402
 1903TIP3    H227125   0.778   1.960   6.097  0.7773  0.5443 -0.3776
 1904TIP3   OH227126   3.825   5.093  16.089 -0.1350  0.3179 -0.1097
 1904TIP3    H127127   3.858   5.167  16.138 -1.3448  1.1025 -0.4411
 1904TIP3    H227128   3.832   5.019  16.149 -0.6637  1.0675  0.9084
 1905TIP3   OH227129   0.135   6.778  16.719 -0.0769 -0.2290 -0.2563
 1905TIP3    H127130   0.171   6.796  16.806  1.8384 -0.8231 -0.8627
 1905TIP3    H227131   0.205   6.729  16.674 -0.9544  0.1823 -2.1737
 1906TIP3   OH227132   2.215   3.315  14.540 -0.4948  0.4201  0.6910
 1906TIP3    H127133   2.298   3.360  14.521  0.0429 -0.9869 -0.4356
 1906TIP3    H227134   2.236   3.255  14.611 -0.0493 -1.1902 -0.7315
 1907TIP3   OH227135   2.921   3.203  14.695  0.1884  0.5360  0.4127
 1907TIP3    H127136   2.902   3.286  14.740 -1.5269  0.5284 -0.2016
 1907TIP3    H227137   3.001   3.221  14.645 -0.7096  2.2124 -0.5435
 1908TIP3   OH227138   0.855   0.211  15.218  0.5438  0.1546  0.3234
 1908TIP3    H127139   0.829   0.221  15.126  1.2926 -0.4910  0.0254
 1908TIP3    H227140   0.899   0.126  15.221 -0.0728 -0.1485  1.4271
 1909TIP3   OH227141   2.958   1.649   1.939 -0.2124 -0.0471 -0.5285
 1909TIP3    H127142   2.879   1.633   1.991  0.1835 -1.6877 -0.3616
 1909TIP3    H227143   2.958   1.743   1.924 -0.3580  0.5359  2.4441
 1910TIP3   OH227144   1.994   2.638  11.538 -0.2018 -0.1285 -0.3517
 1910TIP3    H127145   1.903   2.611  11.524 -0.1748 -0.0543 -0.6956
 1910TIP3    H227146   2.000   2.656  11.632 -0.3147 -0.9389 -0.1868
 1911TIP3   OH227147   6.456   6.715  16.901 -0.3740 -0.6273 -0.7746
 1911TIP3    H127148   6.518   6.717  16.828 -1.4181 -2.5700 -1.8003
 1911TIP3    H227149   6.422   6.804  16.906  1.9175  0.3223 -0.6345
 1912TIP3   OH227150   5.201   0.974  15.449  0.4650  0.5543  0.3329
 1912TIP3    H127151   5.119   1.004  15.411  0.3477 -0.2214 -0.0555
 1912TIP3    H227152   5.209   1.023  15.531 -0.2645  0.8147  0.2559
 1913TIP3   OH227153   3.556   4.550  11.002 -0.4097 -0.4697  0.1530
 1913TIP3    H127154   3.468   4.516  11.020 -1.4888  2.1585  0.1679
 1913TIP3    H227155   3.588   4.580  11.088  0.5424 -1.3580  0.1405
 1914TIP3   OH227156   4.138   0.659   0.723  0.1581  0.2917 -0.1893
 1914TIP3    H127157   4.057   0.681   0.768  0.0652 -1.0773  0.3521
 1914TIP3    H227158   4.111   0.613   0.644  0.3965 -0.0512 -0.0754
 1915TIP3   OH227159   0.024   1.659   3.023 -0.2474 -0.5558  0.0250
 1915TIP3    H127160   0.009   1.566   3.040  0.3180 -0.5888  0.3721
 1915TIP3    H227161   0.098   1.682   3.080 -0.2028  0.0366 -0.2666
 1916TIP3   OH227162   3.304   4.548   2.671 -0.2797  0.3090  0.1103
 1916TIP3    H127163   3.251   4.474   2.640 -1.0609  0.3970  1.1493
 1916TIP3    H227164   3.330   4.595   2.592 -3.5170  1.4558 -0.4020
 1917TIP3   OH227165   5.209   3.511   0.394  0.3177 -0.3513  0.4733
 1917TIP3    H127166   5.278   3.447   0.413  0.0030 -0.5608  0.9294
 1917TIP3    H227167   5.240   3.557   0.316  0.3655 -1.3273 -0.0958
 1918TIP3   OH227168   2.509   3.593  12.225  0.1853  0.0862 -0.6603
 1918TIP3    H127169   2.481   3.529  12.291  1.1933 -0.8643 -1.1225
 1918TIP3    H227170   2.480   3.677  12.260 -0.8632 -0.5731  0.1371
 1919TIP3   OH227171   6.403   0.643   2.676  0.3419 -0.2378 -0.4274
 1919TIP3    H127172   6.366   0.619   2.761 -0.6032  1.0468 -0.4412
 1919TIP3    H227173   6.498   0.635   2.687  0.2661  0.5339  0.9545
 1920TIP3   OH227174   6.600   3.863  14.231  0.7954  0.4945 -0.2568
 1920TIP3    H127175   6.664   3.892  14.166  1.1776 -2.5478 -1.3935
 1920TIP3    H227176   6.652   3.832  14.305  0.5457  0.0649 -0.2569
 1921TIP3   OH227177   6.466   4.753  16.338 -0.0086  0.0104  0.1234
 1921TIP3    H127178   6.385   4.803  16.327  1.1037  1.8591 -0.1418
 1921TIP3    H227179   6.479   4.710  16.253 -0.9198 -0.6779  0.3126
 1922TIP3   OH227180   0.001   2.439  11.395  0.5212 -0.3416 -0.5208
 1922TIP3    H127181   0.064   2.507  11.374 -0.5766  0.5113 -1.1214
 1922TIP3    H227182   0.055   2.366  11.427  1.7427  0.6282 -0.2797
 1923TIP3   OH227183   6.387   4.430   0.993 -0.3133 -0.1723  0.0148
 1923TIP3    H127184   6.297   4.456   1.009 -0.2554 -0.5475  1.0148
 1923TIP3    H227185   6.410   4.374   1.067  0.5514 -0.5563 -0.5221
 1924TIP3   OH227186   4.538   4.931  12.340 -0.7292 -0.2144  0.3559
 1924TIP3    H127187   4.559   4.840  12.361  0.7744 -0.2725 -1.2103
 1924TIP3    H227188   4.486   4.925  12.260 -2.1156  0.2547  1.1806
 1925TIP3   OH227189   6.462   2.173  16.002 -0.2691  0.4949 -0.2639
 1925TIP3    H127190   6.380   2.214  16.029  0.5330  0.8255  1.8789
 1925TIP3    H227191   6.525   2.199  16.069  1.2455 -0.9439 -1.0491
 1926TIP3   OH227192   3.185   1.315   4.607 -0.0469  0.7016 -0.2408
 1926TIP3    H127193   3.274   1.287   4.587 -0.9433 -2.3793 -0.3612
 1926TIP3    H227194   3.152   1.351   4.525  1.2872  2.7971  0.0361
 1927TIP3   OH227195   6.133   6.574   4.546 -0.3385 -0.5466  0.3459
 1927TIP3    H127196   6.109   6.546   4.634 -3.0257 -0.0902 -0.1509
 1927TIP3    H227197   6.201   6.640   4.559  0.5916 -1.7813  1.9426
 1928TIP3   OH227198   4.503   4.396  15.603  0.2228 -0.3453  0.1261
 1928TIP3    H127199   4.438   4.363  15.665 -1.0303 -1.6670 -1.8239
 1928TIP3    H227200   4.578   4.338  15.614  0.2548 -0.1970  0.7895
 1929TIP3   OH227201   5.922   4.214  12.876 -0.0226 -0.3805  0.2897
 1929TIP3    H127202   5.953   4.262  12.800 -2.7804 -2.1022 -2.1121
 1929TIP3    H227203   5.875   4.280  12.928  2.1449  0.8765  0.7681
 1930TIP3   OH227204   5.817   5.880  16.779 -0.3606  0.7016 -0.1827
 1930TIP3    H127205   5.863   5.956  16.744 -0.0055  2.4688  3.5572
 1930TIP3    H227206   5.885   5.814  16.789  0.9518  2.2651  2.4861
 1931TIP3   OH227207   4.333   2.348   2.091  0.5019 -0.4686 -0.5457
 1931TIP3    H127208   4.396   2.359   2.163  0.3758 -0.2954 -0.4623
 1931TIP3    H227209   4.363   2.408   2.023 -0.4271  0.7288  0.0711
 1932TIP3   OH227210   3.110   5.851  13.193 -0.2018 -0.2609 -0.6643
 1932TIP3    H127211   3.165   5.776  13.219 -1.0359 -0.8331 -0.5080
 1932TIP3    H227212   3.050   5.862  13.266  0.0415  0.7000 -0.6059
 1933TIP3   OH227213   3.787   5.040  14.827 -0.2275  0.1097  0.1765
 1933TIP3    H127214   3.875   5.058  14.794  0.0973 -0.7836  0.5088
 1933TIP3    H227215   3.730   5.094  14.773  0.4026 -0.3614 -0.9994
 1934TIP3   OH227216   0.097   4.782  16.970  0.1257 -0.0527  0.6270
 1934TIP3    H127217   0.190   4.787  16.993 -0.0244 -1.4060  1.7361
 1934TIP3    H227218   0.058   4.857  17.014  0.8296  1.2051 -0.8072
 1935TIP3   OH227219   5.105   4.763   5.241 -0.0517 -0.0835  0.4980
 1935TIP3    H127220   5.049   4.719   5.178  0.2903  1.7456 -1.1701
 1935TIP3    H227221   5.183   4.707   5.248  0.5996  0.4188 -1.9397
 1936TIP3   OH227222   6.401   6.127   4.173 -0.3061 -0.4622  0.4186
 1936TIP3    H127223   6.448   6.142   4.255  2.2197  2.0240 -1.3158
 1936TIP3    H227224   6.353   6.209   4.158  0.0830 -0.4894 -1.0715
 1937TIP3   OH227225   0.551   4.043   3.797  0.1512 -0.1513 -0.2177
 1937TIP3    H127226   0.524   4.021   3.708 -0.2322  0.1686 -0.1832
 1937TIP3    H227227   0.471   4.076   3.839  0.9241  2.5850 -0.6746
 1938TIP3   OH227228   1.228   5.389   1.370 -0.2311  0.2881 -0.3680
 1938TIP3    H127229   1.316   5.425   1.360 -0.1043  0.2338  0.4929
 1938TIP3    H227230   1.179   5.428   1.298  0.8325 -0.8146 -1.7497
 1939TIP3   OH227231   0.949   6.032  11.646 -0.3113 -1.0314  0.4190
 1939TIP3    H127232   0.909   5.959  11.599  0.4609 -0.0720 -1.8289
 1939TIP3    H227233   0.905   6.032  11.731 -0.5229 -3.9206  0.4232
 1940TIP3   OH227234   5.069   3.233   0.498 -0.1712 -0.0059 -0.5393
 1940TIP3    H127235   4.987   3.240   0.450  0.0329  1.3121 -0.7360
 1940TIP3    H227236   5.069   3.310   0.556  1.3226  0.5412 -1.2120
 1941TIP3   OH227237   0.507   3.134  10.988  0.4678  0.5980  0.2258
 1941TIP3    H127238   0.461   3.134  11.072  0.3637  1.8789  0.1865
 1941TIP3    H227239   0.565   3.057  10.992  0.0927  0.3552  1.2519
 1942TIP3   OH227240   1.068   2.996  15.151  0.3876 -0.1121  0.1982
 1942TIP3    H127241   1.030   3.042  15.226 -0.1516 -0.4369  0.1351
 1942TIP3    H227242   1.038   2.906  15.161  0.5362 -0.2147 -0.2581
 1943TIP3   OH227243   1.342   0.553   5.465 -0.4607  0.5987 -0.2046
 1943TIP3    H127244   1.287   0.477   5.479 -0.4586  0.8031  1.1166
 1943TIP3    H227245   1.432   0.520   5.473 -0.4452  0.6414 -0.1986
 1944TIP3   OH227246   5.088   1.724  14.252 -0.2732 -0.0837  0.6570
 1944TIP3    H127247   5.051   1.809  14.230 -0.3445 -0.7488 -2.2282
 1944TIP3    H227248   5.019   1.662  14.233  0.5091 -0.9535  0.5771
 1945TIP3   OH227249   5.710   4.957  15.238  0.7056  0.1298 -0.0054
 1945TIP3    H127250   5.621   4.970  15.269  0.8715 -0.1727  0.6093
 1945TIP3    H227251   5.746   4.888  15.294  1.5699  0.7642  0.2451
 1946TIP3   OH227252   4.303   5.560   4.971  0.0056  0.0122 -0.2896
 1946TIP3    H127253   4.271   5.633   5.023  1.6001 -0.9107  2.1614
 1946TIP3    H227254   4.229   5.500   4.966 -0.0951 -0.0513  1.3493
 1947TIP3   OH227255   4.555   4.174  10.643  0.1175 -0.0163  0.3079
 1947TIP3    H127256   4.476   4.122  10.633  0.6463 -0.4821 -2.0292
 1947TIP3    H227257   4.618   4.113  10.684 -0.7485  0.4611  2.4961
 1948TIP3   OH227258   0.511   6.544  15.783 -0.3442  0.7130  0.1166
 1948TIP3    H127259   0.442   6.568  15.722  0.3677  0.6847 -0.7305
 1948TIP3    H227260   0.496   6.451  15.802 -1.1797  0.9799  0.8210
 1949TIP3   OH227261   4.273   0.771  12.154  0.1675 -0.8468 -0.0386
 1949TIP3    H127262   4.277   0.815  12.239 -1.2467  0.6277 -0.6893
 1949TIP3    H227263   4.354   0.797  12.110  0.5863 -1.0675  0.5933
 1950TIP3   OH227264   6.443   5.511   2.508 -0.5064 -0.1912 -0.1902
 1950TIP3    H127265   6.416   5.564   2.433 -0.3745 -0.9074 -0.7527
 1950TIP3    H227266   6.519   5.462   2.477  0.1962  0.2754  0.7445
 1951TIP3   OH227267   3.817   5.723  16.455 -0.2168 -0.1163  0.2258
 1951TIP3    H127268   3.820   5.746  16.549  1.2423  0.1644  0.1367
 1951TIP3    H227269   3.743   5.664  16.447 -0.6619  0.2381  1.4800
 1952TIP3   OH227270   2.075   3.288  15.669 -0.5549  0.1078 -0.2065
 1952TIP3    H127271   2.048   3.285  15.578  1.5770 -2.9365 -0.9085
 1952TIP3    H227272   2.076   3.196  15.697  0.3930  0.8069  2.3793
 1953TIP3   OH227273   1.796   3.857  15.993 -0.3486 -0.2040  0.8671
 1953TIP3    H127274   1.756   3.941  16.017 -0.4223  0.3051 -0.8536
 1953TIP3    H227275   1.843   3.876  15.911 -1.9496 -2.2248 -0.6347
 1954TIP3   OH227276   4.756   1.228  11.148  0.7014  0.4993  0.3852
 1954TIP3    H127277   4.665   1.242  11.173  0.6541  1.9542 -0.4607
 1954TIP3    H227278   4.769   1.134  11.155 -0.9139  0.2478  0.3684
 1955TIP3   OH227279   0.055   0.765  15.236 -0.3446  0.4247  0.0163
 1955TIP3    H127280   0.064   0.832  15.305 -1.5615  0.4670  0.1668
 1955TIP3    H227281   0.144   0.749  15.206  0.0264  1.7829  0.3010
 1956TIP3   OH227282   6.063   4.957  12.643 -0.0777 -0.1196  0.6776
 1956TIP3    H127283   6.090   4.875  12.602  0.6768  0.0726  0.7758
 1956TIP3    H227284   6.115   4.961  12.723  1.0166  1.1668 -0.0545
 1957TIP3   OH227285   0.330   4.272  13.578  0.6201 -0.3677  0.2795
 1957TIP3    H127286   0.364   4.359  13.597  0.5797 -0.2084 -0.3426
 1957TIP3    H227287   0.235   4.283  13.576  0.6079 -0.4588  0.3606
 1958TIP3   OH227288   3.329   3.111   4.079  0.2633 -0.2900  0.4958
 1958TIP3    H127289   3.294   3.034   4.033 -1.0426  1.1459 -1.0642
 1958TIP3    H227290   3.256   3.143   4.131  0.1700  0.9563 -0.3634
 1959TIP3   OH227291   3.807   6.547   5.610  0.0075 -0.6951  0.4743
 1959TIP3    H127292   3.792   6.640   5.595  1.3901 -0.2271  1.6804
 1959TIP3    H227293   3.776   6.503   5.531 -1.6230  0.6832  0.3100
 1960TIP3   OH227294   4.371   0.012  14.022 -0.3327 -0.0826  0.1355
 1960TIP3    H127295   4.433  -0.046  14.067 -0.3435 -0.1219  0.0991
 1960TIP3    H227296   4.425   0.085  13.992 -0.2495 -0.2769 -0.1845
 1961TIP3   OH227297   0.041   2.202   1.554 -0.0371  0.2212  0.4009
 1961TIP3    H127298  -0.027   2.140   1.581  1.2733 -1.0909  0.7987
 1961TIP3    H227299   0.106   2.198   1.624 -0.2498  2.6310  0.7929
 1962TIP3   OH227300   4.244   5.074   4.617  0.5042 -0.4785 -0.9403
 1962TIP3    H127301   4.279   5.094   4.704 -0.0335  0.0866 -0.8543
 1962TIP3    H227302   4.233   4.979   4.617 -1.0170 -0.3382  0.1979
 1963TIP3   OH227303   5.338   3.385  15.757  1.0162  0.1927 -0.1687
 1963TIP3    H127304   5.309   3.294  15.770 -0.0287  0.8134  2.3688
 1963TIP3    H227305   5.406   3.398  15.823  2.6424  0.7190 -1.8562
 1964TIP3   OH227306   2.061   5.396  14.029 -0.4198  0.8096  0.1271
 1964TIP3    H127307   2.005   5.434  14.096 -3.3684 -1.0919 -1.0443
 1964TIP3    H227308   2.054   5.301  14.043 -0.1251  0.4137 -2.0771
 1965TIP3   OH227309   4.743   4.801   3.509 -0.7288 -0.7659  0.4476
 1965TIP3    H127310   4.831   4.838   3.520 -0.6296 -1.3310  1.6303
 1965TIP3    H227311   4.756   4.725   3.452 -0.3806 -1.0791  0.9346
 1966TIP3   OH227312   0.595   6.538   0.529 -0.5728 -0.5261 -0.2437
 1966TIP3    H127313   0.677   6.494   0.551  0.4573 -0.1338 -2.9592
 1966TIP3    H227314   0.580   6.599   0.602  2.0442  0.0392 -0.0932
 1967TIP3   OH227315   5.140   5.365  11.383  0.4826  0.2556  0.1137
 1967TIP3    H127316   5.159   5.456  11.362  0.7391 -0.2215 -1.9332
 1967TIP3    H227317   5.176   5.315  11.309  0.5812 -1.5357  1.2967
 1968TIP3   OH227318   2.536   0.733   3.643  0.2735  0.1846 -0.3260
 1968TIP3    H127319   2.619   0.772   3.669  0.5253 -0.1616 -0.6028
 1968TIP3    H227320   2.542   0.642   3.672 -1.2624  0.8632  2.4978
 1969TIP3   OH227321   4.297   3.653   3.831  0.0168  0.3014  0.2139
 1969TIP3    H127322   4.228   3.717   3.812  1.1529  1.6704  0.5947
 1969TIP3    H227323   4.250   3.570   3.841 -1.5034  1.0808 -0.1697
 1970TIP3   OH227324   2.848   1.751  13.747 -0.0718 -0.5921 -0.3542
 1970TIP3    H127325   2.774   1.791  13.792 -0.2191 -0.3361 -0.8176
 1970TIP3    H227326   2.911   1.733  13.817 -0.9286 -1.6693  0.1810
 1971TIP3   OH227327   6.769   6.235   3.116 -0.9345 -0.3112  0.3421
 1971TIP3    H127328   6.784   6.329   3.116 -0.6405 -0.3500 -0.5694
 1971TIP3    H227329   6.805   6.205   3.200 -0.4942  0.2987  0.3793
 1972TIP3   OH227330   4.658   5.933   2.463  0.4451  0.0175 -0.1639
 1972TIP3    H127331   4.595   5.995   2.502 -0.1669 -0.0588 -1.0120
 1972TIP3    H227332   4.686   5.975   2.382  0.5404 -0.5207 -0.4133
 1973TIP3   OH227333   5.645   5.351  11.332  0.4507 -0.3525 -0.4662
 1973TIP3    H127334   5.614   5.316  11.248 -1.6211 -0.3667  0.2558
 1973TIP3    H227335   5.700   5.281  11.368  0.1520 -0.9507 -1.1457
 1974TIP3   OH227336   4.039   2.451   4.908 -0.1653  0.1984  0.2183
 1974TIP3    H127337   3.974   2.516   4.935 -1.1103 -0.0749 -1.2816
 1974TIP3    H227338   3.987   2.375   4.880  0.8519 -0.5543  0.3190
 1975TIP3   OH227339   5.014   2.775   1.187  0.0070 -0.1761 -0.6300
 1975TIP3    H127340   4.997   2.681   1.198 -1.1128 -0.1942 -2.1911
 1975TIP3    H227341   4.992   2.813   1.272  1.2742 -1.3900  0.3029
 1976TIP3   OH227342   3.668   2.672  12.269  0.4256 -0.1561 -0.4032
 1976TIP3    H127343   3.732   2.730  12.311  1.1166  0.8977 -2.7537
 1976TIP3    H227344   3.615   2.639  12.341  0.1512  3.2309  1.1446
 1977TIP3   OH227345   1.089   6.717   5.329 -0.4308  0.3951  0.6767
 1977TIP3    H127346   1.042   6.794   5.362 -0.2838  0.1123  1.5582
 1977TIP3    H227347   1.122   6.744   5.243 -2.5428  0.4863 -0.1789
 1978TIP3   OH227348   5.711   2.762  12.866  0.6204 -0.3452 -0.3335
 1978TIP3    H127349   5.664   2.774  12.784  0.3691  0.4533 -0.0786
 1978TIP3    H227350   5.644   2.736  12.929  0.4205  1.2127  0.1321
 1979TIP3   OH227351   1.929   3.285  17.247 -0.0587  0.8250  0.8872
 1979TIP3    H127352   1.957   3.199  17.215 -0.1043  0.2850  2.2382
 1979TIP3    H227353   1.973   3.348  17.189 -0.4307 -0.1084 -0.4333
 1980TIP3   OH227354   5.037   2.132  16.543  0.0121 -0.3114  0.9998
 1980TIP3    H127355   5.063   2.215  16.502 -0.7819 -0.7379 -0.4427
 1980TIP3    H227356   4.942   2.133  16.542 -0.1311 -2.4959 -1.9222
 1981TIP3   OH227357   0.738   1.875   2.003  0.0652  0.0188  0.0515
 1981TIP3    H127358   0.674   1.923   2.056 -0.7537 -0.4079 -0.5296
 1981TIP3    H227359   0.726   1.783   2.027 -0.1678 -0.1581 -0.7049
 1982TIP3   OH227360   0.402   0.269  17.201  0.3385 -0.6502  0.0141
 1982TIP3    H127361   0.404   0.289  17.108 -2.1709  3.3841  0.6003
 1982TIP3    H227362   0.339   0.197  17.209 -0.3328 -0.2430 -1.3157
 1983TIP3   OH227363   3.951   0.121   5.755 -0.3982  0.0049  0.0155
 1983TIP3    H127364   3.897   0.146   5.829 -0.4303 -0.5568  0.1894
 1983TIP3    H227365   3.945   0.195   5.695 -1.5349 -0.1307 -0.0673
 1984TIP3   OH227366   0.766   3.301   1.860  0.1759 -0.6854  0.2571
 1984TIP3    H127367   0.702   3.357   1.905  0.8355 -0.1523  0.5604
 1984TIP3    H227368   0.786   3.349   1.779  1.4812  0.0517  0.9724
 1985TIP3   OH227369   1.187   1.303  11.681 -0.5710  0.1008  0.6511
 1985TIP3    H127370   1.158   1.212  11.677 -1.5118  0.1175  3.9544
 1985TIP3    H227371   1.141   1.347  11.609 -3.0125 -1.3517  1.2203
 1986TIP3   OH227372   6.471   2.472  10.754  0.1789 -0.5284 -0.1149
 1986TIP3    H127373   6.448   2.521  10.833  0.4341 -0.6760  0.0531
 1986TIP3    H227374   6.412   2.397  10.755 -2.1496  1.1694 -1.8327
 1987TIP3   OH227375   4.605   6.251   1.294  0.0931 -0.1381  0.9097
 1987TIP3    H127376   4.698   6.273   1.286 -0.1039  1.1573  1.7960
 1987TIP3    H227377   4.584   6.204   1.214  1.3453  0.1983  0.3678
 1988TIP3   OH227378   3.258   0.752   2.587  0.3322  0.6340  0.2122
 1988TIP3    H127379   3.326   0.687   2.570  0.5945  0.8839  0.2978
 1988TIP3    H227380   3.215   0.721   2.668 -0.2947 -0.0428 -0.3660
 1989TIP3   OH227381   0.710   6.724  16.254 -0.0219  0.1865 -0.4833
 1989TIP3    H127382   0.672   6.807  16.228 -2.5490 -1.2849 -1.9230
 1989TIP3    H227383   0.800   6.726  16.221 -0.2119  2.0860 -0.9611
 1990TIP3   OH227384   2.277   1.633   0.301 -0.7484  0.0831  0.1105
 1990TIP3    H127385   2.193   1.652   0.260 -0.3401  0.0139 -0.7682
 1990TIP3    H227386   2.308   1.554   0.258 -0.4992 -0.2246  0.8393
 1991TIP3   OH227387   4.904   4.676   3.231 -0.2497  0.4116 -0.8016
 1991TIP3    H127388   4.862   4.762   3.233 -0.5806  0.2773 -1.7561
 1991TIP3    H227389   4.852   4.625   3.170 -1.2387 -1.0950  1.1726
 1992TIP3   OH227390   2.823   4.252  16.851 -0.0081 -0.1618 -0.4797
 1992TIP3    H127391   2.732   4.282  16.859  1.1601  3.4891  2.1281
 1992TIP3    H227392   2.843   4.261  16.758 -1.6359  1.4136 -0.7342
 1993TIP3   OH227393   4.772   3.661  17.072  0.2374  0.0936  0.4006
 1993TIP3    H127394   4.777   3.590  17.008  0.6186  1.5989 -1.3513
 1993TIP3    H227395   4.698   3.714  17.042  1.3266  1.6289  0.3084
 1994TIP3   OH227396   1.128   6.277  14.941  0.1164 -0.1729  0.0363
 1994TIP3    H127397   1.089   6.288  15.028 -1.1497 -1.2077 -0.3802
 1994TIP3    H227398   1.112   6.361  14.897  3.2264  1.4752  1.6504
 1995TIP3   OH227399   2.386   1.469   2.054 -0.0491  0.2049 -0.2931
 1995TIP3    H127400   2.381   1.411   1.978 -0.8509 -0.6464  0.3700
 1995TIP3    H227401   2.416   1.412   2.125  0.2805  0.8860  0.1254
 1996TIP3   OH227402   0.043   0.498   5.205 -0.1382  0.0233  0.1729
 1996TIP3    H127403   0.067   0.582   5.167  0.4817  0.3168  1.1802
 1996TIP3    H227404   0.085   0.433   5.149  0.0292  0.4199 -0.1608
 1997TIP3   OH227405   3.029   5.317  16.363 -0.0773  0.2452 -0.8373
 1997TIP3    H127406   3.006   5.376  16.291 -0.9900 -1.2569 -1.8227
 1997TIP3    H227407   3.018   5.229  16.327 -1.5322 -0.5923  1.4120
 1998TIP3   OH227408   5.825   3.741  13.798  0.1082 -0.5071  0.2480
 1998TIP3    H127409   5.755   3.704  13.745  0.1300  0.7184 -0.6869
 1998TIP3    H227410   5.846   3.824  13.755  0.4366  0.3164  1.9160
 1999TIP3   OH227411   5.772   1.256  13.225  0.2701 -0.9863 -0.2419
 1999TIP3    H127412   5.748   1.242  13.133  1.5871  2.2983 -1.2311
 1999TIP3    H227413   5.853   1.306  13.221 -0.9985  1.5941  2.6332
 2000TIP3   OH227414   5.649   4.416   2.981 -0.0070 -0.4137  0.3115
 2000TIP3    H127415   5.597   4.495   2.997 -0.9201 -0.9149 -0.0992
 2000TIP3    H227416   5.634   4.396   2.889  0.4677 -0.9001  0.3365
 2001TIP3   OH227417   0.330   4.759  11.153 -0.1694 -0.2807 -0.2176
 2001TIP3    H127418   0.394   4.759  11.083 -0.5550  1.1755 -0.5920
 2001TIP3    H227419   0.371   4.809  11.224 -1.1305  1.2990 -0.7264
 2002TIP3   OH227420   1.640   3.825   5.156  0.1962  0.2076  0.1988
 2002TIP3    H127421   1.549   3.803   5.139  0.0822 -1.1235  2.2521
 2002TIP3    H227422   1.656   3.903   5.102 -1.9586  0.1399 -0.6358
 2003TIP3   OH227423   2.033   2.291  14.205  0.1107 -0.1545  0.1826
 2003TIP3    H127424   1.990   2.312  14.121  0.9729  0.1603 -0.1907
 2003TIP3    H227425   2.047   2.197  14.201 -1.1559 -0.3780  0.6081
 2004TIP3   OH227426   5.484   2.323  11.239 -0.2775  0.7100  0.2621
 2004TIP3    H127427   5.422   2.250  11.245  1.5161 -1.1754 -2.0415
 2004TIP3    H227428   5.482   2.364  11.325 -1.6256 -1.8678  1.5585
 2005TIP3   OH227429   5.556   0.384   0.973 -0.8727 -0.0593 -0.3531
 2005TIP3    H127430   5.556   0.295   0.938  1.0312  0.2690 -1.3160
 2005TIP3    H227431   5.478   0.424   0.936 -0.3502 -0.5580 -2.0954
 2006TIP3   OH227432   2.338   3.166   4.053 -0.3902  0.4803 -0.0066
 2006TIP3    H127433   2.255   3.185   4.009  0.0226  0.6983 -0.6989
 2006TIP3    H227434   2.327   3.077   4.087 -1.0157  0.6191  0.1696
 2007TIP3   OH227435   6.565   0.039   1.458  0.2883  0.5613  0.0980
 2007TIP3    H127436   6.623  -0.002   1.522 -0.4828  0.5432  0.7960
 2007TIP3    H227437   6.515   0.104   1.508 -0.6947  0.1849 -0.3630
 2008TIP3   OH227438   0.283   2.484   2.230 -0.6935 -0.0945 -0.5399
 2008TIP3    H127439   0.294   2.519   2.142  0.9423 -0.5558 -0.5557
 2008TIP3    H227440   0.273   2.560   2.286 -1.2792  0.2188 -1.0627
 2009TIP3   OH227441   0.194   3.784  14.169 -0.4301  0.4130 -0.1467
 2009TIP3    H127442   0.213   3.795  14.262  0.1616 -0.7172 -0.1198
 2009TIP3    H227443   0.268   3.827  14.124 -0.6429  0.8329 -0.0975
 2010TIP3   OH227444   1.496   6.125   3.198  0.4045  0.2957 -0.3801
 2010TIP3    H127445   1.555   6.052   3.179  0.9592  0.3664  0.9063
 2010TIP3    H227446   1.439   6.091   3.267  0.6629  1.0554  0.2276
 2011TIP3   OH227447   5.888   0.495   1.185  0.1353 -0.1213  0.1048
 2011TIP3    H127448   5.970   0.507   1.233  0.4582 -1.8491  0.0281
 2011TIP3    H227449   5.915   0.489   1.093 -0.3396  1.6853 -0.1931
 2012TIP3   OH227450   6.418   0.198   5.598  0.0174 -0.4945  0.2048
 2012TIP3    H127451   6.487   0.183   5.663  0.5773 -0.8585 -0.4640
 2012TIP3    H227452   6.372   0.276   5.630  2.1608  1.1651 -0.4731
 2013TIP3   OH227453   5.881   2.111  14.745  0.5314  0.6820 -0.3724
 2013TIP3    H127454   5.919   2.024  14.755 -0.6919  0.2512  0.8773
 2013TIP3    H227455   5.954   2.166  14.717  1.0235 -1.0190 -2.7974
 2014TIP3   OH227456   5.902   1.599  17.262 -0.0257  0.5212  0.2681
 2014TIP3    H127457   5.970   1.533  17.277 -2.0727 -1.9434 -0.5346
 2014TIP3    H227458   5.871   1.623  17.349  0.8886  0.5876  0.5802
 2015TIP3   OH227459   0.065   0.680   3.828  0.1432 -0.2350  0.4148
 2015TIP3    H127460   0.108   0.672   3.742 -1.1535 -1.1447 -0.1763
 2015TIP3    H227461   0.068   0.592   3.864 -0.5407 -0.1501  0.6895
 2016TIP3   OH227462   2.523   1.447  11.948  0.3230 -0.6164 -0.1719
 2016TIP3    H127463   2.586   1.511  11.980  1.1496 -1.7100  0.4560
 2016TIP3    H227464   2.527   1.375  12.011  0.1076 -1.7058 -1.3462
 2017TIP3   OH227465   4.374   6.426  13.770  0.5157  0.0772  0.4023
 2017TIP3    H127466   4.411   6.513  13.757  0.6284 -0.0657 -0.2643
 2017TIP3    H227467   4.280   6.438  13.761  0.6697 -0.3367 -2.6969
 2018TIP3   OH227468   0.613   3.818   4.426  0.2892  0.0692  0.2013
 2018TIP3    H127469   0.547   3.798   4.493 -0.2952  0.5908 -0.2020
 2018TIP3    H227470   0.564   3.813   4.343  0.7190  0.6132 -0.0912
 2019TIP3   OH227471   0.119   0.867  12.455  0.2596 -0.1171 -0.1272
 2019TIP3    H127472   0.139   0.898  12.543  0.9828 -1.2592  0.1350
 2019TIP3    H227473   0.136   0.943  12.399 -1.3510  0.9934  0.7978
 2020TIP3   OH227474   5.221   3.017  14.864 -0.1546  0.0649  0.4364
 2020TIP3    H127475   5.285   3.018  14.935  0.6874  0.7662 -0.3016
 2020TIP3    H227476   5.245   2.941  14.810 -0.4088 -0.1030  0.5551
 2021TIP3   OH227477   3.834   2.138   1.645  0.0943 -0.3935 -0.2014
 2021TIP3    H127478   3.784   2.216   1.619 -2.0089 -1.1148  1.4651
 2021TIP3    H227479   3.857   2.153   1.736  0.2636 -1.4318 -0.0605
 2022TIP3   OH227480   1.755   4.437  14.583 -0.2025  0.0685  0.2664
 2022TIP3    H127481   1.687   4.404  14.642 -2.1469 -0.2126 -1.9389
 2022TIP3    H227482   1.784   4.359  14.535 -0.5062  0.6300 -0.8596
 2023TIP3   OH227483   4.394   0.807  11.410  0.0052 -0.2321  0.0152
 2023TIP3    H127484   4.397   0.718  11.376  1.0570  0.2379 -1.2060
 2023TIP3    H227485   4.416   0.862  11.335  1.0773  0.9475  1.1412
 2024TIP3   OH227486   6.614   1.101  12.359 -0.2907 -0.2144 -0.3815
 2024TIP3    H127487   6.549   1.120  12.291  0.6022  1.7859 -0.7656
 2024TIP3    H227488   6.638   1.187  12.394 -0.8910 -1.1738  2.7129
 2025TIP3   OH227489   1.306   2.929  11.097 -0.6551 -0.3750 -0.2748
 2025TIP3    H127490   1.400   2.932  11.078 -0.8045  0.6586 -0.9276
 2025TIP3    H227491   1.273   2.856  11.045 -0.5953  0.7283 -1.9521
 2026TIP3   OH227492   3.228   2.182   5.014 -0.1571 -0.0541 -0.2299
 2026TIP3    H127493   3.169   2.124   4.967 -1.0238 -0.0434  0.8022
 2026TIP3    H227494   3.308   2.185   4.961 -0.0474 -2.2613 -0.2565
 2027TIP3   OH227495   3.635   4.429   3.275  0.3047  0.3685  0.4546
 2027TIP3    H127496   3.565   4.482   3.237  0.1296  0.0734  0.3634
 2027TIP3    H227497   3.691   4.405   3.201  0.8469  1.1121  0.6131
 2028TIP3   OH227498   6.668   1.246   3.373  0.0986 -0.0470 -0.1008
 2028TIP3    H127499   6.762   1.260   3.363 -0.1984  0.9180 -1.8235
 2028TIP3    H227500   6.646   1.179   3.307 -0.0838 -2.0515  1.8538
 2029TIP3   OH227501   0.720   4.912  16.015  0.4828 -0.5969  0.3785
 2029TIP3    H127502   0.684   4.944  15.933  0.4454  0.6457  0.8511
 2029TIP3    H227503   0.701   4.819  16.016 -0.9395 -0.3289 -0.2986
 2030TIP3   OH227504   2.014   6.638   6.211  0.3821 -0.0227  0.2241
 2030TIP3    H127505   2.015   6.585   6.290 -0.0943  1.1437  1.0393
 2030TIP3    H227506   1.957   6.712   6.232  0.7510  0.6407 -0.9958
 2031TIP3   OH227507   3.234   1.602   3.621  0.4287 -0.3245 -0.3785
 2031TIP3    H127508   3.187   1.518   3.615 -1.4261  0.3872  2.1913
 2031TIP3    H227509   3.192   1.647   3.694  1.2963  2.9200 -1.7108
 2032TIP3   OH227510   2.933   4.608   2.587  0.6855  0.0518  0.2650
 2032TIP3    H127511   2.964   4.675   2.525 -0.0027 -1.3277 -1.6533
 2032TIP3    H227512   2.946   4.648   2.673  1.5738  2.1043 -0.7447
 2033TIP3   OH227513   2.164   4.068   3.414 -0.0912 -0.5600  0.0754
 2033TIP3    H127514   2.113   4.138   3.453  1.1407  0.0482  0.6727
 2033TIP3    H227515   2.125   3.987   3.447 -0.0742 -0.0874  1.2899
 2034TIP3   OH227516   2.915   1.010  16.075  0.2368 -0.2790 -0.1720
 2034TIP3    H127517   2.904   1.080  16.139  2.1524 -0.1266  0.0630
 2034TIP3    H227518   2.833   0.962  16.077 -0.0006  0.1264  1.9329
 2035TIP3   OH227519   3.485   3.018   1.195 -0.3977 -0.1859  0.1788
 2035TIP3    H127520   3.495   2.936   1.145 -0.7299 -1.1669  1.6582
 2035TIP3    H227521   3.423   3.069   1.143  0.5432 -0.4582 -1.2610
 2036TIP3   OH227522   2.497   5.719   2.470 -0.0998  0.1888  0.7754
 2036TIP3    H127523   2.462   5.734   2.558 -1.0750  1.9831  0.1240
 2036TIP3    H227524   2.433   5.758   2.412  1.9847  1.8422 -0.5865
 2037TIP3   OH227525   6.222   0.892  11.824  0.3241 -0.2240 -0.2593
 2037TIP3    H127526   6.239   0.835  11.749 -1.1458  1.0648 -1.6653
 2037TIP3    H227527   6.129   0.915  11.815  0.5504  1.3329  0.9972
 2038TIP3   OH227528   1.425   6.003  12.379  0.0803  0.0768  0.0156
 2038TIP3    H127529   1.405   5.951  12.457  1.6284 -0.9446 -0.2168
 2038TIP3    H227530   1.405   6.093  12.405 -1.1204 -0.4386  0.9857
 2039TIP3   OH227531   1.406   3.471  17.191 -0.2267  0.8300  0.2384
 2039TIP3    H127532   1.406   3.471  17.287  0.4761 -0.1025  0.2538
 2039TIP3    H227533   1.471   3.405  17.167 -3.0940 -1.8897 -0.8564
 2040TIP3   OH227534   0.309   0.046  13.868  0.4352  0.1957 -0.2201
 2040TIP3    H127535   0.251   0.044  13.792  0.0040 -0.1753  0.1083
 2040TIP3    H227536   0.395   0.023  13.834  0.1659 -0.3658 -0.5373
 2041TIP3   OH227537   0.050   1.295   1.615 -0.2393 -0.5213  0.3041
 2041TIP3    H127538   0.059   1.276   1.708  0.2986 -0.6691  0.2283
 2041TIP3    H227539   0.133   1.266   1.576  0.9617  2.5205  0.2612
 2042TIP3   OH227540   2.842   3.130  13.827  0.0026  0.4117 -0.4316
 2042TIP3    H127541   2.860   3.142  13.734 -2.9919 -2.6157 -1.6166
 2042TIP3    H227542   2.928   3.130  13.869  1.5169  0.8980 -3.2923
 2043TIP3   OH227543   2.995   5.060  13.257  0.0476  0.2102 -0.1638
 2043TIP3    H127544   3.034   4.981  13.221  1.2665  0.6811  0.0640
 2043TIP3    H227545   2.952   5.102  13.182  1.3424  0.4699 -0.7830
 2044TIP3   OH227546   3.036   3.752  15.008  0.2527 -0.3416  0.6335
 2044TIP3    H127547   3.091   3.679  14.980 -0.4952 -0.6359 -0.0969
 2044TIP3    H227548   3.069   3.773  15.096 -0.2576 -2.3077  1.3582
 2045TIP3   OH227549   3.211   4.628   4.532 -0.6443  0.2559  0.4394
 2045TIP3    H127550   3.221   4.711   4.578  0.0627 -0.3422  1.3940
 2045TIP3    H227551   3.116   4.612   4.534 -0.5373 -0.6160  3.3284
 2046TIP3   OH227552   2.745   6.749   2.482  0.4834  0.3077  0.1340
 2046TIP3    H127553   2.671   6.723   2.536 -0.1532  3.2630  0.9016
 2046TIP3    H227554   2.742   6.845   2.483  1.7568  0.5271 -3.3848
 2047TIP3   OH227555   1.834   5.589   6.335 -0.4337 -0.1361  0.2911
 2047TIP3    H127556   1.746   5.617   6.311 -0.4005 -0.8510 -0.7206
 2047TIP3    H227557   1.837   5.496   6.313 -0.5157 -0.9942  3.4392
 2048TIP3   OH227558   4.148   0.368   0.182 -0.3179 -0.0485 -0.1656
 2048TIP3    H127559   4.107   0.332   0.261 -0.8824  1.3284  0.1863
 2048TIP3    H227560   4.161   0.291   0.126 -1.2693 -0.8524  0.6576
 2049TIP3   OH227561   0.436   6.119   4.564 -0.5015 -0.3210 -0.3461
 2049TIP3    H127562   0.529   6.108   4.580 -0.8662 -1.7116  1.1041
 2049TIP3    H227563   0.430   6.196   4.508  1.5968 -0.9688 -1.5741
 2050TIP3   OH227564   5.292   5.162  14.299 -0.2505 -0.7346 -0.1434
 2050TIP3    H127565   5.303   5.067  14.299  0.9086 -0.6498 -1.9442
 2050TIP3    H227566   5.366   5.194  14.351 -0.6467 -0.8018  0.4721
 2051TIP3   OH227567   0.957   6.376   2.974  0.1874 -0.5725  0.2708
 2051TIP3    H127568   0.861   6.381   2.971  0.2164 -0.4044 -0.4203
 2051TIP3    H227569   0.985   6.391   2.884  0.8372 -1.3604  0.3321
 2052TIP3   OH227570   3.552   0.055   5.856  0.0787  0.5499 -0.6331
 2052TIP3    H127571   3.605   0.043   5.934  1.5654 -0.7480 -1.7871
 2052TIP3    H227572   3.493  -0.021   5.854  1.0773 -0.2317 -1.5207
 2053TIP3   OH227573   1.605   2.089   4.300 -0.2901  0.2809  0.2982
 2053TIP3    H127574   1.672   2.102   4.366  0.2755 -0.5369 -0.1016
 2053TIP3    H227575   1.600   1.995   4.288 -0.1951  0.4199 -1.0118
 2054TIP3   OH227576   2.570   1.434  17.132 -0.2270  0.0233  0.5499
 2054TIP3    H127577   2.532   1.513  17.171  0.4207  0.8752 -0.4704
 2054TIP3    H227578   2.655   1.462  17.099 -0.1457 -1.0034 -0.1835
 2055TIP3   OH227579   2.772   3.955  16.998 -0.2339 -0.0744 -0.4278
 2055TIP3    H127580   2.714   4.005  16.941 -0.1918 -0.3418 -0.7151
 2055TIP3    H227581   2.714   3.905  17.055 -0.2758  1.3160  0.7922
 2056TIP3   OH227582   5.267   0.500  13.840  0.4082 -0.2088 -0.0426
 2056TIP3    H127583   5.232   0.515  13.752 -0.2714 -3.0568 -0.3617
 2056TIP3    H227584   5.195   0.459  13.887  1.3437 -0.3677  1.2850
 2057TIP3   OH227585   5.312   4.158  16.397  1.0085  0.7288 -0.1786
 2057TIP3    H127586   5.332   4.083  16.342  1.6924  0.1546  0.8212
 2057TIP3    H227587   5.389   4.168  16.453  1.0296  2.3196 -0.4444
 2058TIP3   OH227588   3.659   6.109  15.205 -0.2139  0.0263  0.3696
 2058TIP3    H127589   3.688   6.140  15.291  0.9856  1.4954 -0.5134
 2058TIP3    H227590   3.696   6.173  15.144 -2.0036 -0.3466 -1.1512
 2059TIP3   OH227591   6.532   6.108  16.026  0.1616  0.0288  0.0323
 2059TIP3    H127592   6.572   6.134  16.109  0.8370  1.8401 -0.8058
 2059TIP3    H227593   6.477   6.182  16.001 -0.0559 -0.4962 -1.1255
 2060TIP3   OH227594   6.323   6.559   3.592  0.0525  0.2880  0.5802
 2060TIP3    H127595   6.324   6.598   3.680  0.3914 -1.1096  1.2213
 2060TIP3    H227596   6.406   6.512   3.586 -1.5207 -2.7358  0.9850
 2061TIP3   OH227597   3.992   1.336   2.284  0.4146 -0.7475  0.6842
 2061TIP3    H127598   3.917   1.279   2.299  0.4690 -0.9405  0.2274
 2061TIP3    H227599   4.067   1.278   2.286  0.4772 -0.6810  0.2921
 2062TIP3   OH227600   0.256   3.956  15.636  0.1442  0.0856 -0.1773
 2062TIP3    H127601   0.350   3.966  15.655  0.4719 -0.2743 -1.4818
 2062TIP3    H227602   0.213   3.962  15.722  1.1812  2.1318  0.2707
 2063TIP3   OH227603   2.717   4.071  13.854 -0.0103  0.2069 -0.1608
 2063TIP3    H127604   2.647   4.130  13.827  0.1991 -0.4208 -2.2023
 2063TIP3    H227605   2.796   4.109  13.818  0.4011 -0.3011  0.1872
 2064TIP3   OH227606   4.873   0.451   2.034  0.4296  0.3380 -0.6472
 2064TIP3    H127607   4.809   0.503   2.082  1.0753  1.2719 -0.7865
 2064TIP3    H227608   4.843   0.455   1.943  1.0668  1.3638 -0.8204
 2065TIP3   OH227609   0.996   1.779  15.877  0.5718  0.2623  0.0697
 2065TIP3    H127610   0.932   1.791  15.807  0.8561 -2.3512 -0.7386
 2065TIP3    H227611   0.994   1.685  15.895  0.6165  0.7831  3.5155
 2066TIP3   OH227612   0.979   2.137   4.753 -0.2030 -0.5255  0.1280
 2066TIP3    H127613   0.973   2.227   4.719 -2.2870 -0.1657  1.3141
 2066TIP3    H227614   0.916   2.087   4.701  0.5018 -1.1960 -0.1066
 2067TIP3   OH227615   6.220   2.373   2.165 -0.3278 -0.4380  0.1029
 2067TIP3    H127616   6.314   2.387   2.152 -0.4522  0.6187  0.3041
 2067TIP3    H227617   6.216   2.322   2.247  0.0505 -0.1020  0.3384
 2068TIP3   OH227618   2.490   0.299  16.585  0.3624 -0.0295  0.2895
 2068TIP3    H127619   2.433   0.253  16.647 -1.2829 -1.4101 -2.0799
 2068TIP3    H227620   2.578   0.270  16.607 -0.1191 -0.1618  2.1971
 2069TIP3   OH227621   1.113   3.074  11.822 -0.1304  0.0191  0.0864
 2069TIP3    H127622   1.184   3.088  11.760 -1.9664 -2.1075 -2.7745
 2069TIP3    H227623   1.153   3.027  11.894  2.0432  2.3490  0.5283
 2070TIP3   OH227624   1.086   5.205   5.682  0.1157  0.8204 -0.0198
 2070TIP3    H127625   0.994   5.231   5.673  0.3892  1.5699 -0.7865
 2070TIP3    H227626   1.090   5.163   5.768 -0.5179  2.6926  0.9858
 2071TIP3   OH227627   4.491   2.878  10.397 -0.6692  0.5835  0.7394
 2071TIP3    H127628   4.422   2.940  10.374  0.0201 -0.0381 -3.8759
 2071TIP3    H227629   4.572   2.929  10.390 -0.3159 -0.0014  0.5798
 2072TIP3   OH227630   6.417   1.751   0.089 -0.2139  0.5274 -0.3178
 2072TIP3    H127631   6.425   1.785   0.178  1.9921  1.5235 -0.8320
 2072TIP3    H227632   6.365   1.671   0.099  0.0281  0.5775  1.8636
 2073TIP3   OH227633   1.333   5.059   3.147 -0.2403  0.2703  0.2074
 2073TIP3    H127634   1.316   5.145   3.109 -0.0659  0.2480  0.0746
 2073TIP3    H227635   1.333   5.000   3.071  2.8114  0.5965 -0.1525
 2074TIP3   OH227636   0.965   4.660  15.992  0.5670 -0.0330 -0.3804
 2074TIP3    H127637   0.957   4.717  15.915 -2.3020 -0.2836 -0.3670
 2074TIP3    H227638   1.012   4.713  16.056 -0.4738  1.6782 -0.9703
 2075TIP3   OH227639   3.166   3.827  13.563  0.0156 -0.0809  0.0956
 2075TIP3    H127640   3.105   3.898  13.543 -0.1790  0.2586  1.7207
 2075TIP3    H227641   3.137   3.754  13.507 -0.6950  0.6591 -0.5270
 2076TIP3   OH227642   3.455   4.943  15.337 -0.2351 -0.3627  0.2820
 2076TIP3    H127643   3.519   4.950  15.407 -0.1558  0.6468  0.1157
 2076TIP3    H227644   3.384   5.001  15.363  0.8621  2.0038 -1.6044
 2077TIP3   OH227645   2.428   5.654   0.715  0.0521 -0.0763  0.7222
 2077TIP3    H127646   2.456   5.699   0.636  0.4535 -0.6865  0.5074
 2077TIP3    H227647   2.340   5.688   0.733  0.6116  1.3107  0.9751
 2078TIP3   OH227648   1.590   6.637   4.036 -0.4770  0.2516 -0.1004
 2078TIP3    H127649   1.636   6.556   4.055  1.0642  1.0736 -0.1408
 2078TIP3    H227650   1.523   6.613   3.972 -1.0554 -1.2349  1.0186
 2079TIP3   OH227651   6.616   1.250  15.654 -0.0318 -0.7637  0.3265
 2079TIP3    H127652   6.620   1.318  15.721 -2.2116 -0.7637  0.5290
 2079TIP3    H227653   6.522   1.238  15.637  0.4060 -1.4128 -2.0698
 2080TIP3   OH227654   3.590   1.773   5.900  0.4221  0.4588  0.5514
 2080TIP3    H127655   3.579   1.841   5.833 -2.3450 -0.4007 -0.0149
 2080TIP3    H227656   3.571   1.817   5.982  0.4693  0.7660  0.3993
 2081TIP3   OH227657   2.804   4.030  15.726  0.7085  0.7244 -0.2393
 2081TIP3    H127658   2.821   4.118  15.758 -3.1727  1.5878 -0.1105
 2081TIP3    H227659   2.849   3.972  15.788  4.2502  2.4580 -0.9369
 2082TIP3   OH227660   5.563   6.547  12.948 -0.6186 -0.1727  0.6057
 2082TIP3    H127661   5.479   6.585  12.923 -0.3003  0.0511 -0.1881
 2082TIP3    H227662   5.550   6.453  12.939 -0.8316 -0.1465  0.6324
 2083TIP3   OH227663   6.618   5.348   0.012 -0.0699 -0.3361 -0.4999
 2083TIP3    H127664   6.527   5.330   0.039  0.0263  0.4365  0.4009
 2083TIP3    H227665   6.623   5.443   0.006  0.7287 -0.3591 -0.3465
 2084TIP3   OH227666   1.867   5.651  14.597 -0.0722 -0.2316  0.3521
 2084TIP3    H127667   1.774   5.652  14.574  0.3856 -0.5255 -1.7088
 2084TIP3    H227668   1.891   5.744  14.601 -0.0625 -0.1623 -0.9532
 2085TIP3   OH227669   6.641   1.162  11.442 -0.3804 -0.0563 -0.5404
 2085TIP3    H127670   6.647   1.185  11.349 -0.2275  0.2937 -0.4459
 2085TIP3    H227671   6.696   1.227  11.486  0.5167 -0.9516 -0.3188
 2086TIP3   OH227672   2.319   2.708   2.528  0.3386  0.0329  0.3068
 2086TIP3    H127673   2.313   2.746   2.615  1.6012 -1.4889  1.1101
 2086TIP3    H227674   2.383   2.762   2.482  1.2203 -0.3752  1.0286
 2087TIP3   OH227675   0.441   4.010   2.118  0.6296  0.0885  0.4781
 2087TIP3    H127676   0.414   3.923   2.091  0.0037  0.3277  0.3330
 2087TIP3    H227677   0.440   4.007   2.214 -1.1167  0.4526  0.4995
 2088TIP3   OH227678   4.588   1.217   0.227  0.0003 -0.4640  0.5512
 2088TIP3    H127679   4.567   1.153   0.159 -0.9101  0.9105 -0.5263
 2088TIP3    H227680   4.537   1.189   0.303 -0.2651 -1.0975  0.1468
 2089TIP3   OH227681   3.209   5.721   4.566  0.1433 -0.8348 -0.5430
 2089TIP3    H127682   3.263   5.789   4.527 -0.8713 -1.1719 -2.6877
 2089TIP3    H227683   3.197   5.748   4.657 -0.4978  2.0360 -1.3906
 2090TIP3   OH227684   0.645   6.694   2.403 -0.0961  0.0319 -0.0588
 2090TIP3    H127685   0.586   6.662   2.334 -0.2578  0.3811 -0.0825
 2090TIP3    H227686   0.645   6.789   2.392  0.0093  0.0754  0.3190
 2091TIP3   OH227687   5.831   0.823   5.139  0.3886 -0.4552 -0.3869
 2091TIP3    H127688   5.786   0.738   5.132  0.4093 -0.5331  0.3375
 2091TIP3    H227689   5.768   0.886   5.105 -0.2251 -0.5803  0.4968
 2092TIP3   OH227690   3.257   2.301   6.743 -0.3475  0.5657  0.0314
 2092TIP3    H127691   3.280   2.224   6.690 -1.5752 -0.4146  0.8618
 2092TIP3    H227692   3.205   2.266   6.815 -2.4308  2.3739 -0.4927
 2093TIP3   OH227693   5.747   4.291  12.611 -0.2910  0.1036  0.0336
 2093TIP3    H127694   5.677   4.279  12.546  0.5923 -0.4171 -0.8445
 2093TIP3    H227695   5.751   4.386  12.623 -1.1482  0.1431  0.1095
 2094TIP3   OH227696   0.338   5.923   1.168  0.1966 -0.1070  0.2926
 2094TIP3    H127697   0.417   5.869   1.169  1.1727  1.2856  0.9558
 2094TIP3    H227698   0.367   6.008   1.136 -1.2256  0.1804 -0.3136
 2095TIP3   OH227699   3.948   5.011  12.935  0.3219  0.1793  0.0311
 2095TIP3    H127700   4.038   5.043  12.945  0.3081  0.4161 -0.5548
 2095TIP3    H227701   3.893   5.087  12.954  0.2217 -0.1139  0.9675
 2096TIP3   OH227702   2.299   4.430  11.859  0.2447 -0.5277  0.4787
 2096TIP3    H127703   2.322   4.344  11.893  2.8867  0.5272  1.7144
 2096TIP3    H227704   2.361   4.444  11.787 -0.8211 -0.0342 -0.3661
 2097TIP3   OH227705   2.050   3.973   4.252 -0.2713  0.4644 -0.0530
 2097TIP3    H127706   2.031   3.907   4.318 -0.7617  0.7392  0.0906
 2097TIP3    H227707   2.043   4.056   4.300 -1.5797  0.7245 -0.6374
 2098TIP3   OH227708   5.613   2.743   5.906  0.0244 -0.0060 -0.0938
 2098TIP3    H127709   5.687   2.776   5.957  0.6338 -1.5975  0.1067
 2098TIP3    H227710   5.536   2.763   5.959  0.0979  2.8677 -0.9023
 2099TIP3   OH227711   1.879   2.269   4.069 -0.0488 -0.1904  0.3218
 2099TIP3    H127712   1.917   2.181   4.075 -0.8739 -0.5576  0.3155
 2099TIP3    H227713   1.787   2.256   4.089 -0.7893  0.2167 -2.4315
 2100TIP3   OH227714   5.105   5.958  11.889  0.0915  0.5434  0.5808
 2100TIP3    H127715   5.077   6.019  11.957  0.7212 -0.0517  1.4013
 2100TIP3    H227716   5.029   5.949  11.831 -0.7236  0.4651  1.6445
 2101TIP3   OH227717   6.661   4.211   5.329  0.2987 -0.0859 -0.3196
 2101TIP3    H127718   6.569   4.218   5.353  0.4188 -1.5612  0.7145
 2101TIP3    H227719   6.659   4.170   5.242 -0.0177 -0.5929 -0.0788
 2102TIP3   OH227720   6.220   4.704   5.219  0.4293  1.0759 -0.5305
 2102TIP3    H127721   6.158   4.716   5.291  0.3689 -0.5392 -0.2924
 2102TIP3    H227722   6.172   4.654   5.153  1.6108 -0.7227 -0.0944
 2103TIP3   OH227723   6.358   0.056  15.375 -0.0886 -0.6126  0.4592
 2103TIP3    H127724   6.347   0.039  15.282 -0.6392 -2.2279  0.7903
 2103TIP3    H227725   6.288   0.117  15.397  0.1460 -0.0982 -0.2144
 2104TIP3   OH227726   2.424   4.986   0.720  0.8996 -0.3823 -0.0388
 2104TIP3    H127727   2.519   4.998   0.717  0.8419  0.3026  0.6127
 2104TIP3    H227728   2.399   4.975   0.628  1.6317 -0.7901 -0.1985
 2105TIP3   OH227729   0.428   2.796  15.275  0.1512 -0.5648 -0.5587
 2105TIP3    H127730   0.400   2.883  15.303  0.6534 -1.4202  3.1304
 2105TIP3    H227731   0.516   2.809  15.240 -0.1724  0.5190 -1.0052
 2106TIP3   OH227732   4.152   3.920   0.766  0.1597 -0.1365  0.0214
 2106TIP3    H127733   4.237   3.963   0.770 -0.3467  1.4987 -3.2942
 2106TIP3    H227734   4.102   3.959   0.838  1.9138 -0.5675  1.5414
 2107TIP3   OH227735   6.752   3.221  16.901 -0.4213 -0.2687 -0.2516
 2107TIP3    H127736   6.715   3.134  16.886 -0.4731 -0.4689  0.9621
 2107TIP3    H227737   6.798   3.214  16.985  0.1341  0.6962 -0.4600
 2108TIP3   OH227738   0.362   5.888  11.113 -0.6036 -0.1182  0.0441
 2108TIP3    H127739   0.283   5.863  11.065 -0.6477 -0.9397  0.5363
 2108TIP3    H227740   0.422   5.814  11.101  0.8650  1.2677 -1.9358
 2109TIP3   OH227741   5.639   2.967   2.564  0.5788  0.7633  0.1122
 2109TIP3    H127742   5.622   3.058   2.591  0.1637  0.1600  1.9924
 2109TIP3    H227743   5.731   2.966   2.539  1.9143  0.8255  4.3212
 2110TIP3   OH227744   4.533   0.772  12.327 -0.5468 -0.3937 -0.2003
 2110TIP3    H127745   4.574   0.794  12.243 -1.8342 -1.3390 -1.1080
 2110TIP3    H227746   4.581   0.825  12.391  0.4818  0.3360 -1.5131
 2111TIP3   OH227747   3.555   1.503  13.289  0.1585  0.2520  0.1336
 2111TIP3    H127748   3.501   1.554  13.229  1.1293  0.9024 -0.2119
 2111TIP3    H227749   3.617   1.567  13.325  1.8319 -0.7808 -0.7980
 2112TIP3   OH227750   2.688   2.397  12.748 -0.3966 -0.0884  0.7736
 2112TIP3    H127751   2.668   2.307  12.720 -0.2556 -0.6018  2.2242
 2112TIP3    H227752   2.780   2.393  12.775 -0.5446  0.3472  1.3623
 2113TIP3   OH227753   6.376   6.141   5.533 -0.2436 -0.4053 -0.2013
 2113TIP3    H127754   6.414   6.062   5.494 -1.3446 -1.9868  1.7426
 2113TIP3    H227755   6.448   6.178   5.585 -0.0240 -0.7916 -0.2228
 2114TIP3   OH227756   4.427   4.815   1.531 -0.0920  0.4449 -0.3173
 2114TIP3    H127757   4.348   4.761   1.537 -0.5903  1.1248 -0.6214
 2114TIP3    H227758   4.495   4.755   1.500 -1.0121  0.3382 -2.2829
 2115TIP3   OH227759   1.737   5.495  13.578 -0.3504  0.0485 -0.6819
 2115TIP3    H127760   1.743   5.514  13.485 -0.4505 -1.8444 -1.1146
 2115TIP3    H227761   1.644   5.479  13.594 -0.1894 -0.8302 -0.5446
 2116TIP3   OH227762   2.844   6.068  14.273 -0.4754 -0.5322  0.1019
 2116TIP3    H127763   2.889   6.129  14.215 -0.1413 -0.7403  0.1400
 2116TIP3    H227764   2.775   6.121  14.314 -0.3403 -0.2395 -0.0433
 2117TIP3   OH227765   4.423   1.127  15.679  0.1248 -0.5935  0.3297
 2117TIP3    H127766   4.467   1.052  15.719  0.2044  0.1174  1.6589
 2117TIP3    H227767   4.396   1.181  15.754 -0.8732  0.1696 -0.5542
 2118TIP3   OH227768   3.916   0.224   1.521  0.1712 -0.1112 -0.6506
 2118TIP3    H127769   3.928   0.179   1.604 -0.9099  1.4041  0.3880
 2118TIP3    H227770   3.860   0.165   1.469 -0.5133 -0.3665  0.3407
 2119TIP3   OH227771   3.101   1.432   1.510 -0.3621 -0.2400 -0.4106
 2119TIP3    H127772   3.139   1.405   1.427 -1.0230 -1.1893 -0.4135
 2119TIP3    H227773   3.009   1.450   1.490 -0.6094 -0.8147  0.1807
 2120TIP3   OH227774   3.419   1.350   4.923  0.4390 -0.0646 -0.3363
 2120TIP3    H127775   3.459   1.427   4.962  0.8302 -0.1338 -0.5939
 2120TIP3    H227776   3.461   1.276   4.967  0.1699 -0.1316 -0.1921
 2121TIP3   OH227777   3.558   3.447  13.414  0.0373 -0.2100 -0.2368
 2121TIP3    H127778   3.546   3.444  13.320  0.4815  0.1531 -0.3084
 2121TIP3    H227779   3.578   3.357  13.439 -1.1052 -0.4997 -0.3441
 2122TIP3   OH227780   2.669   0.568  14.003 -0.1967  0.5556 -0.3665
 2122TIP3    H127781   2.756   0.545  14.033 -0.1237  0.1432 -0.8902
 2122TIP3    H227782   2.614   0.494  14.028 -0.9105  1.8442  2.1692
 2123TIP3   OH227783   4.354   4.113  13.295  0.5403  0.3976  0.1469
 2123TIP3    H127784   4.429   4.165  13.323  0.7677  0.5430 -0.7140
 2123TIP3    H227785   4.333   4.059  13.371  1.2754  0.6301  0.5255
 2124TIP3   OH227786   1.929   5.096   3.935  0.1674 -0.5063 -0.6041
 2124TIP3    H127787   1.906   5.125   4.023  1.4333 -0.7683 -0.1592
 2124TIP3    H227788   1.848   5.057   3.900  0.0220 -1.7478  1.0090
 2125TIP3   OH227789   0.020   5.760  12.054 -0.0885  0.1085  0.0248
 2125TIP3    H127790   0.054   5.701  12.121  0.0371  0.1133 -0.0355
 2125TIP3    H227791  -0.073   5.770  12.076 -0.0427  0.1234  0.2070
 2126TIP3   OH227792   1.137   2.428  15.764 -0.1502 -0.0669 -0.1800
 2126TIP3    H127793   1.089   2.376  15.828  0.9361 -0.0068  0.7086
 2126TIP3    H227794   1.082   2.426  15.686 -1.4501 -0.2405  0.7080
 2127TIP3   OH227795   4.850   4.699  10.452 -0.1231 -0.6698 -0.3783
 2127TIP3    H127796   4.833   4.745  10.534 -1.4843  0.0217 -1.0197
 2127TIP3    H227797   4.768   4.655  10.432  0.8649 -2.7162 -0.2461
 2128TIP3   OH227798   0.240   4.017   3.285  0.1912  0.5299 -0.2201
 2128TIP3    H127799   0.275   4.092   3.236  1.9438  1.4614  2.2929
 2128TIP3    H227800   0.316   3.966   3.311 -0.4468  0.8725  2.7106
 2129TIP3   OH227801   1.543   4.475   4.149 -0.4831  0.2645  0.7593
 2129TIP3    H127802   1.512   4.553   4.194  1.2446  1.0072  0.7623
 2129TIP3    H227803   1.467   4.416   4.146 -1.4483  1.3953  1.9479
 2130TIP3   OH227804   5.951   2.800  12.981 -0.1059  0.2139  0.0754
 2130TIP3    H127805   5.868   2.789  12.935 -1.7205 -0.3426  2.9242
 2130TIP3    H227806   5.940   2.880  13.032  1.0344  0.0228  0.6525
 2131TIP3   OH227807   6.506   1.469   6.253  0.5083  0.4385 -0.3431
 2131TIP3    H127808   6.428   1.422   6.225  1.3303 -2.5574  1.7900
 2131TIP3    H227809   6.474   1.535   6.314 -0.4769  0.5884 -1.0009
 2132TIP3   OH227810   2.477   0.564  16.561 -0.3268 -0.5714 -0.2247
 2132TIP3    H127811   2.527   0.553  16.642 -2.4253  1.3791  1.5234
 2132TIP3    H227812   2.436   0.479  16.547  0.0877 -0.9620  0.7739
 2133TIP3   OH227813   2.926   5.806   3.067  0.1952 -0.3965 -0.1879
 2133TIP3    H127814   2.919   5.892   3.026  0.0963 -0.8158 -1.0921
 2133TIP3    H227815   2.997   5.815   3.130  2.7914 -0.5916 -2.8606
 2134TIP3   OH227816   0.982   5.232  11.867  0.0034  0.1016  0.5009
 2134TIP3    H127817   0.998   5.308  11.812 -1.1238 -0.0778 -0.1013
 2134TIP3    H227818   0.905   5.190  11.828 -0.7689 -0.0773  2.1626
 2135TIP3   OH227819   3.300   2.084   2.737 -0.1369 -0.7300  0.7152
 2135TIP3    H127820   3.277   2.174   2.713 -0.7080  0.5864  5.2397
 2135TIP3    H227821   3.230   2.031   2.700 -0.3913  0.7859 -1.1325
 2136TIP3   OH227822   3.835   1.147   3.258  0.3563  0.3131  0.0312
 2136TIP3    H127823   3.787   1.200   3.322 -1.6996 -1.7680  0.3382
 2136TIP3    H227824   3.804   1.179   3.173  0.1717  0.5260  0.1756
 2137TIP3   OH227825   6.524   5.892   4.946  0.1644 -0.1921  0.4691
 2137TIP3    H127826   6.456   5.941   4.901 -0.1854 -1.0299  0.0601
 2137TIP3    H227827   6.606   5.925   4.911 -0.0822 -0.2378 -0.1562
 2138TIP3   OH227828   0.722   5.339   3.156  0.1844  0.0571 -0.2690
 2138TIP3    H127829   0.701   5.262   3.208 -0.9693  0.2755 -0.3702
 2138TIP3    H227830   0.816   5.333   3.139 -0.0497 -1.7841 -1.0433
 2139TIP3   OH227831   6.639   0.377   2.121  0.2129  0.3292 -0.0193
 2139TIP3    H127832   6.690   0.296   2.128  0.8727  0.8105  1.1368
 2139TIP3    H227833   6.684   0.438   2.180 -1.5870  0.8222  0.9163
 2140TIP3   OH227834   2.940   0.251   4.566  0.0436  0.1774 -0.6706
 2140TIP3    H127835   2.977   0.328   4.609 -1.8137  0.2016  1.0578
 2140TIP3    H227836   2.982   0.177   4.610  0.8246  0.1988 -1.3758
 2141TIP3   OH227837   4.705   5.325  13.343 -0.4728 -0.3008 -0.0651
 2141TIP3    H127838   4.752   5.332  13.260 -1.6303  0.2172 -0.6948
 2141TIP3    H227839   4.613   5.331  13.320 -0.7936  1.2796  1.3880
 2142TIP3   OH227840   2.960   1.929  11.410 -0.6915  0.2146 -0.3346
 2142TIP3    H127841   2.904   1.853  11.424  0.5311 -0.3630  1.8796
 2142TIP3    H227842   2.900   2.002  11.403 -1.9057 -0.9058 -2.6272
 2143TIP3   OH227843   3.638   0.897  14.705  0.2732 -0.3539  0.5207
 2143TIP3    H127844   3.566   0.959  14.696 -0.7167 -1.4642  0.5353
 2143TIP3    H227845   3.597   0.818  14.741  1.3518 -1.2709 -0.1992
 2144TIP3   OH227846   5.412   6.680   1.570  0.3231  0.2789 -0.2993
 2144TIP3    H127847   5.425   6.729   1.652 -0.8733 -2.4443  1.7023
 2144TIP3    H227848   5.317   6.680   1.558  0.2903 -1.3007 -0.3029
 2145TIP3   OH227849   0.859   3.372   3.753 -0.2067 -0.3942 -0.3364
 2145TIP3    H127850   0.784   3.319   3.726 -0.6896 -0.3122  0.7664
 2145TIP3    H227851   0.832   3.462   3.736 -1.4994 -0.1371  2.4612
 2146TIP3   OH227852   4.540   0.208   2.320 -0.4608 -0.3189 -0.0230
 2146TIP3    H127853   4.605   0.174   2.382 -0.8975 -0.3057  0.4486
 2146TIP3    H227854   4.586   0.213   2.237  1.3827  3.4129  1.0193
 2147TIP3   OH227855   1.861   0.825  16.842 -0.2659 -0.7120  0.7290
 2147TIP3    H127856   1.784   0.773  16.817 -0.0826 -1.5778  1.8881
 2147TIP3    H227857   1.824   0.911  16.866 -0.4281  0.3236 -2.6136
 2148TIP3   OH227858   3.015   5.546   4.082  0.2984  0.4736 -0.7405
 2148TIP3    H127859   3.030   5.585   4.169 -0.2325  0.4088 -0.6167
 2148TIP3    H227860   3.032   5.618   4.021  0.8439  0.4752 -0.5996
 2149TIP3   OH227861   4.017   6.430   1.461 -0.3713  0.1125  0.5183
 2149TIP3    H127862   4.038   6.390   1.377 -0.0776 -1.7716  1.4444
 2149TIP3    H227863   4.102   6.458   1.497 -0.4649  0.6576  0.3254
 2150TIP3   OH227864   6.139   2.328   1.552 -0.2446 -0.0531 -0.6197
 2150TIP3    H127865   6.232   2.316   1.535 -0.3006  0.8139 -1.6593
 2150TIP3    H227866   6.100   2.242   1.535  0.7383 -1.4352  3.1924
 2151TIP3   OH227867   0.395   3.638   5.715  0.3246 -0.6126 -0.3737
 2151TIP3    H127868   0.464   3.702   5.696 -0.4490  0.5701  0.6765
 2151TIP3    H227869   0.404   3.621   5.809 -0.5185 -0.7952 -0.3231
 2152TIP3   OH227870   5.545   5.780   0.491  0.0118  0.0457  0.3771
 2152TIP3    H127871   5.625   5.814   0.452  0.4098 -1.6880 -0.3953
 2152TIP3    H227872   5.553   5.685   0.485 -1.9646 -0.1817  0.5783
 2153TIP3   OH227873   1.408   2.529   2.199 -0.3001  0.8006 -0.3536
 2153TIP3    H127874   1.459   2.494   2.126  0.5884  1.4575 -0.0794
 2153TIP3    H227875   1.467   2.592   2.240 -0.7622  0.4154  0.9552
 2154TIP3   OH227876   2.253   5.861  14.226 -0.5890  0.1188  0.1395
 2154TIP3    H127877   2.265   5.791  14.290  2.0166 -0.0033 -0.3908
 2154TIP3    H227878   2.173   5.836  14.179  1.5637 -4.1160 -1.8680
 2155TIP3   OH227879   3.230   0.237   3.885  0.4806  0.2993  0.3428
 2155TIP3    H127880   3.141   0.270   3.892  0.0511 -0.9166  0.8393
 2155TIP3    H227881   3.233   0.192   3.800  0.4439 -0.1355  0.5669
 2156TIP3   OH227882   0.087   5.908  15.005  0.0289 -0.1795  0.2206
 2156TIP3    H127883   0.019   5.950  14.953  0.6684 -0.6667 -1.0534
 2156TIP3    H227884   0.119   5.977  15.064 -0.1292  0.6288 -0.6253
 2157TIP3   OH227885   2.983   2.316  14.903 -0.0990  0.3471  0.3400
 2157TIP3    H127886   2.952   2.314  14.993 -3.4964 -0.8327 -0.7291
 2157TIP3    H227887   2.928   2.381  14.860  0.2417 -0.3957 -1.2901
 2158TIP3   OH227888   4.112   6.693   4.685  0.8510  0.5369 -0.1228
 2158TIP3    H127889   4.053   6.750   4.734  0.7383 -0.1948  0.6184
 2158TIP3    H227890   4.192   6.691   4.737  0.3541 -1.1164  0.6461
 2159TIP3   OH227891   3.226   3.461   5.113 -0.3798  0.2996  0.5854
 2159TIP3    H127892   3.205   3.448   5.021  0.0387 -1.7945  0.7298
 2159TIP3    H227893   3.147   3.432   5.160  0.8002 -2.7314  0.9533
 2160TIP3   OH227894   5.368   4.585  13.517  1.3671  0.1631 -0.1301
 2160TIP3    H127895   5.416   4.627  13.589 -2.2562  0.1051  2.5899
 2160TIP3    H227896   5.331   4.506  13.557 -0.7044  0.0722 -2.0794
 2161TIP3   OH227897   0.963   4.541  15.519 -0.1206  0.3203  0.8453
 2161TIP3    H127898   0.884   4.489  15.507 -0.2372  0.7946 -0.6780
 2161TIP3    H227899   0.982   4.577  15.432  0.3955  2.1723  1.6590
 2162TIP3   OH227900   2.064   1.189   6.546  0.8604  0.1281 -0.3817
 2162TIP3    H127901   1.999   1.132   6.586  0.5131 -1.2398 -2.7016
 2162TIP3    H227902   2.044   1.276   6.579 -0.5014 -0.6429  0.9429
 2163TIP3   OH227903   3.826   4.687  13.820 -0.2042  0.2023  0.0104
 2163TIP3    H127904   3.844   4.599  13.853 -1.6162  0.5964  1.9971
 2163TIP3    H227905   3.878   4.694  13.740  0.2531 -2.2774  0.0291
 2164TIP3   OH227906   6.147   5.743   3.197  0.2451 -0.3608  0.0728
 2164TIP3    H127907   6.201   5.784   3.130  0.2464  1.5266  1.1441
 2164TIP3    H227908   6.182   5.654   3.205  0.6211 -0.4471 -1.9591
 2165TIP3   OH227909   2.612   4.828   4.638  0.3520  0.3672  0.4896
 2165TIP3    H127910   2.535   4.794   4.685  0.6174  0.0730  0.7188
 2165TIP3    H227911   2.580   4.906   4.593 -0.4147 -0.4749 -0.4771
 2166TIP3   OH227912   3.307   1.796   0.913 -0.1938 -0.3143 -0.1884
 2166TIP3    H127913   3.224   1.751   0.923 -0.4590 -0.3870 -2.1839
 2166TIP3    H227914   3.283   1.888   0.901  0.2364  0.1578  2.1774
 2167TIP3   OH227915   4.569   0.580   2.934 -0.0092 -0.0854  0.3169
 2167TIP3    H127916   4.622   0.622   3.002 -0.0689  0.6182 -0.0658
 2167TIP3    H227917   4.632   0.539   2.875  0.0193 -2.5463  1.9098
 2168TIP3   OH227918   2.984   0.436   3.422  0.3604  0.1774 -0.2090
 2168TIP3    H127919   2.926   0.432   3.498 -0.0281  1.5796 -0.4160
 2168TIP3    H227920   3.032   0.353   3.425  0.6789  0.3840  1.8142
 2169TIP3   OH227921   4.611   2.394   0.166 -0.1736  0.1188  0.2053
 2169TIP3    H127922   4.518   2.419   0.165 -0.4359 -0.7193 -1.6473
 2169TIP3    H227923   4.637   2.396   0.074  1.0384 -1.8123  0.4516
 2170TIP3   OH227924   4.095   2.356   5.746  0.4338  0.6451 -0.0696
 2170TIP3    H127925   4.071   2.279   5.796  1.5247  1.2780  1.5331
 2170TIP3    H227926   4.156   2.324   5.680  0.3950  0.0421  0.1837
 2171TIP3   OH227927   4.030   0.518  13.696  0.4848 -0.2709  0.0324
 2171TIP3    H127928   4.057   0.584  13.760 -0.0245 -0.2605  0.2478
 2171TIP3    H227929   4.102   0.513  13.634  0.8697 -0.0850  0.4610
 2172TIP3   OH227930   6.292   5.566   3.478  0.9335  0.4650 -0.5090
 2172TIP3    H127931   6.329   5.560   3.390 -1.0868  1.8048 -1.5117
 2172TIP3    H227932   6.297   5.476   3.512  2.3902  0.0583 -1.6662
 2173TIP3   OH227933   3.786   5.150   2.138  0.1771 -0.2750 -0.7340
 2173TIP3    H127934   3.881   5.137   2.149  0.0446  0.4491  2.1048
 2173TIP3    H227935   3.776   5.178   2.047  2.5270 -1.5035 -1.4702
 2174TIP3   OH227936   4.379   2.545   5.662  0.7456  0.0374  0.0994
 2174TIP3    H127937   4.425   2.628   5.677  0.3113  0.6167 -1.5837
 2174TIP3    H227938   4.292   2.559   5.700  1.2305 -0.3028  1.3857
 2175TIP3   OH227939   3.331   1.492   2.752 -0.3086  0.3330  0.1328
 2175TIP3    H127940   3.285   1.552   2.692 -1.7076  2.0129  2.7132
 2175TIP3    H227941   3.302   1.518   2.839  0.3023 -3.1305  1.5197
 2176TIP3   OH227942   4.087   2.718  14.770 -0.1687 -0.0793 -0.0830
 2176TIP3    H127943   4.064   2.746  14.859  0.2552 -1.6580  0.5730
 2176TIP3    H227944   4.009   2.672  14.739  0.4510 -1.4890  0.3766
 2177TIP3   OH227945   5.684   2.315  15.905  0.6877  0.5761  0.4394
 2177TIP3    H127946   5.684   2.385  15.840  0.7842 -0.2361 -0.4539
 2177TIP3    H227947   5.767   2.269  15.891  0.4782  0.0795  0.8030
 2178TIP3   OH227948   6.162   1.156   4.307 -0.1323 -0.3840 -0.0391
 2178TIP3    H127949   6.186   1.123   4.393 -0.1244  0.9627  0.4976
 2178TIP3    H227950   6.242   1.148   4.255  0.3560  0.3563  0.5789
 2179TIP3   OH227951   5.285   0.957  16.436  0.3032  0.3620  1.0060
 2179TIP3    H127952   5.313   0.910  16.515  1.4712 -1.3574 -0.3407
 2179TIP3    H227953   5.259   0.888  16.375 -2.0785  1.7107  0.3653
 2180TIP3   OH227954   0.331   6.310  17.231  0.3085  0.3857  0.6456
 2180TIP3    H127955   0.300   6.240  17.173 -1.7159  0.9958  0.9188
 2180TIP3    H227956   0.312   6.391  17.183  3.2977  0.8300 -0.0036
 2181TIP3   OH227957   2.697   6.537  12.098 -0.1423  0.4816 -0.2523
 2181TIP3    H127958   2.648   6.559  12.177  0.5643 -2.8698  1.2872
 2181TIP3    H227959   2.787   6.524  12.128  0.5628  0.9972 -1.9961
 2182TIP3   OH227960   4.892   5.064  15.505  0.4069  0.4121 -0.0956
 2182TIP3    H127961   4.907   4.977  15.542  0.7755 -0.1584 -1.5057
 2182TIP3    H227962   4.977   5.107  15.510  0.6047  0.1175 -0.7840
 2183TIP3   OH227963   6.526   2.110  12.198  0.0226 -0.3361 -0.2257
 2183TIP3    H127964   6.446   2.138  12.243 -0.0600 -0.1553 -0.4870
 2183TIP3    H227965   6.520   2.149  12.111  0.3722 -0.3612 -0.2634
 2184TIP3   OH227966   4.455   0.776  13.879  0.3798  0.4001  0.3066
 2184TIP3    H127967   4.508   0.797  13.802 -0.0139 -1.2577 -0.4694
 2184TIP3    H227968   4.471   0.848  13.940  0.5855  1.8140 -1.3705
 2185TIP3   OH227969   0.704   0.323   4.053  0.2083 -0.1792 -0.1166
 2185TIP3    H127970   0.767   0.336   4.124  0.1601 -2.6561  0.4653
 2185TIP3    H227971   0.625   0.367   4.083  0.0880 -1.4630  1.5604
 2186TIP3   OH227972   5.029   5.356  14.143  0.5097 -0.1497 -0.2792
 2186TIP3    H127973   5.091   5.293  14.180  0.2578  0.6999  1.7333
 2186TIP3    H227974   5.076   5.396  14.070  1.4934 -1.0767 -0.1806
 2187TIP3   OH227975   2.468   0.483   4.429 -0.0190  0.3376 -0.1943
 2187TIP3    H127976   2.448   0.569   4.393 -0.6371  0.0082 -0.6477
 2187TIP3    H227977   2.493   0.430   4.354 -2.5112 -0.7047 -0.3939
 2188TIP3   OH227978   2.417   3.782   2.139  0.4802  0.1137  0.1251
 2188TIP3    H127979   2.387   3.836   2.066  0.6570  0.5192  0.3473
 2188TIP3    H227980   2.342   3.726   2.160  0.4123  0.0284 -0.3323
 2189TIP3   OH227981   1.786   0.249  13.251 -0.1778  0.1192  0.0537
 2189TIP3    H127982   1.811   0.341  13.264 -0.3163  0.2321 -0.4677
 2189TIP3    H227983   1.782   0.213  13.340 -1.2864  0.9214  0.3597
 2190TIP3   OH227984   2.756   4.007   5.668  0.7774  0.1572 -0.0046
 2190TIP3    H127985   2.749   4.101   5.648  0.2845  0.1117 -0.0526
 2190TIP3    H227986   2.726   4.000   5.758 -0.4567 -0.1293 -0.4195
 2191TIP3   OH227987   5.805   2.256   0.191 -0.2488  1.3464  0.0726
 2191TIP3    H127988   5.873   2.235   0.127 -0.8835  2.0503 -0.8617
 2191TIP3    H227989   5.727   2.211   0.158 -0.5485  1.5951  0.4339
 2192TIP3   OH227990   3.016   2.788  11.965 -0.1701 -0.0321  0.3072
 2192TIP3    H127991   3.098   2.742  11.944  0.5923  1.7546 -0.8255
 2192TIP3    H227992   2.966   2.787  11.884 -0.4325  0.5421  0.4573
 2193TIP3   OH227993   0.076   4.528  13.972  0.4404 -0.4051 -0.1062
 2193TIP3    H127994   0.146   4.468  13.949  1.7141  0.3341  1.5474
 2193TIP3    H227995   0.044   4.496  14.057 -2.2546 -1.5407 -1.4413
 2194TIP3   OH227996   3.369   4.906   0.740  0.6649  0.2206 -0.5350
 2194TIP3    H127997   3.463   4.888   0.737  0.2158 -2.6666 -0.0369
 2194TIP3    H227998   3.335   4.872   0.658 -0.2475 -1.0108  0.3250
 2195TIP3   OH227999   5.560   5.102   6.520  0.2715 -0.1792  0.0161
 2195TIP3    H128000   5.550   5.193   6.548  0.4583 -0.2827  0.4227
 2195TIP3    H228001   5.536   5.103   6.428  0.1503  0.2609  0.0491
 2196TIP3   OH228002   2.592   2.257  12.506  0.1527  0.2683  0.3050
 2196TIP3    H128003   2.568   2.254  12.599  1.1635  3.2788  0.7735
 2196TIP3    H228004   2.684   2.231  12.503  0.4997  1.4425  0.3633
 2197TIP3   OH228005   2.069   3.512   3.523  0.8568 -0.0159 -0.4266
 2197TIP3    H128006   2.128   3.579   3.557 -0.7723  1.9200 -1.1851
 2197TIP3    H228007   2.005   3.498   3.593  0.2769  0.4120 -0.8657
 2198TIP3   OH228008   4.296   1.956  11.063 -0.3249  0.0548 -0.0601
 2198TIP3    H128009   4.335   1.895  11.126  0.8500  0.7184 -0.1105
 2198TIP3    H228010   4.320   1.921  10.977  0.3254  0.5554 -0.0897
 2199TIP3   OH228011   0.424   0.468  11.019  0.0016  0.3318 -0.1191
 2199TIP3    H128012   0.344   0.439  11.063  0.3994 -2.1562 -0.8788
 2199TIP3    H228013   0.429   0.415  10.940  1.6044  1.5697 -0.9179
 2200TIP3   OH228014   0.262   3.645  13.348 -0.1816  0.7845  0.5982
 2200TIP3    H128015   0.170   3.670  13.347 -0.0697  1.2170  0.4369
 2200TIP3    H228016   0.263   3.552  13.370 -0.6151  0.9566  1.3447
 2201TIP3   OH228017   0.398   1.021  12.546  0.3040  0.1665 -0.3723
 2201TIP3    H128018   0.400   0.949  12.483 -0.0633  1.1299 -1.5417
 2201TIP3    H228019   0.430   1.096  12.496 -1.7845  1.3812 -0.0075
 2202TIP3   OH228020   6.493   5.035  11.829 -0.3447  0.0333 -0.6064
 2202TIP3    H128021   6.571   5.051  11.883 -0.6390  2.0566 -0.6758
 2202TIP3    H228022   6.452   4.959  11.869 -0.2817  1.1402  1.7968
 2203TIP3   OH228023   2.187   2.360   0.072  0.2743 -0.3788 -0.8677
 2203TIP3    H128024   2.104   2.339   0.115  0.2249 -2.1963 -1.7551
 2203TIP3    H228025   2.192   2.456   0.075 -2.0456 -0.1866 -1.1032
 2204TIP3   OH228026   3.335   3.676   3.148 -0.2383  0.1680 -0.2546
 2204TIP3    H128027   3.287   3.707   3.224  0.5620  2.2021 -0.4945
 2204TIP3    H228028   3.425   3.667   3.178 -0.2628 -0.9450 -0.4810
 2205TIP3   OH228029   1.814   3.329   5.340  0.3986  0.0435 -0.5390
 2205TIP3    H128030   1.864   3.354   5.263  0.5780  0.4170 -0.3046
 2205TIP3    H228031   1.802   3.410   5.389  0.6254 -0.2459  0.0159
 2206TIP3   OH228032   6.577   4.198   4.299 -0.4758  0.2832 -0.0310
 2206TIP3    H128033   6.607   4.285   4.326  0.6035 -0.1879  0.3693
 2206TIP3    H228034   6.496   4.214   4.251  0.8120  1.7531 -1.9038
 2207TIP3   OH228035   0.626   2.279  13.661  0.4437  0.1009 -0.1947
 2207TIP3    H128036   0.678   2.209  13.701  0.5976  0.2558 -0.1263
 2207TIP3    H228037   0.572   2.233  13.596 -0.4927 -0.2903  0.8175
 2208TIP3   OH228038   4.199   4.288  15.277 -0.0231 -0.0759  0.1157
 2208TIP3    H128039   4.272   4.259  15.331 -0.4471 -0.3896  0.5250
 2208TIP3    H228040   4.218   4.252  15.190  0.2672 -0.2188  0.2356
 2209TIP3   OH228041   4.897   1.830   5.380  0.3377  0.0691 -0.3529
 2209TIP3    H128042   4.867   1.853   5.292  1.4928  1.7792 -0.3369
 2209TIP3    H228043   4.921   1.738   5.373 -2.0326 -0.5812 -1.1148
 2210TIP3   OH228044   0.414   1.256  14.019  0.2344 -0.3165 -0.3149
 2210TIP3    H128045   0.445   1.250  14.109  0.3010  1.0348 -0.2414
 2210TIP3    H228046   0.480   1.308  13.973 -1.0595  1.1994 -0.5318
 2211TIP3   OH228047   3.629   6.759  13.113 -0.0198  0.3992  0.1670
 2211TIP3    H128048   3.680   6.833  13.078 -0.4493  1.7685  2.2641
 2211TIP3    H228049   3.694   6.692  13.131  0.7115  1.1501  0.3987
 2212TIP3   OH228050   5.695   0.165   4.872  0.3878  0.6204  0.8600
 2212TIP3    H128051   5.615   0.146   4.921 -0.2335 -0.9061 -0.6505
 2212TIP3    H228052   5.665   0.177   4.782  1.9062 -0.9302  0.0887
 2213TIP3   OH228053   6.447   6.700  13.403 -0.0442 -0.2353 -0.4406
 2213TIP3    H128054   6.387   6.634  13.437 -1.2698  0.8474 -0.4273
 2213TIP3    H228055   6.439   6.774  13.463  0.9302  0.1333 -0.7360
 2214TIP3   OH228056   0.933   0.030   4.796  0.2064  0.0291  0.5851
 2214TIP3    H128057   0.986   0.108   4.814 -0.3222  0.4753  0.2333
 2214TIP3    H228058   0.981  -0.017   4.728  0.0242  0.5787  0.0632
 2215TIP3   OH228059   3.672   0.088  12.681 -0.3468 -0.1755  0.1931
 2215TIP3    H128060   3.622   0.160  12.719  0.2833  0.1949  0.3390
 2215TIP3    H228061   3.630   0.009  12.714  0.3658  0.1317  1.9400
 2216TIP3   OH228062   4.870   2.363   3.342 -0.0338 -0.3382 -0.2053
 2216TIP3    H128063   4.838   2.288   3.392 -0.4322  0.6625  1.0883
 2216TIP3    H228064   4.885   2.431   3.407  3.2874 -0.2119 -0.8918
 2217TIP3   OH228065   0.639   1.169  10.925 -0.2844 -0.1988  0.4280
 2217TIP3    H128066   0.565   1.112  10.904  0.5773 -1.2359  0.1331
 2217TIP3    H228067   0.716   1.117  10.904  0.5372  0.9888  0.4127
 2218TIP3   OH228068   6.205   3.566  11.561  0.0209  0.2739  0.4527
 2218TIP3    H128069   6.183   3.654  11.592  0.7506  0.6499 -0.0523
 2218TIP3    H228070   6.298   3.571  11.538 -0.3026 -0.1741 -1.0931
 2219TIP3   OH228071   2.727   2.892   0.959  0.3260  0.0673  0.2664
 2219TIP3    H128072   2.743   2.798   0.966 -1.2229 -0.2886 -0.5044
 2219TIP3    H228073   2.782   2.919   0.885  0.4573 -0.3123  0.2190
 2220TIP3   OH228074   4.536   0.719   5.763 -0.0187 -0.0972 -0.2648
 2220TIP3    H128075   4.520   0.651   5.828 -0.8624 -0.1000 -0.4679
 2220TIP3    H228076   4.612   0.767   5.797  0.1310 -0.6792  0.2407
 2221TIP3   OH228077   4.246   5.984  16.498  0.0122  0.0135 -0.6687
 2221TIP3    H128078   4.277   6.038  16.425 -1.0493  3.0551  0.9827
 2221TIP3    H228079   4.323   5.932  16.523  0.8639  0.1164 -2.8091
 2222TIP3   OH228080   1.588   1.352  15.333  0.4092  0.2613 -0.1957
 2222TIP3    H128081   1.561   1.437  15.298 -0.5086  0.3223  0.6139
 2222TIP3    H228082   1.548   1.349  15.420 -1.7442 -2.0640 -1.1327
 2223TIP3   OH228083   4.699   3.919   1.917 -0.0133  0.1532  0.5253
 2223TIP3    H128084   4.791   3.900   1.935  0.0746 -1.0612 -0.9731
 2223TIP3    H228085   4.655   3.912   2.001  1.7637  4.6608  2.1802
 2224TIP3   OH228086   5.135   3.080  13.907 -0.0890  0.5829 -0.1610
 2224TIP3    H128087   5.168   2.990  13.906 -1.4599 -0.0187 -3.0309
 2224TIP3    H228088   5.041   3.072  13.921 -0.0179  1.7197  1.1130
 2225TIP3   OH228089   1.821   1.036  12.617  0.0312  0.5567 -0.1449
 2225TIP3    H128090   1.727   1.037  12.630 -0.1766  2.3004 -1.4371
 2225TIP3    H228091   1.858   1.054  12.703 -0.7673 -0.5092  0.4485
 2226TIP3   OH228092   5.778   2.138   3.000  0.1613 -0.0406 -0.2095
 2226TIP3    H128093   5.702   2.087   2.974  0.5240  0.1547 -1.7377
 2226TIP3    H228094   5.849   2.106   2.945  0.3305  2.3137 -1.5080
 2227TIP3   OH228095   6.258   1.465   0.429  0.1479  0.4692  0.5772
 2227TIP3    H128096   6.342   1.510   0.429  0.0794  0.5956  0.4185
 2227TIP3    H228097   6.249   1.430   0.340 -1.0509  2.4659 -0.1562
 2228TIP3   OH228098   2.735   4.316  16.164  0.4433 -0.7811  0.5010
 2228TIP3    H128099   2.678   4.260  16.112 -1.0040 -1.5044  2.7452
 2228TIP3    H228100   2.797   4.256  16.206  0.6473 -0.3941  0.7655
 2229TIP3   OH228101   0.195   6.657   2.007 -0.4804  0.1474 -0.1003
 2229TIP3    H128102   0.125   6.600   1.973 -1.0717  0.5157  0.4629
 2229TIP3    H228103   0.228   6.611   2.084 -1.3403  0.7967  0.6860
 2230TIP3   OH228104   4.857   5.690  16.305  0.2654 -0.1461 -0.0905
 2230TIP3    H128105   4.866   5.782  16.281 -1.1800 -0.2540 -1.2319
 2230TIP3    H228106   4.908   5.643  16.238 -0.4157 -0.2400 -0.5571
 2231TIP3   OH228107   1.198   0.779   2.281  0.0732 -0.3707  0.7620
 2231TIP3    H128108   1.121   0.739   2.241 -0.4929 -0.4639  1.9214
 2231TIP3    H228109   1.179   0.873   2.283  1.5598  0.1512 -2.3141
 2232TIP3   OH228110   4.918   4.872   2.835 -0.3802  0.0109  0.3057
 2232TIP3    H128111   4.828   4.902   2.851 -1.6211 -0.9969 -3.6394
 2232TIP3    H228112   4.958   4.943   2.785 -0.0862 -0.8108 -0.6560
 2233TIP3   OH228113   4.528   3.185  13.114  0.2906  0.5456 -0.0822
 2233TIP3    H128114   4.528   3.161  13.207  2.1487  0.0374 -0.1774
 2233TIP3    H228115   4.451   3.241  13.104 -0.9857 -0.8564  1.3642
 2234TIP3   OH228116   1.925   3.948  17.150  0.1051  0.1080  0.0104
 2234TIP3    H128117   1.883   3.870  17.115 -1.5690  1.2617 -0.6863
 2234TIP3    H228118   1.863   4.019  17.132  1.6241  1.6300  0.4972
 2235TIP3   OH228119   2.422   2.614  12.517 -0.3408  0.0300  0.1046
 2235TIP3    H128120   2.366   2.537  12.505 -0.6277  0.0527  1.2126
 2235TIP3    H228121   2.489   2.606  12.450 -0.7727 -0.8245 -0.2319
 2236TIP3   OH228122   2.795   1.492   0.846 -0.9515  0.4902  0.7695
 2236TIP3    H128123   2.791   1.543   0.927 -0.7923 -0.0572  1.1316
 2236TIP3    H228124   2.715   1.515   0.799 -1.3998  0.2911  1.4124
 2237TIP3   OH228125   2.176   2.556   3.711  0.5473 -0.3740 -0.1661
 2237TIP3    H128126   2.100   2.595   3.755 -0.5011  0.8038 -2.8312
 2237TIP3    H228127   2.238   2.628   3.700  1.3486 -0.9412  0.4401
 2238TIP3   OH228128   2.751   0.900   3.675 -0.2446 -0.2045 -0.3251
 2238TIP3    H128129   2.843   0.877   3.682  0.3312  2.0836  0.3007
 2238TIP3    H228130   2.746   0.958   3.599 -1.5916 -1.9933 -1.7071
 2239TIP3   OH228131   0.542   2.955   3.194  1.0427 -0.4687 -0.0285
 2239TIP3    H128132   0.480   2.926   3.127  0.9146  0.6758 -0.4201
 2239TIP3    H228133   0.589   3.027   3.153 -0.5432  1.7471  1.8338
 2240TIP3   OH228134   5.824   1.351  12.900 -0.1496  0.0450 -0.9624
 2240TIP3    H128135   5.901   1.364  12.844  0.6832  0.1838  0.1810
 2240TIP3    H228136   5.809   1.257  12.898  0.9240 -0.1701 -0.1067
 2241TIP3   OH228137   1.813   2.621   2.128  0.3181 -0.8495  0.3754
 2241TIP3    H128138   1.784   2.531   2.138  0.2692 -1.1512 -2.0708
 2241TIP3    H228139   1.737   2.674   2.152 -0.6968 -1.5496 -1.1456
 2242TIP3   OH228140   3.503   4.916   3.736  1.1318  0.3862  0.0881
 2242TIP3    H128141   3.436   4.869   3.786  0.5243  1.3903  0.2310
 2242TIP3    H228142   3.475   4.907   3.644  1.6681 -0.5334 -0.0040
 2243TIP3   OH228143   2.069   5.776  12.711 -0.0823  0.1178 -0.2378
 2243TIP3    H128144   2.022   5.830  12.648 -0.7527 -1.8842 -1.5831
 2243TIP3    H228145   2.146   5.745  12.662  0.3113 -0.0956  0.4993
 2244TIP3   OH228146   1.008   4.579  15.227 -0.6733 -0.0850  0.6246
 2244TIP3    H128147   0.995   4.484  15.222  1.4510 -0.3533 -2.7596
 2244TIP3    H228148   1.102   4.590  15.240 -0.6065  1.4915 -0.8068
 2245TIP3   OH228149   4.992   1.292  13.756  0.1912 -0.1353  0.3052
 2245TIP3    H128150   5.054   1.364  13.744  1.4323 -1.4527 -1.6799
 2245TIP3    H228151   4.908   1.336  13.772  0.9640  1.7538 -0.4720
 2246TIP3   OH228152   5.057   1.750   4.620 -0.2236  0.0372  0.3668
 2246TIP3    H128153   5.069   1.775   4.528 -0.0151  0.1980  0.4388
 2246TIP3    H228154   4.981   1.692   4.618  0.1314 -0.4304  0.0095
 2247TIP3   OH228155   3.084   0.179  11.433  0.4333  0.3706 -0.0300
 2247TIP3    H128156   3.154   0.187  11.498 -0.7386  1.3998  1.1634
 2247TIP3    H228157   3.009   0.223  11.473 -0.0064  2.2266 -2.5775
 2248TIP3   OH228158   1.468   4.274   5.053 -0.1428  0.7504  0.1274
 2248TIP3    H128159   1.547   4.250   5.102  0.8942  1.8127 -0.9479
 2248TIP3    H228160   1.495   4.271   4.962 -1.6588  0.1302 -0.3234
 2249TIP3   OH228161   2.438   0.923   3.436  0.1811  0.2877  0.2735
 2249TIP3    H128162   2.502   0.873   3.486 -1.1915 -2.5677 -0.6084
 2249TIP3    H228163   2.469   0.919   3.346  0.3025  1.5488  0.2359
 2250TIP3   OH228164   4.678   0.339  15.441 -0.0813 -0.0277  0.6058
 2250TIP3    H128165   4.655   0.324  15.533 -1.8642  0.9732  0.3823
 2250TIP3    H228166   4.749   0.403  15.444  1.0056 -1.2213  1.2971
 2251TIP3   OH228167   0.318   4.635   5.531 -0.2458  0.6584 -0.3937
 2251TIP3    H128168   0.232   4.611   5.568 -0.1640  0.9493 -0.0100
 2251TIP3    H228169   0.375   4.562   5.556 -0.9439 -0.8672 -2.8912
 2252TIP3   OH228170   6.184   2.560   5.097 -0.2728  0.1811  0.3396
 2252TIP3    H128171   6.102   2.575   5.050 -0.3542  1.2489  0.7904
 2252TIP3    H228172   6.159   2.564   5.190  0.1214 -0.5396  0.4889
 2253TIP3   OH228173   1.437   0.158  12.747 -0.1362  0.3731  0.7554
 2253TIP3    H128174   1.348   0.123  12.761 -0.9121  0.7833 -2.3289
 2253TIP3    H228175   1.465   0.118  12.664  3.0397 -0.5018  2.1005
 2254TIP3   OH228176   0.085   1.291  16.993 -0.0998  0.0463 -0.0844
 2254TIP3    H128177   0.127   1.236  17.059 -1.0772 -0.9404 -0.2675
 2254TIP3    H228178   0.071   1.375  17.037 -0.4829 -0.5115  0.8732
 2255TIP3   OH228179   0.224   2.761   0.665 -0.3801  0.0581 -0.1705
 2255TIP3    H128180   0.281   2.791   0.736  1.3891 -2.0955 -0.5591
 2255TIP3    H228181   0.253   2.672   0.648 -2.9935 -0.6488 -1.3945
 2256TIP3   OH228182   0.636   2.971   6.481  0.3992 -0.2308 -0.4047
 2256TIP3    H128183   0.576   3.021   6.536 -0.8460 -1.2933 -0.7435
 2256TIP3    H228184   0.625   2.880   6.508  0.1059 -0.7270 -2.0611
 2257TIP3   OH228185   4.169   4.928  15.846  0.8489  0.0547 -0.4835
 2257TIP3    H128186   4.246   4.976  15.814 -0.0451  1.3781 -0.7293
 2257TIP3    H228187   4.193   4.903  15.936  0.9224  2.0682  0.1179
 2258TIP3   OH228188   0.956   5.678   2.372  0.2697 -0.1655  0.3840
 2258TIP3    H128189   0.975   5.667   2.279  1.1902  0.7166  0.4420
 2258TIP3    H228190   1.023   5.624   2.416  0.9428  0.7698  0.5456
 2259TIP3   OH228191   5.462   6.489   3.630  0.6416 -0.2682  0.0186
 2259TIP3    H128192   5.469   6.583   3.650  3.0475 -0.7002  1.5701
 2259TIP3    H228193   5.497   6.481   3.541  3.7555 -0.0241  1.1024
 2260TIP3   OH228194   2.744   5.782   0.829  0.3322  0.5594 -0.4073
 2260TIP3    H128195   2.811   5.715   0.818  0.4223  0.3969  0.9591
 2260TIP3    H228196   2.739   5.825   0.744 -0.4614 -1.8471 -1.6843
 2261TIP3   OH228197   5.959   5.274   4.893  0.4428  0.7072  0.0043
 2261TIP3    H128198   5.904   5.224   4.833 -1.2483  0.0603  1.9564
 2261TIP3    H228199   6.002   5.339   4.838 -0.6272 -0.1576 -1.9537
 2262TIP3   OH228200   2.848   2.071  13.006  0.2660  0.3847 -0.0512
 2262TIP3    H128201   2.913   2.002  13.019  0.2831  0.7640  2.2326
 2262TIP3    H228202   2.764   2.029  13.028 -0.1311  0.3033 -1.5814
 2263TIP3   OH228203   0.683   2.972  14.651 -0.3293  0.1866  0.0313
 2263TIP3    H128204   0.773   2.944  14.673  0.3749  1.0801 -1.5527
 2263TIP3    H228205   0.651   2.903  14.593  0.9450  1.8017 -2.8341
 2264TIP3   OH228206   5.549   1.625  12.216  0.1666 -0.3738  0.6467
 2264TIP3    H128207   5.574   1.717  12.201 -0.7643  0.2107  2.3769
 2264TIP3    H228208   5.466   1.631  12.263  0.4166 -2.1079  1.3525
 2265TIP3   OH228209   1.480   3.880  10.985 -0.7256 -0.3419 -0.1320
 2265TIP3    H128210   1.442   3.968  10.976  0.4208  0.2151  0.2600
 2265TIP3    H228211   1.546   3.876  10.916  0.3244 -0.2862  0.8398
 2266TIP3   OH228212   4.079   0.341   6.090  0.0660  0.0824  0.7906
 2266TIP3    H128213   4.132   0.389   6.153  0.2294 -0.8689  1.3980
 2266TIP3    H228214   4.142   0.306   6.026  0.1275 -0.5949  1.2104
 2267TIP3   OH228215   5.987   6.096   0.807 -0.3387 -0.4418 -0.2891
 2267TIP3    H128216   5.973   6.003   0.789 -0.9736 -0.8763  2.0128
 2267TIP3    H228217   6.025   6.097   0.895 -0.8023  1.4990 -0.0686
 2268TIP3   OH228218   5.739   2.366  11.872  0.0260  0.1891 -0.6336
 2268TIP3    H128219   5.681   2.331  11.804 -1.3596  0.2976  0.4514
 2268TIP3    H228220   5.742   2.460  11.856 -0.1637  0.1930 -0.6416
 2269TIP3   OH228221   4.456   3.865   1.614 -0.7094  0.0225  0.3895
 2269TIP3    H128222   4.540   3.905   1.592 -0.3268 -1.9776 -2.2266
 2269TIP3    H228223   4.421   3.921   1.683  1.7081  2.2544 -0.0140
 2270TIP3   OH228224   5.575   5.728   4.048  0.3619 -0.0657  0.1016
 2270TIP3    H128225   5.568   5.673   3.969 -0.7327  0.5334 -0.2510
 2270TIP3    H228226   5.518   5.685   4.112  1.7649 -0.9156  0.8094
 2271TIP3   OH228227   4.655   5.955  10.802  0.2764 -0.4906  0.3517
 2271TIP3    H128228   4.574   5.989  10.764 -0.8791 -1.5284  1.7546
 2271TIP3    H228229   4.697   6.032  10.842  0.6843  0.2954 -1.5012
 2272TIP3   OH228230   5.316   1.293  14.765  0.5025  0.0028 -0.0203
 2272TIP3    H128231   5.274   1.331  14.842 -0.1778  1.3258 -1.0005
 2272TIP3    H228232   5.244   1.276  14.704  1.0669 -0.6846 -0.5149
 2273TIP3   OH228233   6.239   2.000  11.994  0.5063 -0.1746  0.0084
 2273TIP3    H128234   6.149   2.029  12.011  0.2754 -0.7973 -0.1230
 2273TIP3    H228235   6.234   1.952  11.911  0.6187 -1.6859  0.8334
 2274TIP3   OH228236   0.238   4.773  16.121 -0.2077  0.5443 -0.8224
 2274TIP3    H128237   0.150   4.809  16.108 -0.0414  1.5997  0.6180
 2274TIP3    H228238   0.290   4.811  16.050 -0.4661  1.6820 -0.4294
 2275TIP3   OH228239   2.880   6.679  16.198  0.3660  0.7979 -0.3833
 2275TIP3    H128240   2.975   6.677  16.182  0.3457  0.9498 -0.5254
 2275TIP3    H228241   2.842   6.643  16.119  0.3745 -0.9479  0.3589
 2276TIP3   OH228242   1.683   3.375  11.843 -0.1642  0.0790 -0.4280
 2276TIP3    H128243   1.772   3.386  11.878 -1.1511 -2.5109  3.4955
 2276TIP3    H228244   1.690   3.301  11.783  0.0106 -1.8071  1.8077
 2277TIP3   OH228245   0.293   1.735  10.679  0.0788 -0.8248 -0.0124
 2277TIP3    H128246   0.357   1.793  10.638  2.4716 -3.1238  0.2397
 2277TIP3    H228247   0.216   1.741  10.623  1.0611  0.8068 -1.2660
 2278TIP3   OH228248   4.497   2.919  16.999  0.7308 -0.3010  0.0716
 2278TIP3    H128249   4.467   2.971  16.925  0.2941  0.3702  0.7104
 2278TIP3    H228250   4.529   2.838  16.959 -1.3280 -0.7967 -0.7270
 2279TIP3   OH228251   1.188   2.593  15.111  0.3848 -0.3426 -0.2678
 2279TIP3    H128252   1.109   2.635  15.077 -0.0995 -0.8130  0.2639
 2279TIP3    H228253   1.226   2.549  15.035  1.4744  1.8818 -1.0895
 2280TIP3   OH228254   0.924   5.575   0.946 -0.2570 -0.1274 -0.4975
 2280TIP3    H128255   0.859   5.522   0.900  1.0152 -0.4890 -1.9493
 2280TIP3    H228256   0.875   5.619   1.015 -1.8633 -1.0651 -1.0024
 2281TIP3   OH228257   0.475   1.172   0.797  0.2164  0.0806  0.1079
 2281TIP3    H128258   0.422   1.112   0.849 -0.9320  0.4037 -0.6557
 2281TIP3    H228259   0.543   1.117   0.758 -1.0258 -0.8174 -0.8626
 2282TIP3   OH228260   1.492   0.663  11.849 -0.1033  0.1438 -0.5622
 2282TIP3    H128261   1.422   0.643  11.786 -1.8280 -0.9729  1.5581
 2282TIP3    H228262   1.554   0.590  11.839  1.2336  1.5003 -2.9459
 2283TIP3   OH228263   0.310   4.163  16.800  0.2640 -0.2335 -0.0320
 2283TIP3    H128264   0.355   4.089  16.759  1.7672  0.4724  0.2542
 2283TIP3    H228265   0.378   4.231  16.806 -0.2221  0.1104  2.4948
 2284TIP3   OH228266   1.230   1.396  16.859  0.0602  0.3739  0.3426
 2284TIP3    H128267   1.243   1.360  16.771 -0.3864 -1.4052  0.9440
 2284TIP3    H228268   1.319   1.401  16.895  0.1037 -0.6838  0.4214
 2285TIP3   OH228269   4.334   6.613   0.914 -0.0045 -0.2795 -0.1237
 2285TIP3    H128270   4.364   6.668   0.843  1.3870 -0.0583  0.6101
 2285TIP3    H228271   4.240   6.602   0.898 -0.5088  2.8514  0.0467
 2286TIP3   OH228272   0.523   2.956   4.807 -0.5116  0.2682 -0.1107
 2286TIP3    H128273   0.464   2.896   4.762  0.2045 -0.8318  0.3792
 2286TIP3    H228274   0.492   2.958   4.897 -2.3510  2.9820 -0.6789
 2287TIP3   OH228275   1.394   2.369   0.337  0.1863 -0.2538 -0.1931
 2287TIP3    H128276   1.439   2.358   0.421  1.5126 -2.3548 -1.0949
 2287TIP3    H228277   1.306   2.400   0.361  1.1241  1.0678  1.8150
 2288TIP3   OH228278   2.527   3.799   5.201  0.2717 -0.1253 -0.2079
 2288TIP3    H128279   2.445   3.825   5.243 -0.2972  0.8781 -1.8708
 2288TIP3    H228280   2.501   3.735   5.136  0.5560  1.3185 -1.8033
 2289TIP3   OH228281   5.651   0.385   4.236  0.1409  0.2166 -0.2123
 2289TIP3    H128282   5.610   0.380   4.149 -0.3929  0.4494  0.0234
 2289TIP3    H228283   5.584   0.422   4.292 -0.4002 -2.1813  0.8504
 2290TIP3   OH228284   4.013   4.792   1.512  0.8272 -0.6720 -0.1877
 2290TIP3    H128285   4.088   4.791   1.570  1.1430  0.0042 -0.5773
 2290TIP3    H228286   4.049   4.773   1.425  0.7181  0.6112 -0.5427
 2291TIP3   OH228287   4.959   0.537   3.784  0.2543 -0.2977 -0.0056
 2291TIP3    H128288   5.029   0.476   3.807 -0.1831 -1.2442 -1.0820
 2291TIP3    H228289   5.004   0.609   3.739  0.5671 -0.7895 -0.4868
 2292TIP3   OH228290   1.061   4.202   0.482  0.1627 -0.3586  0.2990
 2292TIP3    H128291   1.144   4.180   0.441  0.4266 -0.9205  1.0947
 2292TIP3    H228292   1.062   4.297   0.491  1.3636 -0.4599  1.5790
 2293TIP3   OH228293   5.478   1.984   1.832  0.1592 -0.3819  0.2509
 2293TIP3    H128294   5.406   1.981   1.895  0.2898  0.4785  0.4559
 2293TIP3    H228295   5.557   1.991   1.885  0.4559 -1.8055  0.0428
 2294TIP3   OH228296   6.108   3.003   3.566  0.2241 -0.0509 -0.0222
 2294TIP3    H128297   6.155   2.927   3.531  1.3818  1.0617 -1.0209
 2294TIP3    H228298   6.141   3.076   3.513 -1.9150  0.9379 -0.0608
 2295TIP3   OH228299   3.089   6.369   3.388 -0.0815 -0.3814 -0.8966
 2295TIP3    H128300   3.125   6.376   3.300 -0.0253 -1.4966 -0.9716
 2295TIP3    H228301   3.163   6.341   3.443 -0.1380  0.2117 -0.5032
 2296TIP3   OH228302   1.916   5.140  14.980  0.4940  0.4510  0.1080
 2296TIP3    H128303   1.833   5.174  14.946  0.4918 -0.6842 -1.0908
 2296TIP3    H228304   1.970   5.218  14.993 -0.2197  1.0802 -0.6115
 2297TIP3   OH228305   2.831   6.030   5.789 -0.0749  0.2141 -0.5758
 2297TIP3    H128306   2.908   6.043   5.844 -0.7856  0.5804  0.3554
 2297TIP3    H228307   2.758   6.022   5.850 -0.4434 -3.1760 -1.2838
 2298TIP3   OH228308   5.173   6.305  15.299 -0.1635 -1.0125  0.3205
 2298TIP3    H128309   5.079   6.283  15.300 -0.0176 -1.6770  0.0321
 2298TIP3    H228310   5.216   6.224  15.274  0.2898 -0.0679 -2.3789
 2299TIP3   OH228311   0.071   6.623  11.216  0.0169 -0.5067 -0.0297
 2299TIP3    H128312   0.011   6.634  11.290 -0.7352 -0.8338 -0.5760
 2299TIP3    H228313   0.057   6.701  11.162 -0.8896 -1.1806 -0.8157
 2300TIP3   OH228314   4.401   2.634   3.198  0.1482 -0.0566 -0.1648
 2300TIP3    H128315   4.493   2.607   3.195 -0.4564 -2.2681 -0.6185
 2300TIP3    H228316   4.385   2.674   3.113  1.4785  3.5738  1.0758
 2301TIP3   OH228317   5.391   3.483   3.363  0.3423  0.2427 -0.7375
 2301TIP3    H128318   5.328   3.470   3.292  1.4682  1.4506 -2.0096
 2301TIP3    H228319   5.429   3.569   3.346  1.1269  0.2704  0.9695
 2302TIP3   OH228320   0.045   6.092   0.605  0.0849 -0.3947 -0.4003
 2302TIP3    H128321   0.040   6.186   0.587 -0.0579  0.2004  2.2541
 2302TIP3    H228322   0.137   6.069   0.590  0.1669  0.2110 -0.8624
 2303TIP3   OH228323   2.491   3.434   2.129 -0.4230 -0.1149  0.0526
 2303TIP3    H128324   2.535   3.500   2.076  1.5912 -0.5806  1.0397
 2303TIP3    H228325   2.533   3.351   2.103 -0.4451 -0.5271  1.2681
 2304TIP3   OH228326   3.067   0.138   1.124 -0.1271 -0.3188  0.1645
 2304TIP3    H128327   3.038   0.225   1.150  0.7065  0.2337 -0.6889
 2304TIP3    H228328   2.992   0.081   1.141 -0.8410  0.6386  0.2897
 2305TIP3   OH228329   0.544   3.711  16.523  0.1410  0.5867  0.2262
 2305TIP3    H128330   0.617   3.733  16.466  1.7349  0.8511  2.2769
 2305TIP3    H228331   0.500   3.638  16.479  2.4829 -0.5198 -0.3872
 2306TIP3   OH228332   3.734   5.478  12.671  0.0236  0.2891 -0.3108
 2306TIP3    H128333   3.762   5.563  12.636  2.4595  0.2404  1.3168
 2306TIP3    H228334   3.813   5.424  12.669 -0.8633 -1.1384  1.0506
 2307TIP3   OH228335   1.909   3.564  11.847 -0.0647  0.2042  0.6155
 2307TIP3    H128336   1.987   3.545  11.794 -0.2334  0.7161  0.1844
 2307TIP3    H228337   1.870   3.641  11.806 -0.8904 -0.1454  0.7372
 2308TIP3   OH228338   2.449   1.798   4.803 -0.1850  0.1826  0.4823
 2308TIP3    H128339   2.475   1.872   4.748 -0.5295 -0.0136  0.0460
 2308TIP3    H228340   2.503   1.725   4.770 -0.0855  0.1611  0.6900
 2309TIP3   OH228341   5.426   6.060   1.122  0.2331 -0.8760  0.1403
 2309TIP3    H128342   5.514   6.082   1.151  0.7670 -2.0511 -0.5348
 2309TIP3    H228343   5.385   6.144   1.101  1.6619 -0.4159 -0.8884
 2310TIP3   OH228344   1.539   4.200  10.683  0.3052 -0.4019  0.1517
 2310TIP3    H128345   1.469   4.180  10.621  0.8914  0.5954 -0.8764
 2310TIP3    H228346   1.617   4.212  10.629  0.5646  1.7770  0.9084
 2311TIP3   OH228347   4.583   2.718   1.894 -0.0111  0.3286  0.5619
 2311TIP3    H128348   4.519   2.735   1.826  1.5749 -1.4165 -1.5046
 2311TIP3    H228349   4.606   2.804   1.928 -0.1509  1.3658 -1.7946
 2312TIP3   OH228350   4.207   5.341  16.636  0.3240  0.2224 -0.2162
 2312TIP3    H128351   4.128   5.312  16.591  0.9551 -2.2481  0.1237
 2312TIP3    H228352   4.263   5.374  16.566  0.1056 -0.7259 -0.8673
 2313TIP3   OH228353   2.122   1.867  13.775  0.2690 -0.3009  0.4488
 2313TIP3    H128354   2.141   1.924  13.700 -0.2908 -1.1428 -0.3728
 2313TIP3    H228355   2.035   1.832  13.756  0.6261 -1.4750  0.8861
 2314TIP3   OH228356   0.262   1.745   3.122  0.2513 -0.1503  0.2315
 2314TIP3    H128357   0.242   1.826   3.167  1.0069  0.2628 -0.1591
 2314TIP3    H228358   0.354   1.753   3.096  0.0606 -0.6941 -0.6939
 2315TIP3   OH228359   3.731   1.950   5.516  0.1970  0.0909  0.3267
 2315TIP3    H128360   3.663   1.995   5.466  0.2119  0.7572  0.8933
 2315TIP3    H228361   3.706   1.962   5.608  0.4418 -0.6845  0.5056
 2316TIP3   OH228362   3.883   1.718  16.990 -0.3455  0.2321 -0.0679
 2316TIP3    H128363   3.844   1.704  17.077 -2.5488 -0.7527 -1.1216
 2316TIP3    H228364   3.866   1.636  16.944  1.9490  0.2487 -1.0606
 2317TIP3   OH228365   5.421   2.742   3.563  0.0316 -0.0913 -0.1140
 2317TIP3    H128366   5.466   2.818   3.599 -0.2282 -1.3100  3.1381
 2317TIP3    H228367   5.402   2.765   3.473  1.5460  2.9524  0.2420
 2318TIP3   OH228368   2.602   4.878  12.517 -0.4892  0.4024 -0.2813
 2318TIP3    H128369   2.536   4.872  12.449 -0.4144  2.2309 -0.5632
 2318TIP3    H228370   2.626   4.970  12.520 -0.1105  0.2994  1.8715
 2319TIP3   OH228371   3.485   4.116   5.590  0.2362 -0.4720  0.1094
 2319TIP3    H128372   3.572   4.113   5.631 -0.8661 -0.7667  2.6328
 2319TIP3    H228373   3.456   4.206   5.602  1.1613  0.3858 -3.1413
 2320TIP3   OH228374   4.658   6.466   5.055  0.0706  0.2777 -0.6050
 2320TIP3    H128375   4.681   6.455   4.962  0.8675 -1.9568 -0.2058
 2320TIP3    H228376   4.742   6.467   5.101 -0.3569 -1.2027  0.2831
 2321TIP3   OH228377   1.071   0.493   0.429 -0.0563  0.3054 -0.3936
 2321TIP3    H128378   1.154   0.539   0.418 -0.0130  0.0679 -1.0695
 2321TIP3    H228379   1.013   0.558   0.468  1.2626 -0.3606  3.0602
 2322TIP3   OH228380   0.051   3.780   1.304 -0.1170  0.0998 -0.0837
 2322TIP3    H128381   0.083   3.782   1.213 -1.8141 -0.1376 -0.7108
 2322TIP3    H228382   0.067   3.690   1.333 -1.4124 -0.3943 -0.8529
 2323TIP3   OH228383   0.335   3.483  16.563 -0.0882  0.3667 -0.0142
 2323TIP3    H128384   0.335   3.416  16.495 -0.7574 -1.5757  1.7683
 2323TIP3    H228385   0.393   3.448  16.631  0.8677  2.4045  0.3034
 2324TIP3   OH228386   5.301   4.074  12.217  0.0542  0.1238 -0.2627
 2324TIP3    H128387   5.240   4.072  12.291  0.4681  0.6723  0.0973
 2324TIP3    H228388   5.311   4.167  12.196  0.4702  0.0147 -0.5724
 2325TIP3   OH228389   2.048   4.966  14.810 -0.5479 -0.1930 -0.7685
 2325TIP3    H128390   1.988   5.008  14.871  0.8453 -0.1037  0.5847
 2325TIP3    H228391   2.122   5.026  14.803 -0.1087 -0.7988 -1.5726
 2326TIP3   OH228392   4.659   2.743  14.451 -0.0232 -0.4031 -0.1219
 2326TIP3    H128393   4.631   2.759  14.361 -1.3081  2.3629  0.6719
 2326TIP3    H228394   4.578   2.723  14.498  0.3655  0.0576  0.7608
 2327TIP3   OH228395   3.747   1.163   2.985  0.3753 -0.2877 -0.1069
 2327TIP3    H128396   3.684   1.229   3.013  0.0571 -1.4090  2.0366
 2327TIP3    H228397   3.803   1.208   2.923  0.5412  2.1851  1.7044
 2328TIP3   OH228398   2.254   0.012  16.319 -0.3370 -0.1591 -0.1851
 2328TIP3    H128399   2.346   0.028  16.343 -0.8390 -0.2979  2.0889
 2328TIP3    H228400   2.249   0.037  16.227  2.5302 -2.4204 -1.1227
 2329TIP3   OH228401   4.299   3.106   5.098  0.1412  0.3101  0.2078
 2329TIP3    H128402   4.355   3.031   5.116 -1.0109 -0.2473  1.6993
 2329TIP3    H228403   4.308   3.162   5.175 -0.2591  0.8936 -0.1620
 2330TIP3   OH228404   0.067   5.278   0.649 -0.4365 -0.5009  0.3330
 2330TIP3    H128405  -0.002   5.212   0.653 -0.1542 -0.7880  0.4130
 2330TIP3    H228406   0.048   5.327   0.569  0.1693 -1.5736 -0.4922
 2331TIP3   OH228407   4.616   3.333  13.976  0.1259 -0.6324  0.1704
 2331TIP3    H128408   4.570   3.250  13.967  0.0354 -0.7050  1.1144
 2331TIP3    H228409   4.566   3.380  14.044  1.0830 -0.4661  0.7719
 2332TIP3   OH228410   0.240   3.140   0.959  0.3235  0.0756  0.2333
 2332TIP3    H128411   0.153   3.132   0.996  1.3579 -0.6835  2.7215
 2332TIP3    H228412   0.251   3.233   0.942 -1.1735  0.1041 -0.7788
 2333TIP3   OH228413   4.730   2.628   4.984 -0.1921  0.3504 -0.1926
 2333TIP3    H128414   4.653   2.579   5.012 -0.8887  0.4497 -1.8562
 2333TIP3    H228415   4.738   2.699   5.048 -0.2783 -0.8056  1.1454
 2334TIP3   OH228416   0.750   3.108   5.327  0.8288  0.2346 -0.5558
 2334TIP3    H128417   0.845   3.101   5.315  0.8245 -0.2206 -0.3370
 2334TIP3    H228418   0.738   3.119   5.422  0.6476 -0.0393 -0.5441
 2335TIP3   OH228419   4.118   2.152   3.861 -0.1066 -0.3250  0.5728
 2335TIP3    H128420   4.197   2.099   3.847  0.0011 -0.5673  1.9043
 2335TIP3    H228421   4.047   2.088   3.865 -0.1018 -0.3043  1.2202
 2336TIP3   OH228422   1.971   4.266   1.274 -0.0749  0.1833  0.9724
 2336TIP3    H128423   1.928   4.321   1.340 -0.8791  0.9371 -0.1593
 2336TIP3    H228424   1.911   4.193   1.262  0.5047 -0.4339  1.7158
 2337TIP3   OH228425   2.120   5.647  11.813  0.0833  0.4940  0.0026
 2337TIP3    H128426   2.158   5.623  11.898  0.6489  1.0664 -0.0816
 2337TIP3    H228427   2.175   5.719  11.782 -0.9935  1.2616 -0.1856
 2338TIP3   OH228428   3.320   2.650   2.482 -0.1039 -0.2839 -0.0341
 2338TIP3    H128429   3.315   2.732   2.530 -2.0464  1.0759 -2.3290
 2338TIP3    H228430   3.253   2.594   2.523  0.1191 -0.1407  0.5282
 2339TIP3   OH228431   1.022   1.688  12.165  0.2918  0.0110  0.4990
 2339TIP3    H128432   0.937   1.691  12.208  0.8632 -0.2528  1.6793
 2339TIP3    H228433   1.024   1.604  12.119 -0.2533  0.2242  0.0701
 2340TIP3   OH228434   3.385   2.321  11.790  0.6068 -0.0769 -0.4674
 2340TIP3    H128435   3.407   2.262  11.862 -0.8246  2.6229  2.4199
 2340TIP3    H228436   3.292   2.304  11.774  1.1147 -1.3001 -2.4600
 2341TIP3   OH228437   1.795   4.081   1.186  0.1620 -0.4363  0.2024
 2341TIP3    H128438   1.767   4.004   1.236 -2.3140  1.7367  2.5241
 2341TIP3    H228439   1.718   4.138   1.187  1.0363  1.0684 -3.6500
 2342TIP3   OH228440   6.122   4.873  13.163  0.6881  0.5464  0.6225
 2342TIP3    H128441   6.046   4.836  13.208  0.3571  2.3977  1.6809
 2342TIP3    H228442   6.196   4.827  13.200  0.2961  0.9619  1.9792
 2343TIP3   OH228443   4.474   2.916  14.980  0.7270  0.1941 -0.2372
 2343TIP3    H128444   4.393   2.962  15.004  1.6087  2.3524 -1.1465
 2343TIP3    H228445   4.541   2.955  15.037  1.3964 -0.5049 -0.5267
 2344TIP3   OH228446   1.297   2.219  12.620 -0.4851 -0.2970  0.4485
 2344TIP3    H128447   1.371   2.206  12.561 -0.9780 -0.0779 -0.2235
 2344TIP3    H228448   1.336   2.215  12.708  0.1283 -1.5022  0.1555
 2345TIP3   OH228449   2.285   5.292   6.105  0.2799  0.1811  0.0988
 2345TIP3    H128450   2.280   5.249   6.020  1.2852  1.5707 -0.7062
 2345TIP3    H228451   2.347   5.238   6.155  0.1567 -0.2997 -0.2576
 2346TIP3   OH228452   0.527   0.405   0.396  0.1139 -0.3005  0.5565
 2346TIP3    H128453   0.487   0.443   0.474  0.5501  3.0135 -0.7041
 2346TIP3    H228454   0.454   0.392   0.336  0.1172 -0.3403  0.5611
 2347TIP3   OH228455   5.272   1.531   0.289 -0.1045 -0.0170 -0.5118
 2347TIP3    H128456   5.328   1.457   0.264  0.2657  0.0539  0.0859
 2347TIP3    H228457   5.186   1.493   0.302  0.1315 -0.3783 -0.0080
 2348TIP3   OH228458   5.937   6.403   5.731 -0.0804  0.1805  0.3482
 2348TIP3    H128459   5.956   6.417   5.824  1.6607  0.2525  0.0141
 2348TIP3    H228460   6.001   6.337   5.704 -0.0566  0.7179 -0.9746
 2349TIP3   OH228461   5.370   3.432  11.092 -0.2766 -0.0222 -0.6109
 2349TIP3    H128462   5.328   3.382  11.161 -0.4674  0.9526  0.0046
 2349TIP3    H228463   5.302   3.444  11.026 -0.6334  0.5429 -0.1528
 2350TIP3   OH228464   1.895   0.633  15.592  0.5399  0.0267  0.3606
 2350TIP3    H128465   1.973   0.586  15.561 -0.5354  0.0481 -2.6344
 2350TIP3    H228466   1.853   0.573  15.653  1.8914 -0.7353  0.5774
 2351TIP3   OH228467   1.914   3.517   3.758 -0.0981 -1.0711  0.3875
 2351TIP3    H128468   1.819   3.523   3.748  0.0252 -1.7201 -1.7685
 2351TIP3    H228469   1.942   3.608   3.771 -1.0847 -1.0036  2.3231
 2352TIP3   OH228470   6.753   6.087  15.613  0.4418  0.0505 -0.4302
 2352TIP3    H128471   6.681   6.089  15.676 -0.1332  0.9752 -1.0912
 2352TIP3    H228472   6.716   6.045  15.535  0.7215  0.2076 -0.6497
 2353TIP3   OH228473   5.487   3.860   4.948 -0.0741 -0.6690 -0.2901
 2353TIP3    H128474   5.484   3.784   4.891 -0.4915 -2.7814  2.3561
 2353TIP3    H228475   5.446   3.831   5.030  0.0691  2.3015  0.9908
 2354TIP3   OH228476   3.705   2.597  16.784  0.8025  0.2188 -0.5557
 2354TIP3    H128477   3.665   2.634  16.863 -0.4079  1.1445 -1.5513
 2354TIP3    H228478   3.729   2.508  16.809  0.5748  0.5344  0.8905
 2355TIP3   OH228479   5.512   5.968   4.622  0.1208  0.0068  0.3309
 2355TIP3    H128480   5.556   5.931   4.546  0.7408 -0.0427  0.7053
 2355TIP3    H228481   5.425   5.992   4.591  1.2559  2.6345 -1.1878
 2356TIP3   OH228482   3.443   3.227  11.228  0.5083  0.2304  0.0567
 2356TIP3    H128483   3.418   3.135  11.216  0.6784  0.1175  0.5202
 2356TIP3    H228484   3.397   3.274  11.160 -1.0512  0.0465  0.9465
 2357TIP3   OH228485   4.695   3.583   2.057  0.3710  0.1575  0.9453
 2357TIP3    H128486   4.723   3.617   2.142  0.9041  1.9036  0.1220
 2357TIP3    H228487   4.658   3.660   2.012  0.0992 -0.7301 -0.3998
 2358TIP3   OH228488   3.705   0.078  14.067  0.1141  0.0052 -0.2191
 2358TIP3    H128489   3.664   0.095  13.982  0.1651  1.3685  0.0147
 2358TIP3    H228490   3.727  -0.015  14.064 -0.4454 -0.1096 -1.4548
 2359TIP3   OH228491   6.444   1.350   1.546  0.1879 -0.1180 -0.3149
 2359TIP3    H128492   6.492   1.413   1.598 -1.5319  1.4996 -0.5836
 2359TIP3    H228493   6.510   1.288   1.515  1.5105 -0.1596  2.3290
 2360TIP3   OH228494   6.099   1.499  15.767 -0.1391 -0.3666  0.0762
 2360TIP3    H128495   6.076   1.460  15.682 -0.0814 -0.1287 -0.0476
 2360TIP3    H228496   6.110   1.424  15.825 -0.5140 -0.5129 -0.0434
 2361TIP3   OH228497   0.505   4.661  13.274 -0.0490  0.1642 -0.3237
 2361TIP3    H128498   0.460   4.738  13.239 -2.9687 -1.0841  0.4116
 2361TIP3    H228499   0.465   4.587  13.229  1.0734 -1.0829  0.6366
 2362TIP3   OH228500   2.241   3.911  15.680 -0.5832  0.3457 -0.2680
 2362TIP3    H128501   2.314   3.855  15.654 -0.5347 -0.5988  1.7514
 2362TIP3    H228502   2.252   3.991  15.627  0.1310 -0.9609 -2.1935
 2363TIP3   OH228503   5.840   1.118   4.562  0.2915  0.1522  0.0728
 2363TIP3    H128504   5.748   1.140   4.554  0.8421  2.7143  0.0556
 2363TIP3    H228505   5.857   1.058   4.489 -1.1531  0.3690 -0.4707
 2364TIP3   OH228506   1.689   4.545   2.757  0.5639  0.1520  0.4330
 2364TIP3    H128507   1.679   4.558   2.662  1.5848  0.0562  0.3012
 2364TIP3    H228508   1.781   4.523   2.768  0.3064 -0.4742  1.3897
 2365TIP3   OH228509   1.296   2.818  14.348 -0.3129  0.2520 -0.1835
 2365TIP3    H128510   1.320   2.911  14.342  0.1565  0.0692 -1.2457
 2365TIP3    H228511   1.348   2.775  14.280  0.3497 -0.9764  1.0448
 2366TIP3   OH228512   4.438   0.263  11.057  0.5004 -0.9786 -0.3640
 2366TIP3    H128513   4.347   0.274  11.086  0.8068  2.2982 -0.2209
 2366TIP3    H228514   4.436   0.286  10.964  1.0194 -2.0949 -0.6639
 2367TIP3   OH228515   5.081   4.862   2.466  0.4145 -0.1384 -0.4809
 2367TIP3    H128516   5.095   4.956   2.480 -0.0336 -0.1156 -0.1940
 2367TIP3    H228517   5.124   4.820   2.541  1.1175 -0.1968 -0.9073
 2368TIP3   OH228518   2.746   3.561   3.353 -0.3671  0.0242 -0.8447
 2368TIP3    H128519   2.705   3.483   3.314  0.3537  0.6194 -2.9482
 2368TIP3    H228520   2.674   3.625   3.358 -2.0354 -1.7475  4.5666
 2369TIP3   OH228521   2.540   5.139   3.324 -0.1862 -0.9095 -0.2285
 2369TIP3    H128522   2.503   5.051   3.316 -3.8683  0.2882  1.2303
 2369TIP3    H228523   2.482   5.194   3.271  1.3023  0.8128 -0.1607
 2370TIP3   OH228524   3.041   3.481   2.630  0.7317 -0.1572  0.5091
 2370TIP3    H128525   2.967   3.517   2.679 -0.0303 -1.1901  0.1307
 2370TIP3    H228526   3.040   3.528   2.547 -1.6122 -2.4635 -0.8920
 2371TIP3   OH228527   6.541   4.600  16.568 -0.6184  0.2514  0.2098
 2371TIP3    H128528   6.504   4.626  16.483 -0.2872 -0.9063 -0.3106
 2371TIP3    H228529   6.480   4.634  16.633  0.0845  2.8338 -0.3720
 2372TIP3   OH228530   5.727   5.286  14.817 -0.0959 -0.4549  0.2066
 2372TIP3    H128531   5.746   5.297  14.724  0.0024 -0.0244  0.2775
 2372TIP3    H228532   5.812   5.267  14.857 -0.0742 -0.2208  0.2715
 2373TIP3   OH228533   6.250   6.548   3.321  0.5630  0.2003  0.0081
 2373TIP3    H128534   6.341   6.578   3.321 -0.0267  2.1492  0.4637
 2373TIP3    H228535   6.221   6.560   3.412 -0.8458  2.0048 -0.6248
 2374TIP3   OH228536   1.059   5.927  13.356  0.4463  0.2248  0.5262
 2374TIP3    H128537   1.010   5.944  13.436 -1.2514  1.7044 -0.7283
 2374TIP3    H228538   1.149   5.950  13.377 -0.3100  2.6202  1.4577
 2375TIP3   OH228539   3.337   5.269  12.110  0.6679  0.0259 -0.3570
 2375TIP3    H128540   3.347   5.311  12.195 -2.1819 -0.3460  0.2535
 2375TIP3    H228541   3.371   5.180  12.122  0.9070  0.1918  0.1843
 2376TIP3   OH228542   1.659   0.907  16.046 -0.2173  0.2742  0.3219
 2376TIP3    H128543   1.584   0.859  16.082  1.4105 -2.0513  0.8497
 2376TIP3    H228544   1.691   0.959  16.120  0.3397 -0.9420  0.9849
 2377TIP3   OH228545   3.988   0.881  14.841 -0.0471  0.2827 -0.6113
 2377TIP3    H128546   4.036   0.953  14.883  1.1749 -1.1692  0.5671
 2377TIP3    H228547   3.897   0.911  14.839  0.0769  1.0032  1.8111
 2378TIP3   OH228548   5.799   1.840  11.319  0.0510  0.2709 -0.1630
 2378TIP3    H128549   5.828   1.749  11.316  0.9339  0.5175  0.5088
 2378TIP3    H228550   5.727   1.845  11.256  0.6832 -0.6537 -0.9756
 2379TIP3   OH228551   6.620   5.831   2.341  0.2130  0.8804  0.0682
 2379TIP3    H128552   6.565   5.757   2.366 -0.1374  1.0258 -0.2654
 2379TIP3    H228553   6.613   5.835   2.245  0.9424  0.7950  0.0021
 2380TIP3   OH228554   1.018   3.265   0.627 -0.0997  0.2413 -0.5717
 2380TIP3    H128555   1.043   3.357   0.623  0.7102  0.0187 -0.7660
 2380TIP3    H228556   1.100   3.217   0.618 -0.3358 -0.4953  0.8268
 2381TIP3   OH228557   5.263   3.004   4.281  0.1998 -0.0340 -1.0931
 2381TIP3    H128558   5.344   2.985   4.329  0.3974  1.2251 -0.8966
 2381TIP3    H228559   5.195   3.005   4.347  0.4029  1.2431 -0.8720
 2382TIP3   OH228560   0.250   2.893  17.182 -0.0915  0.0093  0.5952
 2382TIP3    H128561   0.316   2.957  17.209 -0.1293 -0.4934  1.9721
 2382TIP3    H228562   0.297   2.833  17.124  0.5142 -0.0003  1.0905
 2383TIP3   OH228563   1.569   2.865  10.996  0.6560  0.0095 -0.0315
 2383TIP3    H128564   1.594   2.957  10.992  1.0437 -0.1197 -0.6495
 2383TIP3    H228565   1.623   2.822  10.929  0.0030 -0.5518 -0.2143
 2384TIP3   OH228566   0.460   2.890  14.171  0.5747 -0.3792 -0.0919
 2384TIP3    H128567   0.545   2.933  14.180  0.3521  0.0819 -0.1600
 2384TIP3    H228568   0.407   2.926  14.243  0.1152  0.1284 -0.6715
 2385TIP3   OH228569   2.392   3.146   5.874  0.0250  0.4524 -0.0503
 2385TIP3    H128570   2.404   3.072   5.934 -0.4987  0.3521 -0.0679
 2385TIP3    H228571   2.471   3.145   5.820 -1.3439 -2.1129 -2.2362
 2386TIP3   OH228572   0.331   4.153   6.404 -0.0590 -0.6426 -0.0954
 2386TIP3    H128573   0.317   4.150   6.499 -0.5411 -1.3844 -0.1855
 2386TIP3    H228574   0.350   4.245   6.386 -0.8896 -0.3199  0.5953
 2387TIP3   OH228575   2.278   4.394  16.884  0.3120  0.3031 -0.2383
 2387TIP3    H128576   2.286   4.347  16.967  3.9134 -0.4852 -0.8834
 2387TIP3    H228577   2.249   4.328  16.822 -0.0816  0.3162 -0.0709
 2388TIP3   OH228578   4.948   0.334   2.742  0.0775  0.6240  0.3327
 2388TIP3    H128579   4.922   0.424   2.761 -0.3184  0.4633  0.5745
 2388TIP3    H228580   4.875   0.281   2.774  1.2562  0.0581  2.2030
 2389TIP3   OH228581   6.664   3.635  15.410  0.2472  0.4371  0.4394
 2389TIP3    H128582   6.681   3.664  15.321  0.2638  1.2294  0.6971
 2389TIP3    H228583   6.748   3.646  15.455 -0.1744  1.6438  0.9783
 2390TIP3   OH228584   6.706   3.735   1.746 -0.3367 -0.2527  0.0077
 2390TIP3    H128585   6.783   3.783   1.778 -0.6783  0.8931 -0.8284
 2390TIP3    H228586   6.732   3.643   1.751  0.1341 -0.0732  2.2182
 2391TIP3   OH228587   5.888   0.295   3.288 -0.9384  0.4789 -0.2376
 2391TIP3    H128588   5.872   0.202   3.305 -0.3896  0.0543 -1.8239
 2391TIP3    H228589   5.887   0.302   3.192 -0.9793  2.1170 -0.1458
 2392TIP3   OH228590   4.451   4.613  11.726  0.6448 -0.7116  0.3700
 2392TIP3    H128591   4.498   4.530  11.727 -0.1271 -1.1650  0.2189
 2392TIP3    H228592   4.425   4.625  11.634 -0.7810 -1.2135  0.6805
 2393TIP3   OH228593   3.018   1.642   0.594 -0.3896 -0.5267 -0.1817
 2393TIP3    H128594   3.010   1.635   0.689  1.8357 -2.1561 -0.0399
 2393TIP3    H228595   3.095   1.696   0.580  0.2223 -1.5742 -1.0076
 2394TIP3   OH228596   2.174   0.375   3.734  0.0155 -0.2984 -0.9422
 2394TIP3    H128597   2.191   0.436   3.662 -0.6048  3.2376  1.6460
 2394TIP3    H228598   2.083   0.350   3.724 -0.7662  2.0202 -0.2596
 2395TIP3   OH228599   0.279   0.760   3.228 -0.4458 -0.4319 -0.0647
 2395TIP3    H128600   0.350   0.799   3.176  2.2351 -1.7790  2.3005
 2395TIP3    H228601   0.240   0.834   3.274  0.3895  0.1784 -0.3127
 2396TIP3   OH228602   0.962   5.401   3.509 -0.1100 -0.4703 -0.5913
 2396TIP3    H128603   0.893   5.426   3.447 -1.4871 -1.6258  0.4040
 2396TIP3    H228604   0.935   5.315   3.540  0.8979 -0.2018  1.1078
 2397TIP3   OH228605   2.354   1.364   0.830  0.4634 -0.9685 -0.0669
 2397TIP3    H128606   2.348   1.285   0.883 -0.7835 -0.4561  0.5950
 2397TIP3    H228607   2.367   1.332   0.740  1.7760 -1.8611  0.4136
 2398TIP3   OH228608   3.279   4.535  12.552  0.3861  0.1415 -0.2854
 2398TIP3    H128609   3.238   4.620  12.568  1.3718  0.8463 -1.3886
 2398TIP3    H228610   3.322   4.513  12.635 -2.5958 -0.9096  1.1359
 2399TIP3   OH228611   2.087   1.228   6.066  0.0082 -0.0058  0.5227
 2399TIP3    H128612   2.176   1.264   6.070  0.1501 -0.3398  0.4206
 2399TIP3    H228613   2.036   1.282   6.127  0.5127 -0.4691  1.3723
 2400TIP3   OH228614   3.479   0.056   4.060 -0.0271  0.9400 -0.1179
 2400TIP3    H128615   3.437   0.117   4.000 -2.8599  0.8585  1.6412
 2400TIP3    H228616   3.450  -0.030   4.030  1.5428  0.5799 -0.7606
 2401TIP3   OH228617   2.407   5.377  13.317  0.1397 -0.3071  0.5217
 2401TIP3    H128618   2.404   5.357  13.223 -1.7347  0.9934  0.2352
 2401TIP3    H228619   2.338   5.323  13.355 -0.9742  1.1303  0.6576
 2402TIP3   OH228620   4.023   6.088   0.287 -1.1446  0.0548 -0.4496
 2402TIP3    H128621   3.935   6.106   0.254 -0.4740  0.6767 -1.9622
 2402TIP3    H228622   4.068   6.045   0.215  0.3008  1.2666 -0.3261
 2403TIP3   OH228623   1.548   2.618   1.837  0.4170 -0.7769  0.4248
 2403TIP3    H128624   1.468   2.652   1.797  0.3837 -1.1604  0.1613
 2403TIP3    H228625   1.616   2.679   1.809 -0.0464  0.5871  2.1076
 2404TIP3   OH228626   0.306   1.285  10.694  0.4376 -0.1661 -0.0944
 2404TIP3    H128627   0.348   1.214  10.645  0.9517 -0.4203  0.6953
 2404TIP3    H228628   0.213   1.263  10.692  0.5395 -0.5947 -0.2886
 2405TIP3   OH228629   6.325   1.140  14.616  0.4390  0.1886  0.2131
 2405TIP3    H128630   6.386   1.210  14.595 -1.2390  2.0626  1.3096
 2405TIP3    H228631   6.238   1.178  14.602 -0.5537 -1.2727  1.9127
 2406TIP3   OH228632   1.443   6.394   0.692 -0.4207 -0.7100  0.3414
 2406TIP3    H128633   1.534   6.403   0.663 -1.4098 -0.7321 -3.2015
 2406TIP3    H228634   1.421   6.478   0.731  0.8828 -0.4498  0.5521
 2407TIP3   OH228635   0.316   0.747   4.478  0.0212  0.4184  0.3698
 2407TIP3    H128636   0.295   0.838   4.496  0.4905  0.6972 -0.4407
 2407TIP3    H228637   0.231   0.704   4.467 -0.1818  0.9854 -0.3138
 2408TIP3   OH228638   5.061   6.109  14.095 -0.5365  0.6859  0.2515
 2408TIP3    H128639   5.014   6.187  14.065 -2.6163  0.1214  1.8403
 2408TIP3    H228640   5.124   6.091  14.025 -2.9786  1.2591 -2.2835
 2409TIP3   OH228641   6.266   3.508   1.632  0.0758  0.5090  0.1072
 2409TIP3    H128642   6.257   3.436   1.570 -0.5183  0.9163 -0.2902
 2409TIP3    H228643   6.360   3.527   1.632 -0.1037  1.8638 -2.2895
 2410TIP3   OH228644   6.547   3.469   0.922  0.3172  0.4343  0.5807
 2410TIP3    H128645   6.452   3.467   0.926  0.3052 -0.2365  0.1397
 2410TIP3    H228646   6.572   3.538   0.983 -0.4842  1.3515 -0.1086
 2411TIP3   OH228647   4.251   1.372  14.932  0.1861 -0.1458 -0.0405
 2411TIP3    H128648   4.280   1.373  15.023 -1.2784  0.2709  0.4602
 2411TIP3    H228649   4.259   1.281  14.905 -0.3415 -0.4636  0.8472
 2412TIP3   OH228650   1.926   5.741   0.111 -0.3465 -0.1142 -0.0056
 2412TIP3    H128651   1.871   5.758   0.035  0.6744  0.4547 -0.6342
 2412TIP3    H228652   1.939   5.826   0.152  0.7337 -0.1021 -0.3406
 2413TIP3   OH228653   3.270   1.675  11.920  0.4110  0.1392  0.0244
 2413TIP3    H128654   3.270   1.765  11.887  0.0282  0.3010  0.4491
 2413TIP3    H228655   3.280   1.620  11.842  1.9880  0.5889 -0.1158
 2414TIP3   OH228656   2.011   3.043   3.607  0.1468  0.5013  0.2203
 2414TIP3    H128657   1.955   3.119   3.622  0.2885  0.4426  1.1328
 2414TIP3    H228658   2.014   2.998   3.692  1.1147  0.1996  0.0430
 2415TIP3   OH228659   5.061   5.527   4.662 -0.4332 -0.4309 -0.1087
 2415TIP3    H128660   5.086   5.617   4.642  4.4874 -1.7045 -1.0544
 2415TIP3    H228661   5.039   5.488   4.578  3.0556 -1.3485 -0.7580
 2416TIP3   OH228662   4.503   2.034   1.947 -0.4198 -0.3229 -0.2532
 2416TIP3    H128663   4.506   1.951   1.898 -0.5536  0.0750 -0.9519
 2416TIP3    H228664   4.568   2.090   1.903 -0.9863  0.2547 -0.3667
 2417TIP3   OH228665   2.244   0.059   2.269  0.9262 -0.4129 -0.1236
 2417TIP3    H128666   2.291   0.003   2.208 -0.2080 -0.9578 -0.5189
 2417TIP3    H228667   2.184   0.000   2.316 -1.6056  0.6491 -1.8181
 2418TIP3   OH228668   4.696   0.695  17.119 -0.2637  0.0116 -0.2178
 2418TIP3    H128669   4.620   0.677  17.065 -0.5473  2.0068 -0.5664
 2418TIP3    H228670   4.745   0.762  17.071 -0.3253  1.5754  1.7661
 2419TIP3   OH228671   3.692   4.752   2.933  0.7466  0.1720  0.0286
 2419TIP3    H128672   3.620   4.693   2.952 -0.8665  2.1486  0.3759
 2419TIP3    H228673   3.657   4.813   2.868  2.3048  0.8013 -0.2633
 2420TIP3   OH228674   6.650   6.707  16.715  0.7830  0.4721 -0.0241
 2420TIP3    H128675   6.621   6.719  16.624 -1.4134  0.2074  0.5758
 2420TIP3    H228676   6.741   6.737  16.716  0.8969  0.3554 -2.3300
 2421TIP3   OH228677   0.069   4.391  12.463  0.1490  0.5478  0.1656
 2421TIP3    H128678   0.070   4.386  12.368 -0.9625 -0.0295  0.1646
 2421TIP3    H228679   0.161   4.390  12.489  0.4393 -0.5381 -0.8466
 2422TIP3   OH228680   5.592   1.611  12.849 -0.0429  0.3725  0.0917
 2422TIP3    H128681   5.626   1.657  12.926  0.5764  0.5706 -0.2888
 2422TIP3    H228682   5.551   1.532  12.883  2.8946 -1.1495  0.4523
 2423TIP3   OH228683   4.672   0.911  11.802  0.0665  0.3708  0.3788
 2423TIP3    H128684   4.657   0.986  11.744 -0.1117  0.6579  0.7961
 2423TIP3    H228685   4.763   0.886  11.785 -0.0876  0.2299 -0.2839
 2424TIP3   OH228686   1.984   2.096  11.293  0.0402 -0.2398  0.0135
 2424TIP3    H128687   1.955   2.186  11.276  0.0466 -0.3297 -0.5025
 2424TIP3    H228688   2.050   2.079  11.225  0.0103 -0.6450  0.0829
 2425TIP3   OH228689   1.156   0.549  11.417 -0.3575 -0.1894  0.0160
 2425TIP3    H128690   1.168   0.477  11.355 -1.6477 -1.3336  1.0428
 2425TIP3    H228691   1.098   0.514  11.485 -0.1835  1.4900  1.1060
 2426TIP3   OH228692   1.274   5.701  15.070  0.2119  0.1751 -0.0908
 2426TIP3    H128693   1.291   5.705  14.976  2.0512 -2.1325  0.0507
 2426TIP3    H228694   1.308   5.783  15.104 -0.4599  1.0344 -1.4084
 2427TIP3   OH228695   3.200   0.250  13.140 -0.2155  0.9132 -0.0422
 2427TIP3    H128696   3.236   0.271  13.054 -0.2348  0.9719 -0.0353
 2427TIP3    H228697   3.278   0.243  13.197 -0.0348 -0.9509 -0.4480
 2428TIP3   OH228698   4.731   1.613   3.744 -0.5174 -0.3744  0.6856
 2428TIP3    H128699   4.738   1.659   3.660 -0.0269 -0.0288  0.9092
 2428TIP3    H228700   4.749   1.681   3.810  0.4890 -0.9385  1.0095
 2429TIP3   OH228701   2.392   2.734  13.834 -0.2287 -0.0970 -0.4176
 2429TIP3    H128702   2.397   2.828  13.850  0.6587 -0.3234  0.7724
 2429TIP3    H228703   2.361   2.697  13.917  0.2154 -0.9261 -0.6115
 2430TIP3   OH228704   2.010   0.921  15.629  0.1862 -0.2262 -0.7077
 2430TIP3    H128705   1.971   0.952  15.547 -0.0699  2.3689  0.2898
 2430TIP3    H228706   1.981   0.830  15.637 -2.3375  0.3634 -2.0068
 2431TIP3   OH228707   0.452   4.326   2.289 -0.8821 -0.1803  0.0932
 2431TIP3    H128708   0.479   4.350   2.200  0.7737 -0.8390  0.3637
 2431TIP3    H228709   0.476   4.233   2.296 -1.5747 -0.3000  1.0274
 2432TIP3   OH228710   2.276   5.231   0.810  0.8482 -0.2252 -0.1549
 2432TIP3    H128711   2.185   5.216   0.833  0.7732 -1.7333 -1.2802
 2432TIP3    H228712   2.304   5.150   0.766  2.6549  0.2820 -0.0412
 2433TIP3   OH228713   1.396   1.815  14.793 -0.3785  0.0786 -0.7507
 2433TIP3    H128714   1.466   1.756  14.820  0.3051 -0.1500 -2.8809
 2433TIP3    H228715   1.344   1.764  14.731 -1.1981  0.9423 -0.7962
 2434TIP3   OH228716   0.708   0.259  13.896  0.0358  0.1814  0.0379
 2434TIP3    H128717   0.653   0.225  13.967 -0.5773 -0.7753 -0.8502
 2434TIP3    H228718   0.707   0.354  13.908  0.0013  0.0334  1.3363
 2435TIP3   OH228719   0.605   4.102  16.280  0.0213 -0.2976 -0.0877
 2435TIP3    H128720   0.578   4.167  16.215 -2.0455 -0.1904  0.8016
 2435TIP3    H228721   0.527   4.049  16.296  0.8035 -1.0783  1.4318
 2436TIP3   OH228722   6.570   4.960  16.465  0.6627 -0.2906  0.0817
 2436TIP3    H128723   6.496   5.006  16.504  1.7298  0.6276  1.0991
 2436TIP3    H228724   6.534   4.877  16.433 -0.9291  0.4583 -0.1156
 2437TIP3   OH228725   4.848   5.290   1.475  0.2632  0.1354  0.0760
 2437TIP3    H128726   4.911   5.222   1.500  1.2237  0.6777 -0.8004
 2437TIP3    H228727   4.763   5.246   1.478  0.9098 -1.2724 -1.0072
 2438TIP3   OH228728   1.273   4.702  13.036  0.3705  0.2210 -0.0538
 2438TIP3    H128729   1.294   4.690  12.944  0.7012 -0.6953  0.1349
 2438TIP3    H228730   1.207   4.771  13.036 -1.1682 -1.1760 -1.1581
 2439TIP3   OH228731   6.656   1.796  16.836 -0.4140  0.5665 -0.1648
 2439TIP3    H128732   6.703   1.715  16.817 -1.8660 -0.0156 -1.5384
 2439TIP3    H228733   6.678   1.816  16.927 -0.2020 -1.5044  0.2864
 2440TIP3   OH228734   0.778   0.985  11.513  0.5103 -0.1826  0.2146
 2440TIP3    H128735   0.814   0.913  11.461 -1.2047 -0.9777  0.0623
 2440TIP3    H228736   0.727   1.037  11.450 -0.8678 -0.6599  0.8882
 2441TIP3   OH228737   1.183   4.682   0.757 -0.6081  0.2912 -0.1250
 2441TIP3    H128738   1.215   4.736   0.684 -2.1308  1.4630  0.0068
 2441TIP3    H228739   1.109   4.634   0.720 -1.2792  0.7587  0.5710
 2442TIP3   OH228740   0.865   3.888  12.178 -0.1123  0.3627  0.3631
 2442TIP3    H128741   0.960   3.881  12.179 -0.1879 -0.6454  0.9505
 2442TIP3    H228742   0.846   3.938  12.098  0.9160  0.8400  0.4065
 2443TIP3   OH228743   0.470   2.841  13.422  1.0367 -0.3519  0.4501
 2443TIP3    H128744   0.389   2.809  13.381  1.2070  1.7456 -1.7513
 2443TIP3    H228745   0.534   2.840  13.350  1.9019  1.6470  1.1347
 2444TIP3   OH228746   2.110   6.206  11.156 -0.0557 -0.0614 -0.1057
 2444TIP3    H128747   2.158   6.277  11.113  1.7998 -0.8336  0.5732
 2444TIP3    H228748   2.166   6.129  11.144 -0.7845 -0.8631  1.3566
 2445TIP3   OH228749   6.020   6.576   4.961 -0.2668 -0.2260  0.4870
 2445TIP3    H128750   5.939   6.592   4.913 -0.0823  0.3810  0.3722
 2445TIP3    H228751   6.065   6.509   4.910  0.6891  1.5721 -1.1175
 2446TIP3   OH228752   2.668   6.682  13.233  0.6199 -0.4163 -0.5830
 2446TIP3    H128753   2.746   6.733  13.211  0.1254  1.3734  1.4915
 2446TIP3    H228754   2.701   6.605  13.278  1.2249  0.1700 -0.0035
 2447TIP3   OH228755   4.276   6.170  11.875 -0.5551 -0.2346 -0.3554
 2447TIP3    H128756   4.302   6.261  11.859  3.6216 -1.2243 -0.2675
 2447TIP3    H228757   4.232   6.173  11.960  0.5071  1.5954  0.1959
 2448TIP3   OH228758   0.279   0.025  16.355 -0.3741 -0.2488 -0.0364
 2448TIP3    H128759   0.302  -0.014  16.439 -0.1263  1.1048  0.5589
 2448TIP3    H228760   0.342   0.096  16.344 -1.0886  0.2836 -0.8365
 2449TIP3   OH228761   2.108   3.263   0.361  0.1042 -0.2228  0.1690
 2449TIP3    H128762   2.054   3.184   0.367 -0.3661  0.0621 -0.2413
 2449TIP3    H228763   2.183   3.245   0.418 -0.0059 -0.9568  0.0953
 2450TIP3   OH228764   2.329   2.782   3.677 -0.7629 -0.1632  0.2187
 2450TIP3    H128765   2.296   2.788   3.588  0.2619 -1.1017 -0.2491
 2450TIP3    H228766   2.417   2.820   3.673 -1.3098  1.2796  1.1960
 2451TIP3   OH228767   3.114   1.418  17.196 -0.1336  0.0713 -0.5556
 2451TIP3    H128768   3.022   1.439  17.211  0.1361  1.6705 -0.9962
 2451TIP3    H228769   3.140   1.365  17.271 -0.4623  2.6506  1.5211
 2452TIP3   OH228770   6.383   4.746   2.873 -0.0720  0.4307  0.5531
 2452TIP3    H128771   6.301   4.709   2.906  0.3217 -1.6571 -0.6188
 2452TIP3    H228772   6.449   4.719   2.937 -0.0295  0.5846  0.5760
 2453TIP3   OH228773   5.314   5.240   5.126  0.0011  0.3713 -0.1094
 2453TIP3    H128774   5.265   5.172   5.170  0.9013 -0.5834 -0.5361
 2453TIP3    H228775   5.324   5.209   5.036  0.8254  0.8307 -0.1925
 2454TIP3   OH228776   5.529   3.832   1.453 -0.1093  0.4139  0.1507
 2454TIP3    H128777   5.476   3.886   1.395 -2.3957 -1.3787  0.4005
 2454TIP3    H228778   5.576   3.773   1.395 -0.1231  0.5461  0.0036
 2455TIP3   OH228779   2.730   5.391   5.699 -0.1034 -0.3338 -0.8293
 2455TIP3    H128780   2.636   5.389   5.681 -0.2390 -2.6443 -0.2141
 2455TIP3    H228781   2.739   5.352   5.786  1.3622  0.8097 -0.4207
 2456TIP3   OH228782   5.486   4.008  16.631  0.0043 -0.5433 -0.1735
 2456TIP3    H128783   5.484   4.004  16.535  0.6526  0.5621 -0.2499
 2456TIP3    H228784   5.569   3.969  16.656 -0.5003 -1.5350 -0.0002
 2457TIP3   OH228785   1.792   4.854  15.975  0.2700  0.0784 -0.4533
 2457TIP3    H128786   1.881   4.858  16.011  0.3382 -0.5909 -0.5305
 2457TIP3    H228787   1.749   4.933  16.007  1.2076  0.9486 -1.2638
 2458TIP3   OH228788   2.153   5.543  12.454  0.5434 -0.2750 -0.8644
 2458TIP3    H128789   2.202   5.624  12.465 -1.8851  1.1039  0.9993
 2458TIP3    H228790   2.149   5.505  12.542 -0.1170 -1.2911 -1.3079
 2459TIP3   OH228791   1.616   1.566  14.428  0.1899  0.4281 -0.0584
 2459TIP3    H128792   1.586   1.527  14.510  1.7093 -0.9362 -0.1003
 2459TIP3    H228793   1.544   1.552  14.367 -1.1767  1.9026  1.1098
 2460TIP3   OH228794   3.736   3.977  16.826 -0.4690  0.2608  0.3089
 2460TIP3    H128795   3.756   4.023  16.744 -1.3392 -0.0398 -0.0870
 2460TIP3    H228796   3.760   3.886  16.808  1.1458  0.5042  1.0521
 2461TIP3   OH228797   2.733   6.601  15.487 -0.1770  0.2120  0.2598
 2461TIP3    H128798   2.827   6.587  15.495 -0.2126 -1.2197 -1.2632
 2461TIP3    H228799   2.713   6.667  15.553  1.8080  0.2150  0.9311
 2462TIP3   OH228800   2.626   1.669   0.083  0.3106  0.6748  0.5894
 2462TIP3    H128801   2.644   1.762   0.071  0.4292  0.7545  1.3439
 2462TIP3    H228802   2.532   1.661   0.068  0.2787  0.9322  0.6456
 2463TIP3   OH228803   1.654   2.404  17.084  0.4278  0.2402  0.4384
 2463TIP3    H128804   1.745   2.428  17.104  0.0530  1.7374  0.5109
 2463TIP3    H228805   1.605   2.427  17.163 -0.0987  0.0160  0.1804
 2464TIP3   OH228806   0.922   3.005   2.866  0.0587 -0.1357 -0.4068
 2464TIP3    H128807   1.004   3.052   2.863 -0.3590  0.5793 -0.9479
 2464TIP3    H228808   0.866   3.056   2.926 -0.7530  0.6960 -1.8137
 2465TIP3   OH228809   5.332   6.112  11.851 -0.2637  0.3610  0.1693
 2465TIP3    H128810   5.276   6.036  11.835  1.3408 -0.3836 -2.5978
 2465TIP3    H228811   5.380   6.089  11.931 -0.2890 -1.2607 -0.2487
 2466TIP3   OH228812   2.466   6.239  13.969  0.6776 -0.2200  0.1705
 2466TIP3    H128813   2.533   6.172  13.956  0.9443  0.4113 -2.0245
 2466TIP3    H228814   2.510   6.307  14.019  0.7431 -1.1193  1.3911
 2467TIP3   OH228815   6.500   5.115   4.721  0.7603 -0.1291 -0.0456
 2467TIP3    H128816   6.500   5.028   4.681 -1.8665 -0.5761  0.7159
 2467TIP3    H228817   6.443   5.168   4.664  0.8797  0.5829  0.4798
 2468TIP3   OH228818   3.181   4.638  15.123  0.3006 -0.0157  0.2578
 2468TIP3    H128819   3.127   4.711  15.093 -1.0186 -0.7410  0.7863
 2468TIP3    H228820   3.125   4.590  15.183  2.2004  0.3156  2.4491
 2469TIP3   OH228821   3.708   6.316  14.632  0.0155 -0.0502 -0.7321
 2469TIP3    H128822   3.731   6.288  14.720 -1.0991  3.9174  1.0715
 2469TIP3    H228823   3.662   6.241  14.594 -0.9312 -1.4148  2.7116
 2470TIP3   OH228824   2.515   5.921  15.261 -0.3887 -0.2909 -0.2268
 2470TIP3    H128825   2.557   5.971  15.331 -1.7931  0.8712 -0.1535
 2470TIP3    H228826   2.543   5.831  15.274  0.7731  0.1956  0.7539
 2471TIP3   OH228827   1.443   1.161   4.376 -0.4394 -0.2060  0.3924
 2471TIP3    H128828   1.404   1.153   4.463 -0.5670  1.6131  0.5355
 2471TIP3    H228829   1.417   1.247   4.346  0.3085 -0.4785 -1.1182
 2472TIP3   OH228830   3.805   5.321  14.774  0.1542  0.4206 -0.5403
 2472TIP3    H128831   3.844   5.319  14.687 -0.5121  0.2541 -0.8390
 2472TIP3    H228832   3.773   5.410  14.784 -2.8996 -0.4176 -1.8914
 2473TIP3   OH228833   0.564   0.928   1.109 -0.3781  0.2663  0.4617
 2473TIP3    H128834   0.550   0.913   1.015  0.4076  2.4481 -0.0805
 2473TIP3    H228835   0.647   0.883   1.128 -1.5423 -1.9316  0.6673
 2474TIP3   OH228836   5.916   6.761  17.120  0.3054 -0.0484  0.2343
 2474TIP3    H128837   5.928   6.667  17.108 -0.3834 -0.2624  1.1308
 2474TIP3    H228838   5.860   6.788  17.047  0.5544 -0.3236 -0.0583
 2475TIP3   OH228839   2.710   2.902   2.249 -0.2140  0.3651  0.2246
 2475TIP3    H128840   2.719   2.854   2.166 -2.0351 -3.6676  2.1238
 2475TIP3    H228841   2.775   2.862   2.306  0.5566  2.6398  1.0373
 2476TIP3   OH228842   2.465   1.940   3.373  0.4408  0.1437  0.4452
 2476TIP3    H128843   2.556   1.952   3.399  0.2669 -0.2373  1.2935
 2476TIP3    H228844   2.419   2.013   3.414  0.2765 -0.0118  0.5392
 2477TIP3   OH228845   3.634   1.194   1.231 -0.4279  0.1963  0.3606
 2477TIP3    H128846   3.624   1.278   1.186  0.6105 -0.5554 -1.3709
 2477TIP3    H228847   3.639   1.217   1.324  0.3787  2.0974 -0.1124
 2478TIP3   OH228848   1.312   3.042  15.995 -0.2423  0.2208  0.2394
 2478TIP3    H128849   1.236   3.034  15.939  0.8290 -0.5623 -1.1502
 2478TIP3    H228850   1.358   3.120  15.963  0.3305 -0.1819  0.0516
 2479TIP3   OH228851   3.612   1.786   6.198  0.6688 -0.4693  0.2421
 2479TIP3    H128852   3.579   1.709   6.245  0.6722  0.0650  1.1507
 2479TIP3    H228853   3.705   1.792   6.223  0.2922  0.7416  1.4940
 2480TIP3   OH228854   6.660   2.017   5.796  0.2834 -0.1384 -0.2199
 2480TIP3    H128855   6.753   2.030   5.778 -0.2748  5.5283 -0.8307
 2480TIP3    H228856   6.653   2.025   5.891  0.3184  1.6127 -0.3347
 2481TIP3   OH228857   5.299   5.405   1.444  0.2047 -0.3068 -0.0169
 2481TIP3    H128858   5.255   5.408   1.529  0.2457 -0.9465  0.0338
 2481TIP3    H228859   5.346   5.488   1.439  0.6465 -0.4874  0.8401
 2482TIP3   OH228860   1.775   1.484  11.842 -0.0478 -0.4840  0.6347
 2482TIP3    H128861   1.824   1.540  11.902 -0.1038 -0.2903  0.5027
 2482TIP3    H228862   1.838   1.417  11.814  0.3692  0.2071 -0.1195
 2483TIP3   OH228863   6.605   2.625   2.483 -0.1638 -0.2445 -0.0140
 2483TIP3    H128864   6.536   2.559   2.481 -0.7657  0.2736  1.8105
 2483TIP3    H228865   6.643   2.618   2.571  0.0824  1.4846  0.0579
 2484TIP3   OH228866   5.816   3.301  16.969  0.4013  0.8204  0.0618
 2484TIP3    H128867   5.844   3.357  17.041  0.9803 -0.3527  0.7708
 2484TIP3    H228868   5.858   3.338  16.892  0.0442  1.8912  0.3583
 2485TIP3   OH228869   5.041   4.894  12.905  0.4383 -0.4546 -0.3108
 2485TIP3    H128870   4.989   4.908  12.826  0.1398 -0.1479 -0.0615
 2485TIP3    H228871   5.132   4.903  12.876  0.3934 -1.8055 -0.9097
 2486TIP3   OH228872   4.723   3.633   2.325 -0.0179 -0.4114  0.2865
 2486TIP3    H128873   4.813   3.665   2.319 -0.6693  1.3317 -0.9909
 2486TIP3    H228874   4.725   3.567   2.394  2.4945 -1.3506 -0.5780
 2487TIP3   OH228875   1.011   1.963   5.903 -0.3955  0.4933  0.3985
 2487TIP3    H128876   0.956   1.965   5.981 -0.4466 -2.0045  0.4910
 2487TIP3    H228877   1.093   1.922   5.932  0.5695  1.8067 -0.3277
 2488TIP3   OH228878   0.403   0.893   5.169 -0.1849 -0.6101  0.1065
 2488TIP3    H128879   0.381   0.926   5.256  0.7890 -0.3765  0.2694
 2488TIP3    H228880   0.498   0.904   5.162 -0.2586 -0.5674 -1.0071
 2489TIP3   OH228881   1.001   4.443  13.188 -0.1274 -0.6096 -0.3797
 2489TIP3    H128882   0.944   4.438  13.111  0.2644 -0.9455 -0.6580
 2489TIP3    H228883   0.949   4.404  13.259 -0.0768 -1.3411 -0.7355
 2490TIP3   OH228884   0.468   1.307  15.700 -0.4010 -0.1792  0.4034
 2490TIP3    H128885   0.553   1.264  15.687 -0.5313 -0.6413  1.0325
 2490TIP3    H228886   0.409   1.262  15.639 -0.3951 -0.4649  0.6086
 2491TIP3   OH228887   6.290   3.924  16.973  0.0789  0.2610 -0.6401
 2491TIP3    H128888   6.267   3.864  16.902  0.5385 -0.6333 -0.0630
 2491TIP3    H228889   6.385   3.927  16.972  0.0462  1.5365 -1.0863
 2492TIP3   OH228890   4.116   0.745  15.247 -0.2455  0.4394 -0.2010
 2492TIP3    H128891   4.089   0.710  15.332 -2.2535  1.8615 -0.1531
 2492TIP3    H228892   4.194   0.796  15.266 -0.6005  0.6372  0.8000
 2493TIP3   OH228893   5.247   1.712  12.583 -0.2032 -0.3374 -0.0182
 2493TIP3    H128894   5.317   1.680  12.526 -0.3994  0.2995 -0.6344
 2493TIP3    H228895   5.246   1.651  12.656  0.8432 -0.4890 -0.1136
 2494TIP3   OH228896   0.945   6.529   2.230 -0.2096  0.0026 -0.3493
 2494TIP3    H128897   0.995   6.529   2.148 -0.2526  2.4958 -0.4552
 2494TIP3    H228898   0.870   6.472   2.211  0.2989 -0.2712 -1.7034
 2495TIP3   OH228899   1.200   6.367  11.133 -0.2085 -0.5206  0.1608
 2495TIP3    H128900   1.291   6.355  11.162 -0.1387 -1.7614 -0.4801
 2495TIP3    H228901   1.161   6.280  11.140 -1.6687  0.1982  1.4022
 2496TIP3   OH228902   6.385   0.405  17.159 -0.1526 -0.3480  0.2750
 2496TIP3    H128903   6.334   0.487  17.155  0.9454  0.3961  0.9447
 2496TIP3    H228904   6.340   0.352  17.225 -1.6958 -0.9056 -1.1475
 2497TIP3   OH228905   0.789   4.391   2.394 -0.4091  0.1377 -0.0029
 2497TIP3    H128906   0.849   4.463   2.414  0.3794 -0.1898 -1.0995
 2497TIP3    H228907   0.778   4.394   2.299  0.3814 -1.7451 -0.1930
 2498TIP3   OH228908   2.423   4.262   1.265  0.0030 -0.7240 -1.0361
 2498TIP3    H128909   2.363   4.309   1.206 -1.1366 -2.1231 -1.0613
 2498TIP3    H228910   2.400   4.292   1.352  0.3438 -0.0999 -1.1580
 2499TIP3   OH228911   0.963   5.641   3.250 -0.2863  0.1707 -0.4622
 2499TIP3    H128912   1.056   5.621   3.265  0.0689  0.7447 -1.7592
 2499TIP3    H228913   0.918   5.599   3.323  1.1938  1.7781  1.5123
 2500TIP3   OH228914   1.322   0.792   4.174 -0.3634  0.1091 -0.0395
 2500TIP3    H128915   1.289   0.882   4.165  0.1620  0.2646 -0.4899
 2500TIP3    H228916   1.244   0.738   4.182 -0.7635  0.4088 -1.5713
 2501TIP3   OH228917   0.521   0.301  12.431 -0.8688  0.0817 -0.3144
 2501TIP3    H128918   0.498   0.389  12.401  0.6232  0.9631  0.9312
 2501TIP3    H228919   0.508   0.304  12.525  1.3951 -0.2475  0.0666
 2502TIP3   OH228920   3.520   6.569   1.660 -0.3090  0.1450  0.2148
 2502TIP3    H128921   3.614   6.548   1.663 -0.6262 -1.4587 -0.4447
 2502TIP3    H228922   3.486   6.518   1.587 -1.2869  2.5288 -1.0954
 2503TIP3   OH228923   4.686   3.765  16.369  0.3712  0.5323 -0.4496
 2503TIP3    H128924   4.615   3.774  16.434  0.6388  1.9659 -0.3151
 2503TIP3    H228925   4.750   3.708  16.412 -1.1371 -1.7285 -1.0077
 2504TIP3   OH228926   1.736   1.873   5.973 -0.4791 -0.0724 -0.0124
 2504TIP3    H128927   1.662   1.861   6.032 -0.6065 -1.2045 -0.3683
 2504TIP3    H228928   1.790   1.940   6.014 -1.5088  0.4903  0.4415
 2505TIP3   OH228929   3.573   2.871   0.275  0.6866  0.2424 -0.4516
 2505TIP3    H128930   3.542   2.937   0.214  0.1959  0.0484 -0.4151
 2505TIP3    H228931   3.636   2.917   0.331  0.5691  0.6029 -0.6185
 2506TIP3   OH228932   4.348   3.716   4.912  0.6145  0.1513  0.7245
 2506TIP3    H128933   4.308   3.771   4.980 -0.2454 -0.4671  0.7245
 2506TIP3    H228934   4.301   3.739   4.832  0.0610 -0.7723  0.7742
 2507TIP3   OH228935   1.168   1.739  16.621  0.1545 -0.0000 -0.2807
 2507TIP3    H128936   1.183   1.819  16.672  0.2372 -0.9057  1.1705
 2507TIP3    H228937   1.074   1.737  16.607 -0.4272 -1.5075  2.9886
 2508TIP3   OH228938   2.194   1.781   4.427 -0.0318 -0.0468  0.3733
 2508TIP3    H128939   2.224   1.764   4.338 -2.0255  2.1737 -0.8611
 2508TIP3    H228940   2.267   1.825   4.470  0.7451 -0.6010 -0.3744
 2509TIP3   OH228941   5.434   0.304  12.444 -0.8534  0.0544  0.3556
 2509TIP3    H128942   5.431   0.263  12.531  2.2409 -1.5694 -0.1779
 2509TIP3    H228943   5.525   0.295  12.416 -1.4213  1.8802 -2.4719
 2510TIP3   OH228944   1.063   0.548   3.918  0.0637  0.6624  0.5087
 2510TIP3    H128945   1.032   0.555   3.828  0.0335 -0.1668  0.4511
 2510TIP3    H228946   1.137   0.487   3.913 -0.5572 -0.1581  1.1928
 2511TIP3   OH228947   6.394   2.029   2.240 -0.4647  0.2558  0.0048
 2511TIP3    H128948   6.352   2.046   2.155 -2.2744  0.0921  0.8215
 2511TIP3    H228949   6.376   2.108   2.291  0.1461  0.1268  0.4252
 2512TIP3   OH228950   0.832   0.402  12.614  0.0675  0.1869 -0.0983
 2512TIP3    H128951   0.912   0.350  12.613  0.6823  1.0956 -0.0681
 2512TIP3    H228952   0.762   0.340  12.594  0.8067 -0.5820 -0.3586
 2513TIP3   OH228953   3.015   0.821  13.507 -0.3632  0.4775 -0.1021
 2513TIP3    H128954   2.943   0.810  13.569  2.0455 -0.7559  2.7394
 2513TIP3    H228955   3.009   0.745  13.449 -0.7390 -0.1756  0.7818
 2514TIP3   OH228956   5.671   4.368  17.243 -0.3864 -0.2258 -0.5613
 2514TIP3    H128957   5.714   4.383  17.159  0.5799 -0.3712 -0.1019
 2514TIP3    H228958   5.743   4.357  17.306 -1.0905 -0.4182  0.2322
 2515TIP3   OH228959   6.393   4.560   6.434 -0.4815  0.7089  0.7091
 2515TIP3    H128960   6.414   4.647   6.468 -0.0680  0.7479  0.3609
 2515TIP3    H228961   6.298   4.552   6.445 -0.4276  0.9413  1.3484
 2516TIP3   OH228962   6.146   3.466  14.263 -0.1614 -0.1965 -0.0903
 2516TIP3    H128963   6.179   3.550  14.296  0.2193  0.0953 -1.1689
 2516TIP3    H228964   6.219   3.406  14.277 -0.3563 -0.3095  0.4832
 2517TIP3   OH228965   4.907   4.119  11.150  0.1350  0.2428  0.4119
 2517TIP3    H128966   4.982   4.105  11.092 -0.6834 -1.0082 -0.3609
 2517TIP3    H228967   4.947   4.126  11.237  1.1187 -0.8708  0.0771
 2518TIP3   OH228968   5.755   4.583  13.521  0.8247 -0.1754  0.2424
 2518TIP3    H128969   5.733   4.496  13.488 -0.0277  0.0052  0.3207
 2518TIP3    H228970   5.705   4.644  13.466 -0.6749  0.1309  1.8371
 2519TIP3   OH228971   2.476   2.262   4.846 -0.7704  0.0062 -0.4938
 2519TIP3    H128972   2.509   2.179   4.811 -2.6159 -1.4629  0.9952
 2519TIP3    H228973   2.500   2.259   4.939 -1.9753  0.5376 -0.1548
 2520TIP3   OH228974   1.742   4.531  11.249 -0.5606 -0.9582 -0.4112
 2520TIP3    H128975   1.776   4.461  11.305 -1.1660 -0.1227  1.0455
 2520TIP3    H228976   1.787   4.610  11.279 -2.8804 -0.0069  0.8486
 2521TIP3   OH228977   2.908   3.849   3.295 -0.2383  0.1269  0.4970
 2521TIP3    H128978   2.862   3.860   3.379 -2.2126  3.0789 -0.7991
 2521TIP3    H228979   2.987   3.801   3.317 -0.7237  0.6892  4.0372
 2522TIP3   OH228980   2.183   6.555  11.303 -0.1050 -0.2300 -0.4369
 2522TIP3    H128981   2.233   6.489  11.351 -0.6878 -1.0146 -0.8816
 2522TIP3    H228982   2.213   6.545  11.212 -0.5458 -0.2205 -0.5847
 2523TIP3   OH228983   2.240   2.034  11.483 -0.1198  0.5900  0.2328
 2523TIP3    H128984   2.178   2.104  11.498 -0.3551  0.3325  0.4779
 2523TIP3    H228985   2.290   2.062  11.407 -1.5851  0.0766 -0.9596
 2524TIP3   OH228986   5.802   4.376   3.875 -0.4436  0.2251  1.0335
 2524TIP3    H128987   5.806   4.457   3.824  0.0384  0.0303  0.7495
 2524TIP3    H228988   5.814   4.306   3.810 -0.7288 -0.0663  1.2930
 2525TIP3   OH228989   0.164   3.789  16.831  0.1351  0.7215  0.2519
 2525TIP3    H128990   0.135   3.749  16.913  1.5028  0.4646  0.6404
 2525TIP3    H228991   0.243   3.838  16.855  0.2707  1.0520 -0.8194
 2526TIP3   OH228992   0.749   3.896   0.406 -0.3127 -0.2012  0.7021
 2526TIP3    H128993   0.689   3.836   0.361 -0.8649  0.2663  0.8137
 2526TIP3    H228994   0.814   3.838   0.446 -1.9850 -0.9292  2.5463
 2527TIP3   OH228995   4.595   5.129   4.439 -0.4452 -0.1298 -0.4549
 2527TIP3    H128996   4.542   5.050   4.444  0.1222 -0.5102 -0.2884
 2527TIP3    H228997   4.640   5.133   4.524 -0.4274  0.3390 -0.4821
 2528TIP3   OH228998   0.969   0.529  11.176 -0.0833 -0.2044  0.6065
 2528TIP3    H128999   0.881   0.498  11.197  0.0720 -0.0649  1.5139
 2528TIP3    H229000   1.027   0.455  11.197 -0.0566 -0.6335 -0.8917
 2529TIP3   OH229001   0.810   1.269  15.146 -0.3602  0.2434 -0.0100
 2529TIP3    H129002   0.762   1.313  15.216  0.2151 -0.1690  0.6587
 2529TIP3    H229003   0.850   1.193  15.188 -0.7346 -0.5141 -0.9889
 2530TIP3   OH229004   6.268   2.897   1.692  0.2772 -0.0500 -0.1676
 2530TIP3    H129005   6.339   2.871   1.752 -0.6914 -1.4259  0.4376
 2530TIP3    H229006   6.204   2.827   1.700 -1.1619  1.1671 -0.7197
 2531TIP3   OH229007   3.141   4.380   2.513  0.2740  0.6554  0.6867
 2531TIP3    H129008   3.096   4.416   2.436  1.1737  2.3470  0.9117
 2531TIP3    H229009   3.072   4.365   2.577 -0.1668  1.6892  0.4587
 2532TIP3   OH229010   4.657   3.288   5.823  0.2538  0.2998 -0.5453
 2532TIP3    H129011   4.751   3.300   5.836  0.5893 -0.5502 -1.9202
 2532TIP3    H229012   4.633   3.355   5.759  0.1161 -0.0455 -0.8613
 2533TIP3   OH229013   6.307   6.445  15.779  0.0665 -1.0270 -0.1160
 2533TIP3    H129014   6.348   6.415  15.698  1.5534  0.2200  0.1325
 2533TIP3    H229015   6.241   6.508  15.750  0.2222 -0.9862 -0.3871
 2534TIP3   OH229016   1.960   6.707  13.226 -0.4480 -0.8482  0.2692
 2534TIP3    H129017   1.932   6.662  13.147  0.1918  0.5899 -0.8250
 2534TIP3    H229018   2.055   6.716  13.217 -0.3743 -0.6002  1.1665
 2535TIP3   OH229019   3.008   5.346   4.712  0.1863  0.1257 -0.3695
 2535TIP3    H129020   3.032   5.388   4.794 -0.0880 -0.2745 -0.0800
 2535TIP3    H229021   3.062   5.390   4.646  1.3159 -0.3792  0.1828
 2536TIP3   OH229022   1.765   0.445  12.478 -0.2237 -0.6384  0.3148
 2536TIP3    H129023   1.726   0.516  12.528 -2.0807 -2.2747  1.3548
 2536TIP3    H229024   1.754   0.368  12.533  0.3240 -2.0127 -1.3933
 2537TIP3   OH229025   4.570   3.496  15.609  0.0597  0.4179  0.2712
 2537TIP3    H129026   4.510   3.535  15.544  0.5334 -1.2411 -1.2512
 2537TIP3    H229027   4.645   3.467  15.558  2.0209  1.9992  2.0798
 2538TIP3   OH229028   1.640   6.033   4.200 -0.4605  1.2284 -0.0861
 2538TIP3    H129029   1.637   5.992   4.114  1.2949  0.5745  0.1191
 2538TIP3    H229030   1.687   5.970   4.255 -1.7316  1.5253  1.4291
 2539TIP3   OH229031   6.571   1.075  16.206  0.1499 -0.1760  0.7888
 2539TIP3    H129032   6.515   1.101  16.133 -1.0073 -1.4479  1.1658
 2539TIP3    H229033   6.553   1.139  16.274  0.3937  0.3664  0.3509
 2540TIP3   OH229034   0.864   4.977  14.272  0.1878  0.0834 -0.0577
 2540TIP3    H129035   0.924   5.019  14.210  1.1364 -1.8152 -0.5005
 2540TIP3    H229036   0.912   4.974  14.354 -0.1100  0.3919  0.1295
 2541TIP3   OH229037   3.155   5.119   2.748  0.3203  0.1330  0.5302
 2541TIP3    H129038   3.070   5.151   2.717 -0.1603 -1.6818 -0.1058
 2541TIP3    H229039   3.164   5.160   2.835 -0.5910  1.3602  0.0917
 2542TIP3   OH229040   4.998   0.750  12.392 -0.1163 -0.4647  0.3680
 2542TIP3    H129041   5.006   0.846  12.393 -0.3076 -0.3404  4.0036
 2542TIP3    H229042   4.906   0.734  12.410 -0.0652 -1.3503 -0.1357
 2543TIP3   OH229043   0.500   5.286   2.326 -0.3278 -0.5391 -0.1970
 2543TIP3    H129044   0.480   5.311   2.416 -1.2426  1.6666 -0.9587
 2543TIP3    H229045   0.545   5.201   2.335 -2.2177 -1.4302  2.1695
 2544TIP3   OH229046   4.705   1.698  12.825  0.0417  0.3076  0.1288
 2544TIP3    H129047   4.678   1.659  12.909 -0.2839  0.2968  0.0196
 2544TIP3    H229048   4.623   1.726  12.785  0.1633 -0.0157 -0.3514
 2545TIP3   OH229049   0.378   2.418   5.737 -0.0642  0.6827  0.6331
 2545TIP3    H129050   0.453   2.390   5.790 -0.7678 -0.0180  1.2869
 2545TIP3    H229051   0.404   2.502   5.701 -0.1678  2.0369  3.4691
 2546TIP3   OH229052   6.286   5.395  11.116 -0.3629 -0.1584 -0.1783
 2546TIP3    H129053   6.343   5.412  11.191  0.5236 -1.7437 -0.4274
 2546TIP3    H229054   6.272   5.481  11.076  0.0532  0.5612  1.1561
 2547TIP3   OH229055   3.415   5.977   2.896 -0.4503  0.0560 -0.2267
 2547TIP3    H129056   3.406   5.984   2.991  1.1796  0.0523 -0.0443
 2547TIP3    H229057   3.414   5.883   2.879 -2.3719  0.0873 -0.4177
 2548TIP3   OH229058   5.436   2.814  11.817 -0.1293  0.1563  0.4515
 2548TIP3    H129059   5.362   2.872  11.836 -0.0841  0.1896  0.5242
 2548TIP3    H229060   5.496   2.827  11.890 -0.6251 -0.8319  1.0509
 2549TIP3   OH229061   4.159   2.450  16.385  0.4830 -0.1930 -0.0963
 2549TIP3    H129062   4.130   2.541  16.386 -0.3536 -0.4541  0.9439
 2549TIP3    H229063   4.085   2.400  16.351  0.5237 -0.6111  0.4112
 2550TIP3   OH229064   1.939   2.489  15.118  0.0270  0.2894  0.0705
 2550TIP3    H129065   2.008   2.553  15.101  0.6141 -0.5102 -0.6285
 2550TIP3    H229066   1.982   2.422  15.171  0.4094 -1.2695 -2.0739
 2551TIP3   OH229067   5.718   6.654   1.678 -0.4390  0.6345  0.4212
 2551TIP3    H129068   5.665   6.730   1.699 -2.6685 -0.9273  0.7708
 2551TIP3    H229069   5.678   6.583   1.728  1.4946 -0.8062  0.0215
 2552TIP3   OH229070   2.759   4.293  14.152  0.1208 -0.1964 -0.0436
 2552TIP3    H129071   2.760   4.198  14.157 -1.6252 -0.2207  0.2724
 2552TIP3    H229072   2.765   4.322  14.243 -0.5365 -0.0373 -0.0471
 2553TIP3   OH229073   2.847   6.030   1.511  0.2969 -0.0620 -0.1166
 2553TIP3    H129074   2.763   6.016   1.555  0.8345 -2.6490  0.2005
 2553TIP3    H229075   2.904   6.066   1.578  0.0199 -0.2744  0.2321
 2554TIP3   OH229076   0.549   5.420  14.954  0.1177 -0.5824  0.5760
 2554TIP3    H129077   0.480   5.380  14.902 -0.0138  0.2952  0.0477
 2554TIP3    H229078   0.593   5.347  14.998 -1.9361 -1.0750  1.9268
 2555TIP3   OH229079   2.930   1.003  10.506  0.2837  0.5340 -0.1901
 2555TIP3    H129080   2.898   0.928  10.456  2.4686 -0.6326  0.0477
 2555TIP3    H229081   2.887   1.078  10.465 -3.5638 -0.8644  0.8434
 2556TIP3   OH229082   5.979   3.515  14.865 -0.5869 -0.3649 -0.0407
 2556TIP3    H129083   6.021   3.472  14.790  0.4010 -0.3728  0.4962
 2556TIP3    H229084   5.885   3.500  14.851 -0.7955  2.5203 -3.0576
 2557TIP3   OH229085   2.923   1.843  15.944 -0.7364 -0.1514 -0.4281
 2557TIP3    H129086   2.840   1.880  15.915 -0.0123  2.7952  0.9516
 2557TIP3    H229087   2.956   1.795  15.868 -2.5927  0.5844 -1.7651
 2558TIP3   OH229088   2.307   4.840  14.584  0.6334  0.2791  0.3485
 2558TIP3    H129089   2.317   4.904  14.513  1.6218 -2.5412 -2.2792
 2558TIP3    H229090   2.384   4.852  14.639  1.2170  0.8390 -0.5663
 2559TIP3   OH229091   0.954   5.084  16.883 -0.4488 -1.1165 -1.0282
 2559TIP3    H129092   0.881   5.076  16.823 -1.8817 -0.3281  0.5147
 2559TIP3    H229093   1.001   5.162  16.853  0.8992 -2.6094 -3.0939
 2560TIP3   OH229094   5.570   4.099  14.063  0.0119 -0.5214 -1.0843
 2560TIP3    H129095   5.665   4.093  14.076  0.0350  1.7534  0.5457
 2560TIP3    H229096   5.553   4.051  13.983  2.3274 -2.2648 -0.6355
 2561TIP3   OH229097   1.333   6.691   3.581  0.1374 -0.1269  0.3103
 2561TIP3    H129098   1.321   6.784   3.597 -1.7189 -0.3419  0.4693
 2561TIP3    H229099   1.281   6.674   3.502 -0.9931 -1.3130  1.2686
 2562TIP3   OH229100   4.945   6.191  15.018 -0.2884  0.0926  0.4396
 2562TIP3    H129101   4.904   6.267  15.060 -0.2208  1.0083 -1.0652
 2562TIP3    H229102   4.891   6.117  15.043  0.1502  0.4716  2.6778
 2563TIP3   OH229103   0.002   1.753   1.039  0.4236  0.6850  0.1858
 2563TIP3    H129104   0.023   1.662   1.057  1.9861  1.3304  1.9273
 2563TIP3    H229105   0.086   1.799   1.043 -0.5280  2.4621  1.2220
 2564TIP3   OH229106   3.688   1.819  13.940 -0.0083 -0.3025  0.2401
 2564TIP3    H129107   3.764   1.765  13.916  1.7346  1.0009  2.3851
 2564TIP3    H229108   3.713   1.908  13.912 -1.0368  0.0445  0.4028
 2565TIP3   OH229109   4.227   2.460   6.880 -0.5126 -0.5041 -0.3412
 2565TIP3    H129110   4.319   2.482   6.870 -0.7763 -0.1040 -2.3043
 2565TIP3    H229111   4.220   2.369   6.851 -0.8914 -0.1653 -1.3695
 2566TIP3   OH229112   6.783   0.569  13.565  0.2218  0.3192 -0.4137
 2566TIP3    H129113   6.835   0.549  13.643 -1.1983  1.0023  0.7520
 2566TIP3    H229114   6.734   0.489  13.548 -1.3677  0.9342  0.9737
 2567TIP3   OH229115   1.069   4.548  14.412 -0.2827 -0.3440 -0.0655
 2567TIP3    H129116   0.985   4.558  14.457  0.0218  0.9507  0.2497
 2567TIP3    H229117   1.060   4.601  14.333  0.1225 -0.4948 -0.2157
 2568TIP3   OH229118   2.371   0.398  13.848  0.3823 -0.4656  0.1971
 2568TIP3    H129119   2.278   0.416  13.840 -0.8482 -3.7585  3.6883
 2568TIP3    H229120   2.382   0.311  13.811  1.9404 -0.3930  0.4072
 2569TIP3   OH229121   1.254   3.599   4.493 -0.6779 -1.0054 -0.4777
 2569TIP3    H129122   1.341   3.576   4.460 -1.0552  0.3908 -2.6390
 2569TIP3    H229123   1.245   3.549   4.574  3.0216  0.4189  1.0232
 2570TIP3   OH229124   4.371   3.811  15.161  0.1891 -0.7322  0.0534
 2570TIP3    H129125   4.401   3.807  15.071  1.1707 -1.2307  0.3851
 2570TIP3    H229126   4.369   3.719  15.190 -1.5150 -0.7056  0.1069
 2571TIP3   OH229127   1.927   4.421  13.229  0.1749 -0.5883 -0.6855
 2571TIP3    H129128   1.870   4.398  13.155  0.5490 -1.6801 -0.6524
 2571TIP3    H229129   1.886   4.499  13.267 -0.8795 -0.9050 -1.1255
 2572TIP3   OH229130   6.111   2.608   1.715  0.6155  0.2653 -0.1075
 2572TIP3    H129131   6.178   2.557   1.760  1.5015  1.1835 -0.3556
 2572TIP3    H229132   6.078   2.550   1.647  0.5182 -0.5099  0.5934
 2573TIP3   OH229133   2.017   3.867  13.754  0.3388 -0.2878 -0.2165
 2573TIP3    H129134   2.080   3.872  13.826 -0.0463  0.2700  0.0922
 2573TIP3    H229135   2.024   3.952  13.711 -0.5525 -0.0317  0.1283
 2574TIP3   OH229136   2.528   0.641  10.983  0.2067  0.1538 -0.8579
 2574TIP3    H129137   2.543   0.556  11.025 -0.8688  0.1156 -0.5223
 2574TIP3    H229138   2.458   0.623  10.919 -0.1537  0.8259 -0.6545
 2575TIP3   OH229139   1.059   5.544  16.758 -0.0460 -0.1627 -0.0461
 2575TIP3    H129140   1.037   5.534  16.665  0.3296  1.5252 -0.3508
 2575TIP3    H229141   0.979   5.575  16.798 -0.1387 -0.6586  0.1592
 2576TIP3   OH229142   6.370   2.712   2.794  0.1210  0.1169 -0.1521
 2576TIP3    H129143   6.352   2.634   2.742 -0.0763  0.3402 -0.4158
 2576TIP3    H229144   6.410   2.678   2.874 -1.9501 -0.4411  0.7126
 2577TIP3   OH229145   1.926   1.854  14.814  1.0285 -0.0128 -0.2462
 2577TIP3    H129146   1.871   1.866  14.737  1.5774 -1.2070 -0.8504
 2577TIP3    H229147   1.961   1.941  14.833  0.3181  0.4249 -0.9043
 2578TIP3   OH229148   1.179   6.095   4.621  0.0551  0.0272 -0.3535
 2578TIP3    H129149   1.231   6.166   4.583 -1.2559  0.0285 -2.2692
 2578TIP3    H229150   1.244   6.032   4.653  1.2302  0.9003 -0.9336
 2579TIP3   OH229151   5.195   4.611   1.059 -1.0047  0.1130  0.3492
 2579TIP3    H129152   5.253   4.587   1.131 -0.5037  2.0691  0.6477
 2579TIP3    H229153   5.243   4.676   1.009 -2.4934  0.9816 -0.0253
 2580TIP3   OH229154   0.769   1.201  13.261 -0.0642 -0.0896 -0.0759
 2580TIP3    H129155   0.864   1.187  13.266  0.2074  1.6654  0.6177
 2580TIP3    H229156   0.746   1.241  13.345 -1.2227  0.4962 -0.6439
 2581TIP3   OH229157   5.525   6.028   0.266  0.4402 -0.4795 -0.2864
 2581TIP3    H129158   5.488   5.942   0.247 -0.5548 -0.4894  1.5057
 2581TIP3    H229159   5.539   6.029   0.360  1.3556  0.9878 -0.3922
 2582TIP3   OH229160   3.258   6.635   5.309 -0.9245 -0.1561 -0.5518
 2582TIP3    H129161   3.221   6.719   5.336 -1.0548 -0.0888 -0.9296
 2582TIP3    H229162   3.264   6.642   5.214  3.3665  1.2449 -0.3706
 2583TIP3   OH229163   2.863   3.076   3.746  0.5645 -0.2597  0.1172
 2583TIP3    H129164   2.911   3.001   3.780  3.4249  0.6751 -1.4903
 2583TIP3    H229165   2.883   3.148   3.806 -1.1075 -0.4312  0.9316
 2584TIP3   OH229166   2.056   6.670   2.033  0.0796 -0.3043  0.0979
 2584TIP3    H129167   2.060   6.626   1.948  2.9442 -0.6393  0.3213
 2584TIP3    H229168   2.026   6.602   2.094 -1.4972 -0.1929 -0.4951
 2585TIP3   OH229169   5.753   5.921   4.109  0.4858 -1.3083 -0.0331
 2585TIP3    H129170   5.674   5.871   4.090 -0.6760 -0.2986  1.8277
 2585TIP3    H229171   5.785   5.948   4.023 -1.6823 -1.0461 -0.8274
 2586TIP3   OH229172   2.659   0.592  15.022  0.3474  0.5538  0.0802
 2586TIP3    H129173   2.589   0.618  14.963 -1.1985 -3.0230  0.0480
 2586TIP3    H229174   2.698   0.515  14.981  0.7460 -0.6939  2.5646
 2587TIP3   OH229175   4.160   3.868  14.734  0.2798 -0.4940 -0.5171
 2587TIP3    H129176   4.170   3.788  14.786 -0.6906  0.6165  1.4832
 2587TIP3    H229177   4.209   3.934  14.782 -2.0929  0.9808  0.0575
 2588TIP3   OH229178   4.855   1.693  13.283  0.0312 -0.3633 -0.1054
 2588TIP3    H129179   4.810   1.759  13.336  2.9146  0.3674  1.6176
 2588TIP3    H229180   4.879   1.625  13.346  2.0433 -0.3037 -0.7603
 2589TIP3   OH229181   2.234   5.161   4.584  0.3867 -0.9210 -0.0267
 2589TIP3    H129182   2.174   5.115   4.525 -0.2468 -0.2565  0.0991
 2589TIP3    H229183   2.297   5.203   4.526  0.6120 -1.4335 -0.1661
 2590TIP3   OH229184   6.606   6.595  15.188 -0.4342 -0.2553  0.1929
 2590TIP3    H129185   6.681   6.628  15.239 -1.5011  1.4672  0.7383
 2590TIP3    H229186   6.530   6.639  15.226 -1.6672 -1.4953 -0.7464
 2591TIP3   OH229187   5.427   4.900  16.262 -0.4451  0.7495 -0.9856
 2591TIP3    H129188   5.374   4.879  16.185 -0.1579  0.4185 -1.0957
 2591TIP3    H229189   5.449   4.993  16.251 -2.1969  1.2981 -0.2115
 2592TIP3   OH229190   5.643   5.947   2.736 -0.3083 -0.3484 -0.0853
 2592TIP3    H129191   5.722   5.968   2.785 -1.3545  2.1122  0.6889
 2592TIP3    H229192   5.573   5.947   2.801 -1.1942 -0.8119 -1.0013
 2593TIP3   OH229193   3.566   0.110   1.957 -0.7221 -0.0937  0.4157
 2593TIP3    H129194   3.480   0.116   1.999 -1.3148 -1.6495 -0.4559
 2593TIP3    H229195   3.606   0.196   1.970 -2.8117  0.9948 -0.0232
 2594TIP3   OH229196   3.606   4.959  13.142 -0.1257 -0.4137  0.0956
 2594TIP3    H129197   3.620   5.031  13.080  0.4028 -0.6476 -0.0639
 2594TIP3    H229198   3.514   4.967  13.167 -0.3243 -0.2610 -0.6553
 2595TIP3   OH229199   0.479   4.344   6.234 -0.1767  0.4263 -0.6000
 2595TIP3    H129200   0.473   4.438   6.246 -1.8935  0.0334  3.0009
 2595TIP3    H229201   0.570   4.322   6.258 -0.4847  0.9559  1.1834
 2596TIP3   OH229202   1.030   2.474   4.225 -0.2113 -0.3106  0.0733
 2596TIP3    H129203   0.946   2.428   4.226 -0.0396 -0.6369  1.4432
 2596TIP3    H229204   1.006   2.566   4.217 -0.7115 -0.3939  0.5513
 2597TIP3   OH229205   3.762   6.156   5.774  0.1431  0.1043 -0.2356
 2597TIP3    H129206   3.846   6.146   5.820 -1.0063 -0.8894  1.7783
 2597TIP3    H229207   3.709   6.210   5.833 -2.1613 -3.0973  0.8663
 2598TIP3   OH229208   3.377   2.893   6.344  0.5014  0.6256  0.5271
 2598TIP3    H129209   3.351   2.984   6.354  2.0410  1.2833 -0.9705
 2598TIP3    H229210   3.373   2.877   6.250 -0.3211 -1.0617  0.8029
 2599TIP3   OH229211   6.675   1.229   6.100 -0.7948 -0.3946 -0.8326
 2599TIP3    H129212   6.711   1.206   6.014  0.8173  0.6987 -0.5042
 2599TIP3    H229213   6.751   1.230   6.158 -2.0850 -2.8037  1.0450
 2600TIP3   OH229214   1.383   2.347   1.255  0.1906  0.0351 -0.1265
 2600TIP3    H129215   1.364   2.253   1.254 -1.5127  0.3367  0.2212
 2600TIP3    H229216   1.446   2.358   1.326  0.3257 -0.8189 -0.0966
 2601TIP3   OH229217   2.377   4.667   6.011  0.1411  0.1199 -0.2871
 2601TIP3    H129218   2.287   4.650   5.984  0.7052 -0.8064 -1.6579
 2601TIP3    H229219   2.391   4.610   6.086 -0.4448  0.3768  0.0253
 2602TIP3   OH229220   4.315   1.180   2.614  0.4285 -0.0150 -0.1556
 2602TIP3    H129221   4.340   1.270   2.633 -1.0566  0.2652  0.6834
 2602TIP3    H229222   4.282   1.183   2.524  0.5432  0.2500 -0.1892
 2603TIP3   OH229223   0.798   0.604  13.708 -0.3533  0.6542 -0.7039
 2603TIP3    H129224   0.821   0.588  13.617 -0.2572  0.5739 -0.6656
 2603TIP3    H229225   0.703   0.590  13.712 -0.2528 -0.0523 -0.6445
 2604TIP3   OH229226   4.243   4.940  13.457  0.2122  0.1274 -0.6732
 2604TIP3    H129227   4.176   4.871  13.456  0.7324 -0.3847 -1.9090
 2604TIP3    H229228   4.232   4.987  13.375  1.9465 -0.5669 -1.3628
 2605TIP3   OH229229   0.906   2.543   2.188 -0.3357 -0.2662 -0.1815
 2605TIP3    H129230   0.943   2.461   2.219 -1.1337 -0.5218  0.1261
 2605TIP3    H229231   0.936   2.551   2.098  1.6557  0.2643  0.4610
 2606TIP3   OH229232   4.599   4.210  11.316 -0.0752  0.5371  0.2052
 2606TIP3    H129233   4.650   4.129  11.320 -0.9650 -0.0094  0.7372
 2606TIP3    H229234   4.510   4.182  11.294 -0.0187  1.5411 -1.5279
 2607TIP3   OH229235   2.626   3.011  15.108  0.2207 -0.0315  0.1253
 2607TIP3    H129236   2.597   2.926  15.141  0.4398  0.2961  1.1683
 2607TIP3    H229237   2.693   3.040  15.169 -0.7049  1.4595  0.4852
 2608TIP3   OH229238   3.971   4.080  15.753 -0.7838  0.6312 -0.6856
 2608TIP3    H129239   3.961   4.165  15.796  0.0230  0.0958  0.6141
 2608TIP3    H229240   3.946   4.016  15.820  0.2621 -0.2203 -1.0739
 2609TIP3   OH229241   1.683   3.534  12.524  0.4292  0.0938 -0.2993
 2609TIP3    H129242   1.652   3.623  12.541 -1.9144 -0.5953 -0.5661
 2609TIP3    H229243   1.625   3.478  12.577  4.3248 -1.2212  3.1340
 2610TIP3   OH229244   4.479   1.408   6.533  0.0043 -0.2753  1.2191
 2610TIP3    H129245   4.385   1.390   6.539 -0.3210  0.8051 -0.2060
 2610TIP3    H229246   4.511   1.345   6.468  0.1841 -0.3373  1.3672
 2611TIP3   OH229247   0.184   1.472  11.510  0.4284 -0.2021  0.1460
 2611TIP3    H129248   0.124   1.428  11.451 -0.6279  0.3417  0.7917
 2611TIP3    H229249   0.270   1.465  11.466 -0.2607 -0.0883 -1.2808
 2612TIP3   OH229250   1.469   2.516   4.360  0.3586  0.3082  0.0270
 2612TIP3    H129251   1.541   2.454   4.371  1.1097  0.8804 -1.3427
 2612TIP3    H229252   1.475   2.575   4.435  0.6810 -0.2572  0.4510
 2613TIP3   OH229253   2.561   4.762   3.461 -0.0889 -0.0936 -0.8366
 2613TIP3    H129254   2.591   4.748   3.551 -0.0756  1.0242 -0.6479
 2613TIP3    H229255   2.641   4.779   3.412 -0.0973 -0.6958 -1.0575
 2614TIP3   OH229256   3.696   0.014   6.108  0.2865  0.1135 -0.3608
 2614TIP3    H129257   3.697  -0.082   6.109  1.6869  0.0830 -1.3715
 2614TIP3    H229258   3.697   0.039   6.201  1.8784 -0.8866 -0.0739
 2615TIP3   OH229259   4.676   4.546   3.009  0.4295  0.0565 -0.0643
 2615TIP3    H129260   4.588   4.557   3.045  0.4345 -3.8776  1.6729
 2615TIP3    H229261   4.681   4.609   2.937 -2.9560  1.9391  1.1266
 2616TIP3   OH229262   3.835   6.151   6.739 -0.1454  0.1115 -0.4763
 2616TIP3    H129263   3.928   6.161   6.754  0.1070 -0.9824 -1.1519
 2616TIP3    H229264   3.793   6.190   6.815  0.8643  0.4213 -0.0693
 2617TIP3   OH229265   6.718   5.958   0.372  0.0537 -0.7235 -0.4677
 2617TIP3    H129266   6.761   6.008   0.441 -1.0279 -0.7070  0.2170
 2617TIP3    H229267   6.638   5.925   0.413 -1.0590  0.0199 -1.9517
 2618TIP3   OH229268   2.357   3.508  17.205  0.6237  0.3504  0.6284
 2618TIP3    H129269   2.438   3.543  17.170  1.1849 -0.6575  0.8641
 2618TIP3    H229270   2.373   3.414  17.212 -0.5272  0.1498  0.7814
 2619TIP3   OH229271   1.939   4.701   4.565 -0.0862  0.2425 -0.1359
 2619TIP3    H129272   1.848   4.672   4.572 -0.8616  2.4133 -0.5153
 2619TIP3    H229273   1.962   4.688   4.473  1.5124 -4.2470  0.6585
 2620TIP3   OH229274   3.060   0.140   5.725 -0.9388  0.6298  0.9931
 2620TIP3    H129275   3.099   0.054   5.738  0.7635  1.0601 -0.7215
 2620TIP3    H229276   2.977   0.137   5.772 -0.7509 -1.8024  1.2795
 2621TIP3   OH229277   1.422   0.904  17.254 -0.1471  0.3888  0.1256
 2621TIP3    H129278   1.344   0.850  17.266  0.9548 -1.1746  0.6569
 2621TIP3    H229279   1.394   0.976  17.198 -1.2983 -1.6754 -2.0810
 2622TIP3   OH229280   4.191   2.567   3.819 -0.2124 -0.3270 -0.6101
 2622TIP3    H129281   4.130   2.496   3.798 -0.9870  0.4722 -1.1120
 2622TIP3    H229282   4.138   2.630   3.867  0.5840 -0.2774  0.2366
 2623TIP3   OH229283   5.471   0.121   2.484 -0.0330 -0.7808  0.2218
 2623TIP3    H129284   5.434   0.209   2.487 -1.8548 -1.5178  0.5549
 2623TIP3    H229285   5.534   0.119   2.556  0.0559  0.2464  0.1868
 2624TIP3   OH229286   4.091   3.951   3.744 -0.0538 -0.6913 -0.4682
 2624TIP3    H129287   4.101   3.940   3.649 -2.5510  0.3482 -0.9154
 2624TIP3    H229288   4.100   4.045   3.759  3.1097 -1.0679  0.8114
 2625TIP3   OH229289   5.029   2.077  15.458  0.0962  0.4938  0.2466
 2625TIP3    H129290   4.952   2.111  15.412 -0.0803 -0.6833 -0.3602
 2625TIP3    H229291   4.995   2.004  15.510  0.7064  0.3342  0.4254
 2626TIP3   OH229292   0.086   1.822  14.017 -0.3662 -0.1205  0.2304
 2626TIP3    H129293   0.036   1.740  14.012  0.3111 -0.5070 -0.6427
 2626TIP3    H229294   0.082   1.857  13.928 -2.8872  2.2222  1.1440
 2627TIP3   OH229295   3.045   6.592  15.199 -0.6215 -0.6000  0.2338
 2627TIP3    H129296   3.040   6.678  15.158 -0.5070 -0.0030  1.4479
 2627TIP3    H229297   2.982   6.539  15.150 -0.6469  0.1539 -0.5643
 2628TIP3   OH229298   6.398   0.894  17.102  0.0141  0.0706 -0.6386
 2628TIP3    H129299   6.473   0.887  17.160 -0.4056 -1.2616 -0.2107
 2628TIP3    H229300   6.420   0.966  17.043 -0.0844  2.3330  1.9006
 2629TIP3   OH229301   0.352   3.835  14.449 -0.5228 -0.1827  0.0870
 2629TIP3    H129302   0.398   3.752  14.459 -0.7774 -0.2668  0.5784
 2629TIP3    H229303   0.387   3.872  14.367 -0.1744 -0.6173  0.0349
 2630TIP3   OH229304   1.912   5.243   1.456  0.1642  0.2185 -0.1711
 2630TIP3    H129305   1.884   5.182   1.387 -0.4172  1.2222 -0.8577
 2630TIP3    H229306   1.910   5.191   1.536  0.8541 -0.9822 -0.8927
 2631TIP3   OH229307   5.137   1.409   1.751 -0.0562 -0.5033 -0.0296
 2631TIP3    H129308   5.206   1.349   1.779  0.5965  0.5142  0.6424
 2631TIP3    H229309   5.130   1.472   1.823  1.0823  1.7360 -1.7108
 2632TIP3   OH229310   5.622   2.368   3.009  0.2988  0.1923 -0.3430
 2632TIP3    H129311   5.664   2.289   3.044 -1.2598 -0.6949 -0.4009
 2632TIP3    H229312   5.531   2.362   3.037 -0.2057  1.1929 -1.6498
 2633TIP3   OH229313   0.745   0.142  12.463  0.5067  0.7016 -0.5061
 2633TIP3    H129314   0.794   0.117  12.385  0.0555 -2.1507  0.0209
 2633TIP3    H229315   0.662   0.175  12.430  0.2014 -0.7481 -1.2927
 2634TIP3   OH229316   0.939   2.428   4.576 -0.2373 -0.1444 -0.0939
 2634TIP3    H129317   0.933   2.499   4.640  0.1660  2.6253 -2.9424
 2634TIP3    H229318   0.851   2.421   4.539 -0.1947 -0.9997 -0.0727
 2635TIP3   OH229319   6.192   1.400  10.814  0.5685 -0.1645  0.6401
 2635TIP3    H129320   6.135   1.464  10.857  0.4258  0.9958 -1.1466
 2635TIP3    H229321   6.145   1.317  10.820 -0.1300  0.2798  1.3678
 2636TIP3   OH229322   2.243   1.958  15.717  0.6046  0.4291 -0.4034
 2636TIP3    H129323   2.240   1.957  15.812 -0.6044 -0.9786 -0.4123
 2636TIP3    H229324   2.296   1.881  15.694 -2.2766 -1.6005 -0.8253
 2637TIP3   OH229325   1.725   4.232  11.916 -0.5681 -0.2934 -0.5561
 2637TIP3    H129326   1.692   4.152  11.875  0.8340 -0.8960 -0.5693
 2637TIP3    H229327   1.820   4.219  11.921 -0.5996 -0.3418  2.9928
 2638TIP3   OH229328   3.488   1.239   6.479 -0.5759 -0.1438 -0.2020
 2638TIP3    H129329   3.435   1.293   6.537 -0.5755 -0.8593  0.4796
 2638TIP3    H229330   3.532   1.301   6.421 -0.6699  0.5716  0.4853
 2639TIP3   OH229331   0.200   4.143   5.187  0.2435  0.5610  0.1567
 2639TIP3    H129332   0.164   4.114   5.271  1.6281  1.6311  1.1655
 2639TIP3    H229333   0.295   4.134   5.197  0.4515  0.9470 -1.2056
 2640TIP3   OH229334   2.825   3.231   0.020 -0.0979 -0.4991 -0.1580
 2640TIP3    H129335   2.860   3.318   0.039  0.2916 -0.1707 -2.1885
 2640TIP3    H229336   2.879   3.198  -0.051 -3.2849 -0.2751 -2.9471
 2641TIP3   OH229337   0.880   1.427   1.458 -0.9741 -0.3675 -0.0701
 2641TIP3    H129338   0.843   1.406   1.372 -0.4203 -3.2194  0.2728
 2641TIP3    H229339   0.805   1.431   1.516 -1.2531  0.3411 -0.4766
 2642TIP3   OH229340   1.772   6.271   2.527  0.1941  0.4043 -0.2864
 2642TIP3    H129341   1.791   6.243   2.616 -1.9288  0.0199  0.1076
 2642TIP3    H229342   1.701   6.214   2.498 -0.0018  1.3213 -1.7793
 2643TIP3   OH229343   6.256   1.427   3.412 -0.6119 -0.6179 -0.2252
 2643TIP3    H129344   6.346   1.425   3.443 -0.9661 -1.4184  0.7892
 2643TIP3    H229345   6.208   1.476   3.478 -0.6236  1.4944 -1.6891
 2644TIP3   OH229346   6.022   6.782  15.669 -0.0538 -0.3851  0.2517
 2644TIP3    H129347   6.109   6.741  15.669  0.5591  0.8383  1.3172
 2644TIP3    H229348   6.019   6.829  15.585  0.9419  0.7616  0.8236
 2645TIP3   OH229349   6.071   0.506  15.045 -0.2365 -0.2287  0.0813
 2645TIP3    H129350   6.091   0.417  15.074  0.8953 -0.2496 -0.7013
 2645TIP3    H229351   5.976   0.512  15.049 -0.4390 -1.9350 -1.1534
 2646TIP3   OH229352   2.038   1.768  15.927  0.1739  0.0984 -0.7672
 2646TIP3    H129353   1.963   1.810  15.886  0.5405 -0.2613 -1.8298
 2646TIP3    H229354   2.062   1.826  15.999 -1.0483  0.2706 -0.4814
 2647TIP3   OH229355   2.277   5.432   5.280 -0.3462  0.0118 -0.6534
 2647TIP3    H129356   2.257   5.347   5.242  2.1266 -0.3521 -1.2859
 2647TIP3    H229357   2.273   5.417   5.375 -2.0251 -0.2147 -0.7205
 2648TIP3   OH229358   0.462   6.732  14.277 -1.1502 -0.3903 -0.1274
 2648TIP3    H129359   0.404   6.733  14.353 -0.2876 -2.7480  0.6643
 2648TIP3    H229360   0.488   6.640  14.269  0.5593  0.1923 -1.9303
 2649TIP3   OH229361   0.032   4.150  16.807  0.5063 -0.0325  0.4827
 2649TIP3    H129362   0.021   4.245  16.799 -1.4249 -0.2298  0.1585
 2649TIP3    H229363   0.124   4.134  16.789  0.5275  1.6127 -1.1272
 2650TIP3   OH229364   0.257   6.708  17.251 -0.5886 -0.6615 -0.4976
 2650TIP3    H129365   0.194   6.780  17.240 -0.3974 -0.6235 -1.4420
 2650TIP3    H229366   0.241   6.675  17.340 -0.7069  0.5193 -0.0599
 2651TIP3   OH229367   2.817   5.101   6.461  0.3667  0.2948  0.4315
 2651TIP3    H129368   2.893   5.159   6.466 -1.3690  2.6234  1.6047
 2651TIP3    H229369   2.771   5.114   6.544 -1.3603 -0.9641 -0.2680
 2652TIP3   OH229370   5.598   3.671   0.154  0.0139  0.4265 -0.0566
 2652TIP3    H129371   5.653   3.691   0.229  1.3327  0.7463 -1.0651
 2652TIP3    H229372   5.610   3.577   0.140  0.8854  0.6193 -0.6920
 2653TIP3   OH229373   0.149   0.161  10.678  0.0172  0.3835 -0.0728
 2653TIP3    H129374   0.062   0.164  10.717  0.2037  0.3703  0.3439
 2653TIP3    H229375   0.195   0.236  10.716  0.6204 -0.3788  0.7391
 2654TIP3   OH229376   1.178   0.132  15.337  0.2644 -0.4212  0.8409
 2654TIP3    H129377   1.110   0.064  15.337 -0.0478 -0.1207  0.1714
 2654TIP3    H229378   1.259   0.086  15.317  0.0556 -0.6043  0.4074
 2655TIP3   OH229379   1.009   0.702  15.444  0.2416 -0.0542  0.4880
 2655TIP3    H129380   1.046   0.742  15.523  0.6085 -3.2695  2.1080
 2655TIP3    H229381   1.079   0.708  15.379  0.2590  1.8191  0.6109
 2656TIP3   OH229382   2.601   1.088   0.706  0.2729  0.0370 -0.0859
 2656TIP3    H129383   2.613   1.131   0.790 -0.8567  0.4768 -0.1277
 2656TIP3    H229384   2.595   0.995   0.727  3.0985 -0.1969 -0.0360
 2657TIP3   OH229385   0.259   4.433   4.481  0.1989 -0.4164 -0.1110
 2657TIP3    H129386   0.343   4.421   4.524  0.0958 -0.7820 -0.0134
 2657TIP3    H229387   0.272   4.509   4.423  0.4645 -0.2064  0.2257
 2658TIP3   OH229388   3.203   1.941  14.554 -0.0470 -0.0433  0.0182
 2658TIP3    H129389   3.238   1.859  14.588  1.9085  0.7696  0.0836
 2658TIP3    H229390   3.109   1.937  14.573  0.5035 -0.8199  3.0727
 2659TIP3   OH229391   5.810   4.354  16.312 -0.0006  0.5204  0.0429
 2659TIP3    H129392   5.749   4.396  16.372 -0.3295 -0.8705  0.7203
 2659TIP3    H229393   5.760   4.342  16.231 -0.0347  1.0424 -0.0153
 2660TIP3   OH229394   1.199   2.616   0.911  0.2632  0.2074 -0.4566
 2660TIP3    H129395   1.278   2.632   0.963 -0.4455  0.2333  0.6507
 2660TIP3    H229396   1.146   2.695   0.923 -0.5079 -0.3571 -0.0930
 2661TIP3   OH229397   1.112   5.540  14.494  0.7924  0.2357  0.2973
 2661TIP3    H129398   1.166   5.581  14.426  0.7306 -1.3556 -0.7665
 2661TIP3    H229399   1.051   5.609  14.520  1.1490  1.0460 -0.9088
 2662TIP3   OH229400   4.770   4.133   1.357 -0.1812 -0.5684  0.4288
 2662TIP3    H129401   4.826   4.193   1.406  0.7787  1.5238 -2.8839
 2662TIP3    H229402   4.814   4.048   1.363  2.1753  0.5391 -0.2422
 2663TIP3   OH229403   6.133   3.135   3.795  0.1524 -0.2608  0.4556
 2663TIP3    H129404   6.115   3.115   3.703  1.7241  1.4347 -0.2988
 2663TIP3    H229405   6.049   3.166   3.830 -0.2749 -0.0855 -0.6745
 2664TIP3   OH229406   1.284   5.401   3.850 -0.1418  0.9052 -0.1397
 2664TIP3    H129407   1.281   5.441   3.937 -2.1177  0.0450  0.2244
 2664TIP3    H229408   1.370   5.359   3.846 -0.1016  0.7712  1.4779
 2665TIP3   OH229409   4.006   5.690  10.937  0.1248 -0.0596 -0.1633
 2665TIP3    H129410   3.964   5.754  10.879  0.8710  0.5560 -0.0384
 2665TIP3    H229411   4.100   5.711  10.932  0.2472 -0.2683  0.9256
 2666TIP3   OH229412   2.620   0.497   3.751  0.1319  0.0638 -0.3617
 2666TIP3    H129413   2.536   0.480   3.794  0.9940 -3.0497  0.3510
 2666TIP3    H229414   2.678   0.527   3.821  0.0037  0.8703 -0.5879
 2667TIP3   OH229415   1.960   4.967  14.494 -0.5411 -0.0913 -0.4467
 2667TIP3    H129416   1.972   5.061  14.480 -0.2687  0.0665  0.7815
 2667TIP3    H229417   1.880   4.946  14.445 -0.4507  0.7157 -0.9638
 2668TIP3   OH229418   4.297   3.059  13.307 -0.3361 -0.0377  0.7039
 2668TIP3    H129419   4.246   2.981  13.286 -0.4905 -0.3886  2.2727
 2668TIP3    H229420   4.249   3.131  13.264 -2.6129 -0.2651  2.6830
 2669TIP3   OH229421   2.053   5.027   2.512 -0.4973 -0.6606  0.3563
 2669TIP3    H129422   2.065   5.049   2.420  0.8284 -1.5460  0.2772
 2669TIP3    H229423   2.001   4.946   2.511  1.2979 -1.8924  0.2201
 2670TIP3   OH229424   2.895   6.243   2.426 -0.7047 -0.0669 -0.1198
 2670TIP3    H129425   2.911   6.328   2.466 -0.5715 -0.0940 -0.1162
 2670TIP3    H229426   2.839   6.197   2.489 -0.5720 -0.0744 -0.0079
 2671TIP3   OH229427   4.893   5.916   2.648  0.4836 -0.0924 -0.0156
 2671TIP3    H129428   4.823   5.931   2.584  0.4207  2.1157  0.5184
 2671TIP3    H229429   4.897   5.821   2.656 -1.6048 -0.3189 -0.9918
 2672TIP3   OH229430   5.341   6.216  13.424 -0.1728  0.1057 -0.3739
 2672TIP3    H129431   5.428   6.245  13.450  0.1650 -0.9931 -0.2113
 2672TIP3    H229432   5.317   6.272  13.350  1.9045 -1.4295 -2.3467
 2673TIP3   OH229433   2.957   4.144   1.033  0.4242  0.8107  0.1824
 2673TIP3    H129434   2.973   4.231   0.997  0.7756  0.5295 -0.3581
 2673TIP3    H229435   3.044   4.103   1.035  0.1402  0.1538 -0.4270
 2674TIP3   OH229436   6.436   0.719   4.835 -0.1891  0.0006  0.6869
 2674TIP3    H129437   6.517   0.764   4.860 -0.5951  0.9674  0.3186
 2674TIP3    H229438   6.399   0.689   4.917 -1.1549  2.5197  1.2613
 2675TIP3   OH229439   5.203   5.250   0.170  0.5521 -1.1289 -0.6291
 2675TIP3    H129440   5.158   5.167   0.158 -0.2750 -0.8906  0.6497
 2675TIP3    H229441   5.288   5.226   0.207 -0.8506 -1.3372  2.8280
 2676TIP3   OH229442   4.050   1.023  12.784 -0.4528  0.2186 -0.0280
 2676TIP3    H129443   4.064   1.090  12.717  1.6072  0.3094  0.4441
 2676TIP3    H229444   4.004   0.953  12.737  1.4029  0.0492 -1.7368
 2677TIP3   OH229445   6.584   1.968   4.227  0.7061  0.3571 -0.0648
 2677TIP3    H129446   6.678   1.978   4.241  0.9818 -0.9561 -0.8854
 2677TIP3    H229447   6.544   1.998   4.309  1.9139 -0.5527  0.8863
 2678TIP3   OH229448   1.676   6.651   3.451  0.0155 -0.2678  0.3964
 2678TIP3    H129449   1.703   6.568   3.411 -0.3944 -0.6381  0.8656
 2678TIP3    H229450   1.627   6.696   3.383 -0.5132 -0.8032  0.4105
 2679TIP3   OH229451   2.913   6.757   1.844 -0.2677 -0.1868 -0.2458
 2679TIP3    H129452   2.863   6.838   1.853  2.0549  1.2697  0.5365
 2679TIP3    H229453   2.959   6.747   1.928  0.6291 -1.4951 -0.8506
 2680TIP3   OH229454   5.810   1.028  13.670  0.4152  0.7719  0.6146
 2680TIP3    H129455   5.788   1.059  13.757 -2.3228  2.1818 -0.4565
 2680TIP3    H229456   5.820   0.933  13.680 -1.2138  0.7218  2.2337
 2681TIP3   OH229457   1.586   3.626  10.937 -0.5905  0.0391  0.2553
 2681TIP3    H129458   1.554   3.711  10.968  0.1693 -0.3368  2.2211
 2681TIP3    H229459   1.507   3.572  10.927 -0.8597  0.0430  2.0758
 2682TIP3   OH229460   4.426   2.401   6.573  0.1891  0.2670  0.0311
 2682TIP3    H129461   4.415   2.308   6.591  0.8379 -0.3660 -2.4567
 2682TIP3    H229462   4.438   2.441   6.659 -1.2800 -1.7507  1.2685
 2683TIP3   OH229463   1.743   6.776  12.683 -0.3712 -0.3661  0.2515
 2683TIP3    H129464   1.838   6.786  12.678 -0.2317 -1.6789 -0.1438
 2683TIP3    H229465   1.714   6.845  12.743  0.8759 -0.2244  0.7048
 2684TIP3   OH229466   6.258   5.160  14.505  0.1660  0.0429  0.1085
 2684TIP3    H129467   6.345   5.162  14.465  1.0076  1.6090  1.8258
 2684TIP3    H229468   6.230   5.069  14.497  0.9726 -0.0521 -2.4646
 2685TIP3   OH229469   0.607   1.583  12.544  0.0343  0.2294 -0.0941
 2685TIP3    H129470   0.595   1.675  12.522 -0.2060  0.7678  2.0324
 2685TIP3    H229471   0.519   1.546  12.540 -0.0686  0.4218  0.3047
 2686TIP3   OH229472   6.463   0.106   0.309  0.0065  0.1926 -0.1447
 2686TIP3    H129473   6.417   0.117   0.392 -0.3313  2.8956 -0.6102
 2686TIP3    H229474   6.554   0.130   0.328 -0.0900  0.9114 -0.5454
 2687TIP3   OH229475   4.098   4.226   4.839 -0.2496  0.7362 -0.6030
 2687TIP3    H129476   4.164   4.166   4.804  0.0197  1.2537 -0.9964
 2687TIP3    H229477   4.147   4.284   4.896 -0.5670  0.3784  0.0436
 2688TIP3   OH229478   1.112   5.539   5.789 -0.7574  0.4103 -0.2164
 2688TIP3    H129479   1.082   5.483   5.717  0.3649 -0.2322 -0.1908
 2688TIP3    H229480   1.192   5.580   5.756 -1.3135  1.6780 -0.0706
 2689TIP3   OH229481   2.485   6.155   5.797  0.3350 -0.3209  0.4827
 2689TIP3    H129482   2.426   6.197   5.860 -1.0571 -0.7495 -0.4793
 2689TIP3    H229483   2.523   6.082   5.844  0.3926  0.1908  1.2419
 2690TIP3   OH229484   0.857   3.500   0.062  0.2619 -0.2058  0.0946
 2690TIP3    H129485   0.829   3.417   0.024 -0.1184 -0.4124  0.7897
 2690TIP3    H229486   0.874   3.558  -0.012 -0.6866 -0.5177 -0.3700
 2691TIP3   OH229487   1.885   5.847  16.213  0.1709 -0.5657  0.3119
 2691TIP3    H129488   1.831   5.841  16.292 -0.4088  0.2268 -0.0108
 2691TIP3    H229489   1.970   5.812  16.239 -0.1005 -0.5848  1.2009
 2692TIP3   OH229490   4.970   0.920   0.046 -0.2227 -0.2309  0.8763
 2692TIP3    H129491   4.987   0.839   0.095 -0.3408 -0.4352  0.5854
 2692TIP3    H229492   4.884   0.948   0.074 -0.1769 -0.2025  0.9860
 2693TIP3   OH229493   3.263   1.526  11.193 -0.1954  0.1615  0.1226
 2693TIP3    H129494   3.304   1.572  11.266  0.9876 -0.9865  0.2223
 2693TIP3    H229495   3.268   1.434  11.217 -1.4336 -0.1186 -0.6096
 2694TIP3   OH229496   4.110   0.123  14.121 -0.0075  0.2518  0.3783
 2694TIP3    H129497   4.191   0.078  14.099  1.0638  2.2342  0.0141
 2694TIP3    H229498   4.065   0.136  14.037 -0.1545  0.1614  0.4411
 2695TIP3   OH229499   4.448   4.261  15.371  0.2503 -0.5102  0.1919
 2695TIP3    H129500   4.462   4.312  15.450  1.3119  2.5184 -1.7847
 2695TIP3    H229501   4.534   4.223  15.351  0.2875 -0.2655 -0.1248
 2696TIP3   OH229502   6.749   2.521   4.789  0.6592 -0.6729  0.0742
 2696TIP3    H129503   6.788   2.569   4.863 -0.7471  0.3184  0.2183
 2696TIP3    H229504   6.669   2.570   4.768 -0.4283 -2.4939 -0.3167
 2697TIP3   OH229505   5.724   0.348   2.422 -0.6056 -0.3084  1.1650
 2697TIP3    H129506   5.679   0.266   2.442 -0.5385 -1.0625 -1.3523
 2697TIP3    H229507   5.814   0.334   2.454 -1.3566  0.1165  3.6678
 2698TIP3   OH229508   5.194   0.542  13.520 -0.2366  0.0676 -0.3223
 2698TIP3    H129509   5.266   0.541  13.457  0.4495 -0.7359  0.4554
 2698TIP3    H229510   5.134   0.474  13.488 -0.3581  0.3187 -0.6330
 2699TIP3   OH229511   4.866   0.636   4.061 -0.2279  0.0296 -0.3177
 2699TIP3    H129512   4.915   0.669   3.986  1.3021 -2.2443 -0.3971
 2699TIP3    H229513   4.899   0.688   4.135  0.2166  0.4473 -0.7967
 2700TIP3   OH229514   1.735   0.418   2.240  0.4609  0.0880 -0.5049
 2700TIP3    H129515   1.771   0.381   2.160 -1.6407 -0.9448 -1.0253
 2700TIP3    H229516   1.671   0.483   2.211 -1.7376 -1.6350  0.1867
 2701TIP3   OH229517   4.318   3.959  13.006 -0.0299 -0.1786 -0.1720
 2701TIP3    H129518   4.306   4.024  13.075  0.1126  0.9925 -1.2129
 2701TIP3    H229519   4.351   3.881  13.051 -0.7597  0.2670  1.1802
 2702TIP3   OH229520   3.108   0.579  12.350  1.0616 -0.6871  0.1166
 2702TIP3    H129521   3.125   0.516  12.280 -0.4814 -2.9836  1.7016
 2702TIP3    H229522   3.024   0.553  12.387  1.1060  1.3651  1.9012
 2703TIP3   OH229523   0.269   6.107   4.764 -0.1305 -0.0140 -0.3274
 2703TIP3    H129524   0.325   6.137   4.836  0.6527 -1.5182 -0.2637
 2703TIP3    H229525   0.326   6.107   4.688  0.5559 -3.1392  0.0492
 2704TIP3   OH229526   6.028   0.255   0.178 -0.0625  0.6070  0.1996
 2704TIP3    H129527   6.036   0.329   0.237  0.1607  1.0462 -0.3743
 2704TIP3    H229528   6.052   0.290   0.092  2.0027 -0.5699  0.2289
 2705TIP3   OH229529   0.381   1.771  12.027 -0.8481  0.0755 -0.3231
 2705TIP3    H129530   0.416   1.713  12.095 -0.1570  1.9151  0.9746
 2705TIP3    H229531   0.412   1.732  11.945 -1.0125 -1.7571  0.4238
 2706TIP3   OH229532   2.720   5.372   4.327 -0.0438  0.4082  0.1577
 2706TIP3    H129533   2.689   5.451   4.283 -1.2681  0.6399  1.3689
 2706TIP3    H229534   2.814   5.387   4.339 -0.1662  1.4560 -0.0892
 2707TIP3   OH229535   4.976   2.101   3.128  0.2395  0.0274  0.8781
 2707TIP3    H129536   4.893   2.134   3.160  0.4802 -0.8599  2.5241
 2707TIP3    H229537   5.041   2.134   3.189  1.0334  0.2047 -0.0333
 2708TIP3   OH229538   5.694   4.895  12.160  0.5279  0.1955  0.2673
 2708TIP3    H129539   5.760   4.965  12.158  1.1972 -0.4359 -0.7707
 2708TIP3    H229540   5.673   4.878  12.068 -0.1311 -0.4943  0.5319
 2709TIP3   OH229541   2.172   2.533  13.200 -0.1635 -0.1834 -0.2655
 2709TIP3    H129542   2.081   2.551  13.221  0.6468  0.8572  2.8774
 2709TIP3    H229543   2.204   2.480  13.273  2.0542  0.4539 -0.6962
 2710TIP3   OH229544   6.708   3.499  16.568 -0.0080  0.3574  0.2363
 2710TIP3    H129545   6.754   3.415  16.569 -0.7200 -0.0413  1.1686
 2710TIP3    H229546   6.772   3.563  16.599  0.7683  0.3024 -1.2017
 2711TIP3   OH229547   4.465   2.852  16.101 -0.2018  0.1760 -0.0558
 2711TIP3    H129548   4.476   2.831  16.008  1.2125 -0.8054  0.3109
 2711TIP3    H229549   4.381   2.813  16.124  0.5727 -1.7419 -0.3552
 2712TIP3   OH229550   3.861   1.751  11.729 -0.1229  0.3255 -0.0436
 2712TIP3    H129551   3.931   1.699  11.768  1.0764  1.5820 -0.3938
 2712TIP3    H229552   3.783   1.697  11.735  1.5826 -2.9396 -3.2906
 2713TIP3   OH229553   5.510   0.791  13.330  0.1169  0.0347 -0.0244
 2713TIP3    H129554   5.479   0.843  13.404  0.0297  0.0940 -0.1029
 2713TIP3    H229555   5.569   0.850  13.283 -0.5820  0.3324 -0.5538
 2714TIP3   OH229556   3.489   4.050  15.597  0.2110 -0.1049  0.2851
 2714TIP3    H129557   3.518   3.993  15.526 -1.8861  2.4949 -2.9137
 2714TIP3    H229558   3.520   4.137  15.573 -2.9332  1.3537  1.0072
 2715TIP3   OH229559   6.214   0.432  12.905 -0.1282  0.0247 -0.1478
 2715TIP3    H129560   6.296   0.427  12.954  0.3683  0.7797 -0.8612
 2715TIP3    H229561   6.164   0.355  12.932  0.4223  0.0581  0.9986
 2716TIP3   OH229562   0.506   4.294  17.103  0.1212 -0.8408  0.0190
 2716TIP3    H129563   0.590   4.319  17.064  0.1434 -0.3702  0.3539
 2716TIP3    H229564   0.441   4.320  17.037  0.3043 -2.3665 -0.7856
 2717TIP3   OH229565   4.301   4.728  16.554 -0.1899  0.3563 -0.1548
 2717TIP3    H129566   4.212   4.758  16.540  0.1609  1.7572  0.4920
 2717TIP3    H229567   4.304   4.701  16.646  0.2173  0.9466  0.0116
 2718TIP3   OH229568   6.088   2.827   3.113 -0.0034  0.3538  0.0261
 2718TIP3    H129569   6.034   2.752   3.090 -1.7760  2.0580 -1.7872
 2718TIP3    H229570   6.150   2.794   3.178 -1.9115 -2.1808  0.6821
 2719TIP3   OH229571   1.294   6.086   5.691 -0.1172 -0.2138  0.2055
 2719TIP3    H129572   1.266   6.171   5.658 -0.3685  0.4748  2.0272
 2719TIP3    H229573   1.261   6.084   5.781 -1.2306 -2.7920 -0.1698
 2720TIP3   OH229574   5.663   4.944  16.065 -0.0562 -0.3890 -0.5532
 2720TIP3    H129575   5.657   5.027  16.017  0.5943 -0.2122 -0.3460
 2720TIP3    H229576   5.574   4.909  16.064 -0.6019  0.8968  0.4073
 2721TIP3   OH229577   2.486   6.499   6.525  0.0042 -0.0582 -0.1886
 2721TIP3    H129578   2.395   6.477   6.508  0.2963 -0.2459 -1.7518
 2721TIP3    H229579   2.504   6.574   6.467  0.7060  0.2967  0.4629
 2722TIP3   OH229580   2.932   2.065   3.945  0.0134  0.6540 -0.0357
 2722TIP3    H129581   2.837   2.073   3.956  0.0799  4.3004 -0.8390
 2722TIP3    H229582   2.943   1.992   3.885 -2.2328 -0.1942  0.4670
 2723TIP3   OH229583   5.990   6.263  17.231  0.3489  0.4336 -0.3683
 2723TIP3    H129584   6.030   6.176  17.233 -0.1580 -0.0557 -4.0893
 2723TIP3    H229585   6.059   6.322  17.259  1.0204 -1.0354  1.2831
 2724TIP3   OH229586   6.366   0.739   3.196  0.5882 -0.2615 -0.1720
 2724TIP3    H129587   6.398   0.662   3.244  3.1707  0.4236 -0.6356
 2724TIP3    H229588   6.271   0.735   3.205  0.6746 -3.1042  0.4168
 2725TIP3   OH229589   1.168   2.117  13.806 -0.0267  0.2157  0.1014
 2725TIP3    H129590   1.224   2.066  13.747  1.2957 -0.3059  1.7457
 2725TIP3    H229591   1.118   2.174  13.747  1.2912 -0.2031 -1.5190
 2726TIP3   OH229592   5.195   2.944   1.574  0.0888  0.0665  0.3433
 2726TIP3    H129593   5.218   2.902   1.657  2.6213  0.5280 -0.0352
 2726TIP3    H229594   5.247   3.025   1.573 -0.7012  0.5960 -1.2213
 2727TIP3   OH229595   0.452   1.223   1.689 -0.0053  0.1899  0.1251
 2727TIP3    H129596   0.489   1.244   1.775 -2.0114  0.6990  0.9228
 2727TIP3    H229597   0.492   1.139   1.666  2.1739  1.0411  0.5434
 2728TIP3   OH229598   0.165   3.220  12.089  0.2543  0.1718  0.2226
 2728TIP3    H129599   0.141   3.142  12.039 -0.4360  0.7440 -0.3720
 2728TIP3    H229600   0.114   3.214  12.169 -0.3045  0.3392 -0.1175
 2729TIP3   OH229601   4.074   0.803   4.409  0.5529 -0.5489  0.1139
 2729TIP3    H129602   4.008   0.796   4.478  0.8760 -0.8697  0.3963
 2729TIP3    H229603   4.106   0.893   4.415 -0.9319  0.0838 -1.0238
 2730TIP3   OH229604   4.607   3.717  11.820 -0.7171  0.4389  0.3212
 2730TIP3    H129605   4.701   3.701  11.809 -1.1158 -1.2951 -1.0879
 2730TIP3    H229606   4.578   3.643  11.873 -1.4759  0.2886 -0.2930
 2731TIP3   OH229607   3.560   4.127   0.227 -0.6052 -0.3809  0.0547
 2731TIP3    H129608   3.573   4.051   0.170 -1.6522  1.1731 -2.4327
 2731TIP3    H229609   3.545   4.200   0.167  1.1683  2.0304  2.2880
 2732TIP3   OH229610   5.219   0.962  12.641 -0.4544 -0.2866 -0.0907
 2732TIP3    H129611   5.190   0.911  12.717  0.8663 -1.4357 -0.3117
 2732TIP3    H229612   5.151   1.028  12.629 -1.1984 -0.7149  1.4702
 2733TIP3   OH229613   5.753   2.454   2.540 -0.5161  0.1981 -0.7839
 2733TIP3    H129614   5.770   2.369   2.500 -0.6619 -0.1800 -0.0679
 2733TIP3    H229615   5.836   2.502   2.531 -0.7121  0.3207 -1.9903
 2734TIP3   OH229616   0.519   0.666   2.894  0.0985  0.4020  0.7378
 2734TIP3    H129617   0.574   0.744   2.900  1.5335 -0.2193 -2.5192
 2734TIP3    H229618   0.434   0.698   2.863  0.9912  0.6606 -1.5929
 2735TIP3   OH229619   3.856   5.704  12.054 -0.3252 -0.0465 -0.1467
 2735TIP3    H129620   3.764   5.729  12.053  0.2669  2.4052 -1.5796
 2735TIP3    H229621   3.864   5.640  11.983 -1.2462 -1.9238  1.3605
 2736TIP3   OH229622   6.366   5.265  11.533 -0.3315 -0.5569  0.5773
 2736TIP3    H129623   6.340   5.257  11.625 -1.3302  0.6057  0.4242
 2736TIP3    H229624   6.358   5.176  11.498 -1.8056 -0.6910  1.1651
 2737TIP3   OH229625   2.898   1.727   2.608 -0.2313 -0.7666  0.1284
 2737TIP3    H129626   2.908   1.641   2.648 -1.5412  0.0295  2.3579
 2737TIP3    H229627   2.913   1.712   2.515  1.0041 -3.1148  0.6258
 2738TIP3   OH229628   1.503   2.752  16.356  0.0248 -0.2549  0.4196
 2738TIP3    H129629   1.497   2.842  16.388  0.5517  0.3602 -1.0959
 2738TIP3    H229630   1.486   2.759  16.262 -0.8192 -1.8760  0.4171
 2739TIP3   OH229631   4.730   3.792   5.650 -0.1530  0.6044  0.0921
 2739TIP3    H129632   4.669   3.779   5.723 -0.6984 -0.4308 -0.5294
 2739TIP3    H229633   4.816   3.771   5.687 -0.6791 -2.2605 -0.1207
 2740TIP3   OH229634   4.738   1.064  13.872  0.8232  0.6708 -0.9047
 2740TIP3    H129635   4.818   1.038  13.826  0.7317 -0.1552 -0.6193
 2740TIP3    H229636   4.724   1.155  13.846  1.9706  0.9020 -0.7971
 2741TIP3   OH229637   6.408   1.009   0.878 -0.5895  0.0932  0.4060
 2741TIP3    H129638   6.480   0.949   0.857 -1.2813 -0.2569 -1.0900
 2741TIP3    H229639   6.381   1.045   0.794 -2.6922 -0.4058  0.8060
 2742TIP3   OH229640   1.040   1.527  11.206  0.4258 -0.6763 -0.1527
 2742TIP3    H129641   0.997   1.605  11.173  0.5690 -0.7933 -0.6235
 2742TIP3    H229642   1.117   1.516  11.150 -0.4131 -2.0247 -1.1193
 2743TIP3   OH229643   6.148   6.524   0.270 -0.2394  0.3560  0.0105
 2743TIP3    H129644   6.242   6.509   0.276 -0.0485  0.6348 -1.6533
 2743TIP3    H229645   6.130   6.523   0.176 -2.1505 -1.1719  0.3147
 2744TIP3   OH229646   5.708   3.757   2.035  0.2394 -0.3600  0.3720
 2744TIP3    H129647   5.697   3.842   1.993 -0.3878 -1.3342 -1.5339
 2744TIP3    H229648   5.756   3.776   2.115  0.2223  1.7631 -0.0706
 2745TIP3   OH229649   0.733   0.516   2.812  1.2280  0.8762 -0.2537
 2745TIP3    H129650   0.806   0.568   2.845  1.6337  1.2132 -1.6393
 2745TIP3    H229651   0.655   0.567   2.836  1.4957  1.0516  0.2665
 2746TIP3   OH229652   0.779   4.120   1.953 -0.1892  0.1507  0.2748
 2746TIP3    H129653   0.832   4.080   1.885 -0.4709  0.4091 -0.0980
 2746TIP3    H229654   0.691   4.123   1.917  0.2447  3.5669 -0.8418
 2747TIP3   OH229655   1.969   5.216   3.582 -0.6826 -0.6863  0.3581
 2747TIP3    H129656   1.958   5.297   3.631 -0.0211  0.3801 -1.1535
 2747TIP3    H229657   2.043   5.172   3.624  1.2104  1.1911 -0.8216
 2748TIP3   OH229658   0.765   6.269   4.426  0.1331  0.1015  0.3121
 2748TIP3    H129659   0.784   6.306   4.340 -0.9177  1.6438  0.7001
 2748TIP3    H229660   0.841   6.290   4.479  0.8138 -0.9088 -0.2305
 2749TIP3   OH229661   5.018   4.592  15.466 -0.1120  0.2034 -0.2471
 2749TIP3    H129662   5.000   4.653  15.395  1.3926 -0.0331 -0.8837
 2749TIP3    H229663   5.097   4.627  15.508 -0.2886 -0.3089  0.5286
 2750TIP3   OH229664   3.414   3.963   1.896 -0.4037  0.4007  0.1863
 2750TIP3    H129665   3.326   3.962   1.934  0.4837  2.0626  2.4911
 2750TIP3    H229666   3.402   3.997   1.808 -2.1037  0.2195  0.3257
 2751TIP3   OH229667   2.006   0.352   0.190  0.6374  1.0118 -0.3072
 2751TIP3    H129668   2.097   0.336   0.164  0.8692  1.6380  0.1034
 2751TIP3    H229669   1.995   0.447   0.183 -0.3173  0.8393 -1.4134
 2752TIP3   OH229670   0.859   0.392   4.421 -0.0101  0.0721  0.4063
 2752TIP3    H129671   0.781   0.347   4.454  0.1590  0.0718  0.8071
 2752TIP3    H229672   0.905   0.325   4.370 -0.5132  0.2027 -0.2400
 2753TIP3   OH229673   0.129   0.970  14.196  0.2440  0.5673  0.6863
 2753TIP3    H129674   0.215   0.999  14.226 -0.2998  0.1612  2.8268
 2753TIP3    H229675   0.126   0.877  14.219  0.5140 -0.3971 -2.6063
 2754TIP3   OH229676   3.684   4.876   2.198  0.2730 -0.1386 -0.5131
 2754TIP3    H129677   3.759   4.831   2.236 -0.6893 -1.1644  0.2602
 2754TIP3    H229678   3.690   4.966   2.230 -0.1072 -0.7917  1.5483
 2755TIP3   OH229679   3.344   0.886   3.156 -0.1579  0.1357  0.1745
 2755TIP3    H129680   3.432   0.881   3.117  0.1488 -1.7904  1.0117
 2755TIP3    H229681   3.351   0.958   3.220  0.4380  0.7890 -0.6016
 2756TIP3   OH229682   3.472   1.102   4.030 -0.6952 -0.0165 -0.2343
 2756TIP3    H129683   3.535   1.149   3.976 -0.2210 -1.1384 -0.7030
 2756TIP3    H229684   3.386   1.130   3.997 -0.4398 -1.5400 -2.4475
 2757TIP3   OH229685   2.346   1.682   5.502 -0.3545  0.2384  0.7831
 2757TIP3    H129686   2.340   1.704   5.410  0.6613  1.5463  1.0075
 2757TIP3    H229687   2.407   1.608   5.506 -1.5845 -0.8468  0.2979
 2758TIP3   OH229688   0.659   2.700   4.301  0.0792  0.0380 -0.1994
 2758TIP3    H129689   0.739   2.649   4.291 -0.5115 -0.7349 -1.1501
 2758TIP3    H229690   0.650   2.747   4.218  0.5359  1.6016  0.6069
 2759TIP3   OH229691   4.135   2.573   2.384  0.0935 -0.5969  0.1630
 2759TIP3    H129692   4.155   2.601   2.473  0.5810  0.4747 -0.2682
 2759TIP3    H229693   4.217   2.584   2.336  0.2838 -2.6541 -0.0954
 2760TIP3   OH229694   1.335   5.605  14.103 -0.2256  0.2912  0.1490
 2760TIP3    H129695   1.262   5.572  14.049  0.2430  0.7675 -0.7978
 2760TIP3    H229696   1.382   5.665  14.045  1.0120 -0.1227  0.7111
 2761TIP3   OH229697   1.452   0.495  12.448  0.0836 -0.3576 -0.1763
 2761TIP3    H129698   1.503   0.508  12.528 -0.7308  0.4153  0.2329
 2761TIP3    H229699   1.409   0.411  12.462 -1.3358  0.5000  0.9533
 2762TIP3   OH229700   1.763   5.187   3.138 -0.1006  0.1676  0.5291
 2762TIP3    H129701   1.711   5.138   3.202 -1.2118  0.4779 -0.1163
 2762TIP3    H229702   1.791   5.121   3.075 -0.7008  0.1828  0.2416
 2763TIP3   OH229703   1.661   3.703   2.916  0.3623 -1.0838 -0.2161
 2763TIP3    H129704   1.682   3.616   2.950  0.1567 -1.3748 -0.8168
 2763TIP3    H229705   1.740   3.730   2.869  0.3278 -1.0595 -0.2594
 2764TIP3   OH229706   0.510   0.528  12.303 -0.1321 -0.7942 -0.1630
 2764TIP3    H129707   0.462   0.539  12.220  0.5064  0.7584 -0.3536
 2764TIP3    H229708   0.469   0.589  12.363 -0.0941 -1.3707  0.4658
 2765TIP3   OH229709   0.157   4.280  14.809  0.0378 -0.2180  0.0327
 2765TIP3    H129710   0.203   4.357  14.776 -1.7887  1.6291  1.5834
 2765TIP3    H229711   0.171   4.282  14.903  0.0835 -1.9341  0.1044
 2766TIP3   OH229712   4.615   5.160  16.059  0.5685  0.7144  0.0235
 2766TIP3    H129713   4.645   5.090  16.001 -0.0336  0.3410  0.1600
 2766TIP3    H229714   4.682   5.228  16.050  1.8628 -0.3782  0.8684
 2767TIP3   OH229715   2.086   6.662   4.773  0.0486 -0.4007  0.2339
 2767TIP3    H129716   2.028   6.587   4.762 -2.3420  1.3257  0.3584
 2767TIP3    H229717   2.103   6.693   4.684 -1.4050  0.6167  0.2793
 2768TIP3   OH229718   1.269   0.221   2.548  0.0789 -0.3711 -0.1128
 2768TIP3    H129719   1.179   0.251   2.557  0.3990  0.2677  1.2230
 2768TIP3    H229720   1.298   0.204   2.638  1.7636  0.8760 -0.3656
 2769TIP3   OH229721   4.305   2.738  15.358 -0.4949 -0.8995 -1.1497
 2769TIP3    H129722   4.379   2.678  15.365 -0.4591 -0.8797 -1.3431
 2769TIP3    H229723   4.340   2.823  15.385 -0.4898 -0.9238 -1.0802
 2770TIP3   OH229724   2.870   4.834   2.197 -0.4391 -0.1425 -0.1758
 2770TIP3    H129725   2.795   4.776   2.183 -1.5542  1.3854 -0.7164
 2770TIP3    H229726   2.832   4.919   2.215  1.1680  0.9294 -1.5453
 2771TIP3   OH229727   6.413   5.770  13.995  0.3061 -0.1062  0.0443
 2771TIP3    H129728   6.362   5.691  14.006 -1.8193  1.0970 -0.6016
 2771TIP3    H229729   6.363   5.839  14.038  1.9777  0.9571  0.4158
 2772TIP3   OH229730   1.185   3.580  15.647  0.2730 -0.3459  0.1568
 2772TIP3    H129731   1.202   3.533  15.565  2.0591 -1.1700  0.9534
 2772TIP3    H229732   1.272   3.600  15.681 -0.4456 -0.0792  1.9075
 2773TIP3   OH229733   3.818   3.687  16.415  0.2949 -0.0409 -0.1300
 2773TIP3    H129734   3.905   3.683  16.376  0.4511 -1.5325  0.3308
 2773TIP3    H229735   3.761   3.718  16.345  1.5207  3.5211  0.2034
 2774TIP3   OH229736   2.993   5.087   5.995 -0.5482 -0.2177 -0.0520
 2774TIP3    H129737   2.913   5.092   6.048 -1.5399 -2.6726 -1.1621
 2774TIP3    H229738   2.987   5.161   5.934 -1.7679 -0.1388  0.1397
 2775TIP3   OH229739   3.285   3.061  15.442  0.2884 -0.1026  0.4509
 2775TIP3    H129740   3.257   2.989  15.497 -0.0975 -2.5490 -2.6903
 2775TIP3    H229741   3.206   3.112  15.426 -0.4958 -1.6681 -0.9345
 2776TIP3   OH229742   2.557   3.673   2.530  0.1540  0.3838 -0.5493
 2776TIP3    H129743   2.472   3.654   2.569 -0.5216  0.7713 -1.7865
 2776TIP3    H229744   2.580   3.595   2.480 -0.7169  1.1956 -2.3129
 2777TIP3   OH229745   2.731   3.136  10.976  0.1356 -0.4818  0.4160
 2777TIP3    H129746   2.664   3.071  10.955 -0.4291 -0.1309  1.0787
 2777TIP3    H229747   2.714   3.208  10.915  0.7076 -0.9082 -0.2596
 2778TIP3   OH229748   3.816   6.174   5.292 -0.1210 -1.0713  0.1706
 2778TIP3    H129749   3.729   6.134   5.296  0.5935 -2.6268  0.7229
 2778TIP3    H229750   3.828   6.214   5.378 -0.2355 -0.9529  0.1327
 2779TIP3   OH229751   4.101   4.843   0.936  0.3045 -0.1289  0.0123
 2779TIP3    H129752   4.162   4.845   0.862 -0.9008 -2.4143 -1.1613
 2779TIP3    H229753   4.108   4.754   0.970 -1.7406 -0.2117  0.3687
 2780TIP3   OH229754   4.894   4.499   5.614 -0.0549  0.1803 -0.1080
 2780TIP3    H129755   4.952   4.426   5.593  0.9529  0.8245  0.3486
 2780TIP3    H229756   4.931   4.573   5.566 -1.0766  0.4078 -0.5872
 2781TIP3   OH229757   2.541   3.313   1.576  0.1610  0.4163 -0.1770
 2781TIP3    H129758   2.452   3.282   1.592 -0.4899  1.5275 -1.4693
 2781TIP3    H229759   2.562   3.280   1.489  1.0785  0.0553  0.1717
 2782TIP3   OH229760   1.399   2.292   3.149 -0.8001  0.1334 -0.3549
 2782TIP3    H129761   1.475   2.321   3.200 -1.3562  1.0112 -0.0035
 2782TIP3    H229762   1.378   2.206   3.184 -2.2539  1.4327  2.1760
 2783TIP3   OH229763   5.966   4.488  16.679 -0.5963  0.6016 -0.1857
 2783TIP3    H129764   6.010   4.403  16.686 -1.4043  0.2407  0.7128
 2783TIP3    H229765   5.956   4.516  16.769 -2.6852  0.4175 -0.3198
 2784TIP3   OH229766   3.459   1.493   3.917  0.3449  0.5290  0.0965
 2784TIP3    H129767   3.472   1.537   3.833 -2.4441 -0.1129 -0.7727
 2784TIP3    H229768   3.518   1.418   3.914  0.3423  0.5652 -1.2605
 2785TIP3   OH229769   4.953   3.329  16.709  0.1424 -0.5851  0.0369
 2785TIP3    H129770   5.033   3.381  16.701 -0.7434  0.7704 -0.3160
 2785TIP3    H229771   4.955   3.270  16.633 -0.0978  0.7634 -1.0619
 2786TIP3   OH229772   0.515   4.292  16.043  0.4867  0.3896  0.0427
 2786TIP3    H129773   0.575   4.341  16.099  2.2202 -0.3996 -1.0289
 2786TIP3    H229774   0.571   4.258  15.972 -0.8484 -2.0397  0.0534
 2787TIP3   OH229775   1.993   6.590   3.950  0.6528  0.7773 -0.6425
 2787TIP3    H129776   1.953   6.574   4.036 -0.9750  2.7342 -0.9633
 2787TIP3    H229777   1.925   6.568   3.887  0.6535  2.4776 -1.2828
 2788TIP3   OH229778   2.328   6.563   3.737  0.2108 -0.1087  0.1809
 2788TIP3    H129779   2.244   6.519   3.719 -0.2923  0.0633  1.8883
 2788TIP3    H229780   2.388   6.491   3.757  0.2753 -0.1962 -0.3287
 2789TIP3   OH229781   6.501   5.196  13.857  0.6996  0.0380  0.2492
 2789TIP3    H129782   6.518   5.283  13.891  1.3079 -0.5722  1.5622
 2789TIP3    H229783   6.407   5.196  13.836  0.7189  1.0239  0.1330
 2790TIP3   OH229784   0.997   4.237  11.355 -0.2303  0.7095 -0.1959
 2790TIP3    H129785   0.933   4.170  11.330  0.3314  0.0101  0.1876
 2790TIP3    H229786   1.045   4.257  11.275 -2.1882  2.7059 -0.9843
 2791TIP3   OH229787   6.283   6.063  12.198  0.5903 -0.4524  0.2441
 2791TIP3    H129788   6.252   6.069  12.289  1.4923 -0.5665  0.5776
 2791TIP3    H229789   6.246   5.981  12.165  0.4535 -0.5355  0.5972
 2792TIP3   OH229790   1.881   0.614   3.063 -0.5445  0.1605  0.6898
 2792TIP3    H129791   1.822   0.544   3.091 -1.2136  0.0415 -0.9616
 2792TIP3    H229792   1.824   0.686   3.037 -0.2633 -0.8248 -3.3780
 2793TIP3   OH229793   1.911   0.572   2.730 -0.1839  0.7889  0.4004
 2793TIP3    H129794   1.909   0.494   2.785 -1.5165 -0.7320 -1.6836
 2793TIP3    H229795   1.917   0.539   2.641  0.4473  3.1280 -0.5033
 2794TIP3   OH229796   3.321   0.065   1.102 -0.3292  0.1695 -0.0690
 2794TIP3    H129797   3.228   0.086   1.110 -0.2515  0.2569  0.7565
 2794TIP3    H229798   3.329   0.021   1.017 -1.1721 -0.0896 -0.0245
 2795TIP3   OH229799   3.802   1.718   4.445  0.2760  0.0040 -0.0626
 2795TIP3    H129800   3.749   1.733   4.366  0.7002  0.8807 -0.1920
 2795TIP3    H229801   3.760   1.644   4.488 -0.7971  0.3930 -0.3978
 2796TIP3   OH229802   4.573   0.419   1.174 -0.6301 -0.7097 -0.5109
 2796TIP3    H129803   4.556   0.364   1.251  1.1300 -1.6512 -0.7395
 2796TIP3    H229804   4.515   0.494   1.185 -1.4800 -1.5377  0.9751
 2797TIP3   OH229805   3.407   6.103   5.792  0.2055 -0.0763  0.2518
 2797TIP3    H129806   3.328   6.158   5.793  0.8568  0.9207 -0.5476
 2797TIP3    H229807   3.380   6.023   5.746 -0.1158  0.6367 -0.8431
 2798TIP3   OH229808   5.171   4.929   1.791  0.2873  0.6027  1.0820
 2798TIP3    H129809   5.204   4.958   1.876  2.7803 -1.3778  0.9046
 2798TIP3    H229810   5.225   4.976   1.727  0.9899 -0.6853  0.7092
 2799TIP3   OH229811   0.512   0.078   3.289  0.1738  0.4140 -0.4511
 2799TIP3    H129812   0.469   0.157   3.320  0.1022 -0.6615  2.5895
 2799TIP3    H229813   0.451   0.040   3.226  0.3361  2.8151 -2.1766
 2800TIP3   OH229814   2.358   6.098  16.754 -0.4211 -0.2966 -0.1954
 2800TIP3    H129815   2.429   6.099  16.689  0.0410 -0.5505  0.3043
 2800TIP3    H229816   2.307   6.177  16.734  0.7897  0.6408  0.2986
 2801TIP3   OH229817   2.775   1.989   4.279  0.1557  0.0153 -0.8167
 2801TIP3    H129818   2.851   1.988   4.338  0.3340  1.7928 -0.9635
 2801TIP3    H229819   2.801   1.933   4.206  0.5580 -0.9312  0.0321
 2802TIP3   OH229820   6.470   1.868  16.259 -0.1420 -0.0080 -0.0817
 2802TIP3    H129821   6.395   1.884  16.201 -0.1288  0.7478  0.1001
 2802TIP3    H229822   6.504   1.955  16.278 -0.8701 -0.1199  2.0027
 2803TIP3   OH229823   0.691   5.335  13.141 -0.1438  0.2855 -0.0788
 2803TIP3    H129824   0.715   5.426  13.153 -1.7806  0.5289  2.0279
 2803TIP3    H229825   0.674   5.302  13.229 -0.6672 -1.7413 -0.8573
 2804TIP3   OH229826   0.037   1.169  11.104 -0.3114 -0.3721  0.2696
 2804TIP3    H129827  -0.013   1.197  11.027  0.9732  2.1668  0.2406
 2804TIP3    H229828   0.109   1.118  11.068  0.2982  0.8208 -0.2758
 2805TIP3   OH229829   0.752   3.379  11.468 -0.5566 -0.0622 -0.5073
 2805TIP3    H129830   0.813   3.452  11.480 -0.3291 -0.0198 -1.7568
 2805TIP3    H229831   0.713   3.396  11.382 -2.9624  0.3661  0.5944
 2806TIP3   OH229832   4.615   0.523   5.544 -0.0690 -0.3253  0.1754
 2806TIP3    H129833   4.641   0.510   5.635 -0.1653  1.0008  0.3985
 2806TIP3    H229834   4.553   0.595   5.546 -1.6613 -1.5946 -0.7079
 2807TIP3   OH229835   5.697   2.813  15.037  0.4753  0.0026  0.2896
 2807TIP3    H129836   5.713   2.720  15.020  2.3018  0.2528  0.4431
 2807TIP3    H229837   5.739   2.829  15.122 -1.8199  0.4963  1.4293
 2808TIP3   OH229838   2.875   2.522  16.654  0.5555  0.1660  0.0870
 2808TIP3    H129839   2.918   2.438  16.639  0.5273 -0.0025  0.9049
 2808TIP3    H229840   2.934   2.569  16.714 -0.8326 -0.4749  2.0654
 2809TIP3   OH229841   0.852   2.842  15.334 -0.3378 -0.2586 -0.6597
 2809TIP3    H129842   0.882   2.752  15.323 -1.7122 -0.9616  0.9347
 2809TIP3    H229843   0.830   2.849  15.427  0.9840  2.1478 -0.4462
 2810TIP3   OH229844   3.775   3.316   5.380  0.3455  0.3024 -0.5693
 2810TIP3    H129845   3.717   3.282   5.447 -1.4139  2.3561 -0.9394
 2810TIP3    H229846   3.719   3.330   5.304  1.4355  1.7812 -1.1540
 2811TIP3   OH229847   5.548   1.188  14.846 -0.2040 -0.9900  0.1619
 2811TIP3    H129848   5.475   1.233  14.803 -0.1135 -0.8685  0.1350
 2811TIP3    H229849   5.625   1.239  14.820 -0.2024 -0.6269  0.8612
 2812TIP3   OH229850   2.410   2.141  17.040 -0.2288 -0.1248 -0.0337
 2812TIP3    H129851   2.340   2.078  17.025  0.2594 -1.1173  1.6588
 2812TIP3    H229852   2.365   2.222  17.065 -0.8307 -1.1327  2.4585
 2813TIP3   OH229853   3.088   3.409   3.762 -0.4727  0.3183 -0.1159
 2813TIP3    H129854   3.033   3.482   3.792  0.4446  0.9048  0.1879
 2813TIP3    H229855   3.177   3.445   3.759  0.0251 -0.8237  0.1643
 2814TIP3   OH229856   1.682   3.036  15.688 -0.2080 -0.4942  0.1198
 2814TIP3    H129857   1.681   3.129  15.713 -0.8866  0.0555 -1.7737
 2814TIP3    H229858   1.600   3.001  15.723 -0.4879 -0.0929 -0.1279
 2815TIP3   OH229859   0.959   5.349  15.551 -0.1692 -0.4936  0.4630
 2815TIP3    H129860   1.041   5.387  15.519 -0.0911 -0.4125  0.7601
 2815TIP3    H229861   0.894   5.373  15.484 -0.3320  1.0219  1.1134
 2816TIP3   OH229862   2.443   1.019   1.929  0.4913  0.3796 -0.2265
 2816TIP3    H129863   2.490   0.951   1.976  0.7216  1.7368  1.6094
 2816TIP3    H229864   2.483   1.019   1.841  2.1068 -0.2516  0.4667
 2817TIP3   OH229865   0.952   6.638   4.316  0.1147  0.2043  0.3099
 2817TIP3    H129866   0.887   6.693   4.360  1.9030  1.7269  1.2065
 2817TIP3    H229867   0.917   6.624   4.228 -0.9287  1.8765  0.4210
 2818TIP3   OH229868   0.250   2.864   4.122 -0.0624  0.1464 -0.0667
 2818TIP3    H129869   0.240   2.816   4.040 -0.1029  1.3443 -0.7843
 2818TIP3    H229870   0.297   2.944   4.098  0.0837  0.4330  1.1096
 2819TIP3   OH229871   4.792   6.405  13.839 -0.1977  0.2821  0.3789
 2819TIP3    H129872   4.759   6.453  13.763 -0.1676  0.5690  0.5429
 2819TIP3    H229873   4.754   6.451  13.914 -2.1231 -1.3870  0.5014
 2820TIP3   OH229874   2.573   0.379   1.348 -0.5353 -0.2519  0.5636
 2820TIP3    H129875   2.522   0.300   1.362 -0.6554  0.0006  1.6166
 2820TIP3    H229876   2.540   0.441   1.413 -1.2246  1.0574 -0.9699
 2821TIP3   OH229877   1.512   5.827  14.152 -0.5658  0.1326  0.4206
 2821TIP3    H129878   1.571   5.766  14.107 -0.9343  0.3478 -0.3541
 2821TIP3    H229879   1.563   5.857  14.227  0.5670  0.8125 -0.5879
 2822TIP3   OH229880   2.117   3.126  16.112  0.3935  0.5642 -0.0843
 2822TIP3    H129881   2.159   3.148  16.195  0.6086 -4.1813  1.3874
 2822TIP3    H229882   2.189   3.095  16.057 -0.2425 -0.6626 -0.2613
 2823TIP3   OH229883   1.194   3.304   0.274 -0.6818 -0.8311 -0.1218
 2823TIP3    H129884   1.279   3.270   0.302 -0.5769 -1.9110 -1.6382
 2823TIP3    H229885   1.199   3.306   0.178 -1.8953  0.3571 -0.1893
 2824TIP3   OH229886   3.930   0.616  16.464 -0.2138  0.5070 -0.4712
 2824TIP3    H129887   4.008   0.623  16.519  0.1144  1.3479 -1.0192
 2824TIP3    H229888   3.965   0.608  16.375 -0.7532  0.7403 -0.7035
 2825TIP3   OH229889   6.644   0.139  15.282 -0.4758  0.0595 -0.3672
 2825TIP3    H129890   6.567   0.168  15.232  0.2972  0.7782 -1.1875
 2825TIP3    H229891   6.609   0.082  15.350 -1.6433 -0.3959 -1.3168
 2826TIP3   OH229892   5.864   0.963   4.323 -0.0730  0.3886 -0.2169
 2826TIP3    H129893   5.795   0.987   4.261  0.8151 -0.8137 -1.7299
 2826TIP3    H229894   5.933   0.924   4.269  1.4544  0.7856  1.3506
 2827TIP3   OH229895   3.256   0.145   2.033 -0.2167 -0.0345 -0.5370
 2827TIP3    H129896   3.217   0.223   1.994 -0.7504  0.9332  1.7682
 2827TIP3    H229897   3.189   0.077   2.021  0.7268 -0.6016 -3.6295
 2828TIP3   OH229898   5.171   1.184  16.993  0.3509  0.0396 -0.3122
 2828TIP3    H129899   5.103   1.222  16.936  1.4853  1.2013 -0.9431
 2828TIP3    H229900   5.156   1.224  17.078  0.1395  0.1740 -0.4114
 2829TIP3   OH229901   1.749   1.041  11.832 -0.1017 -0.4154  0.3934
 2829TIP3    H129902   1.758   1.082  11.746 -2.9327  2.0240  1.0585
 2829TIP3    H229903   1.833   1.057  11.875  0.7357 -0.0819 -1.2899
 2830TIP3   OH229904   6.748   1.590   3.918  0.5417  0.7447 -0.4285
 2830TIP3    H129905   6.722   1.676   3.950  0.2968  0.6368 -0.3307
 2830TIP3    H229906   6.693   1.576   3.840  0.7794  0.7945 -0.6072
 2831TIP3   OH229907   3.854   4.071  16.595  0.1670  0.1173 -0.2990
 2831TIP3    H129908   3.861   4.019  16.515 -0.6326 -0.0218 -0.2849
 2831TIP3    H229909   3.832   4.159  16.565  2.0884  0.6391 -0.3643
 2832TIP3   OH229910   3.660   0.878  11.612 -0.5270  0.5150 -0.4510
 2832TIP3    H129911   3.706   0.953  11.575  2.5278 -0.5079  0.9005
 2832TIP3    H229912   3.730   0.816  11.634 -2.8109 -2.2986 -0.5154
 2833TIP3   OH229913   5.818   4.925  12.887  0.1657  0.4700 -0.6235
 2833TIP3    H129914   5.801   4.895  12.798  2.2232  0.1811 -0.9585
 2833TIP3    H229915   5.739   4.973  12.911 -0.8798 -0.3631 -2.1804
 2834TIP3   OH229916   6.330   3.562  16.487  0.3545  0.0085  0.1244
 2834TIP3    H129917   6.293   3.507  16.556  2.3839 -0.4580  0.9113
 2834TIP3    H229918   6.402   3.609  16.529  1.7346 -0.3850 -1.6773
 2835TIP3   OH229919   4.581   0.628   2.462 -0.2163  0.3170  0.2767
 2835TIP3    H129920   4.604   0.633   2.369  0.6774  0.1956  0.4845
 2835TIP3    H229921   4.553   0.716   2.485 -0.1130  0.4294 -0.0242
 2836TIP3   OH229922   1.369   4.630   2.659  0.2057 -0.5809 -0.5195
 2836TIP3    H129923   1.382   4.696   2.591  0.4470 -0.7002 -0.5861
 2836TIP3    H229924   1.420   4.554   2.631 -0.6349 -1.0566 -0.8006
 2837TIP3   OH229925   0.761   6.322   2.499 -0.3939  0.5788  0.0465
 2837TIP3    H129926   0.841   6.270   2.495  0.0636  1.2956 -0.3588
 2837TIP3    H229927   0.790   6.412   2.484 -1.4900  0.6718 -1.8028
 2838TIP3   OH229928   3.857   6.264   5.541 -0.5219 -0.0702 -0.3096
 2838TIP3    H129929   3.891   6.340   5.587  1.2733  0.3869 -2.2481
 2838TIP3    H229930   3.782   6.236   5.593 -0.9124  2.6834  0.7679
 2839TIP3   OH229931   1.570   1.116   6.368  0.3740 -0.0844  0.1255
 2839TIP3    H129932   1.623   1.169   6.308 -0.0633  0.1632 -0.0443
 2839TIP3    H229933   1.625   1.107   6.446  1.8189 -2.1532 -1.0590
 2840TIP3   OH229934   0.150   4.096  17.121  0.0622 -0.4525  0.3793
 2840TIP3    H129935   0.197   4.021  17.159  0.2536 -0.7411 -0.4176
 2840TIP3    H229936   0.191   4.110  17.036  0.3270  0.8504  0.6991
 2841TIP3   OH229937   6.111   6.354  16.687  0.4671  0.1589 -0.2841
 2841TIP3    H129938   6.157   6.438  16.686  0.4688  0.1579 -0.8408
 2841TIP3    H229939   6.179   6.290  16.666  0.1766  0.1872 -1.4012
 2842TIP3   OH229940   1.173   3.132   6.706  0.2478  0.3714 -0.1830
 2842TIP3    H129941   1.078   3.132   6.709  0.2644  1.0563  0.4804
 2842TIP3    H229942   1.195   3.070   6.636 -0.7136  1.7012 -1.7324
 2843TIP3   OH229943   5.833   4.863  13.950 -0.1869  0.6764 -0.4333
 2843TIP3    H129944   5.787   4.792  13.994  1.0272  0.5243  0.6296
 2843TIP3    H229945   5.832   4.839  13.858  0.4760 -0.8733 -0.0540
 2844TIP3   OH229946   3.109   5.516  11.363  0.2235  0.0059  0.5880
 2844TIP3    H129947   3.158   5.456  11.419  3.6833 -2.1243 -4.0449
 2844TIP3    H229948   3.049   5.461  11.314  0.3742  0.9922 -0.7606
 2845TIP3   OH229949   1.435   5.201   2.841 -0.0640  0.7551 -0.1046
 2845TIP3    H129950   1.426   5.272   2.904 -0.5128  0.5029  0.1175
 2845TIP3    H229951   1.345   5.179   2.816 -0.0956 -1.2039  1.4793
 2846TIP3   OH229952   6.628   4.865  12.912 -0.5877 -0.1428 -0.0291
 2846TIP3    H129953   6.573   4.944  12.912  1.3356  1.2753  0.1257
 2846TIP3    H229954   6.591   4.811  12.842 -1.0585  1.5753 -1.1953
 2847TIP3   OH229955   3.110   1.859  16.618 -0.1328  0.0974 -0.3501
 2847TIP3    H129956   3.203   1.844  16.600 -0.2721 -1.6613  0.1929
 2847TIP3    H229957   3.069   1.860  16.532  0.1509 -1.1229 -0.5227
 2848TIP3   OH229958   3.555   3.609  15.997 -0.5495  0.2989  0.1841
 2848TIP3    H129959   3.569   3.549  15.924 -1.0443  1.0391 -0.5426
 2848TIP3    H229960   3.542   3.695  15.955  0.5997  1.0089  1.2113
 2849TIP3   OH229961   5.538   2.129   2.466 -0.0704  0.0476 -0.2281
 2849TIP3    H129962   5.525   2.120   2.371  0.0155  0.1653 -0.2516
 2849TIP3    H229963   5.452   2.158   2.499 -0.3015 -0.6866 -0.1708
 2850TIP3   OH229964   3.729   4.555  11.480 -0.7654  0.1851  0.2109
 2850TIP3    H129965   3.782   4.624  11.520 -1.4868 -0.2168  1.9704
 2850TIP3    H229966   3.792   4.490  11.450 -0.2155 -0.2525  2.2074
 2851TIP3   OH229967   0.178   4.900   4.946 -0.3598  0.4687  0.2958
 2851TIP3    H129968   0.219   4.957   4.881 -0.0922  0.7022  0.6651
 2851TIP3    H229969   0.085   4.902   4.923  0.0525 -2.2595 -2.2749
 2852TIP3   OH229970   3.808   1.682  12.415  0.4711  0.5505 -0.2792
 2852TIP3    H129971   3.845   1.770  12.414 -1.1276  1.2557 -1.7235
 2852TIP3    H229972   3.714   1.695  12.428  0.1721 -0.9363 -0.7672
 2853TIP3   OH229973   5.037   5.464   3.121 -0.2360 -0.0614 -0.1945
 2853TIP3    H129974   5.064   5.553   3.146  1.1473 -0.7061  0.6958
 2853TIP3    H229975   4.972   5.440   3.187  0.2915 -0.1646  0.2927
 2854TIP3   OH229976   1.790   4.750   0.832 -1.0041 -0.3533 -0.0784
 2854TIP3    H129977   1.868   4.789   0.872 -1.5521 -0.4011  1.0495
 2854TIP3    H229978   1.805   4.656   0.837 -1.9114 -0.4371  1.8005
 2855TIP3   OH229979   4.719   0.895  12.783  0.0270 -0.0109 -0.4366
 2855TIP3    H129980   4.731   0.828  12.850  2.5057  0.5824 -0.1988
 2855TIP3    H229981   4.710   0.977  12.831  1.2056  0.3360 -0.7770
 2856TIP3   OH229982   2.305   5.700  15.980  0.8081  0.0726 -0.0958
 2856TIP3    H129983   2.293   5.793  15.961  0.1969  0.5395  2.2327
 2856TIP3    H229984   2.239   5.656  15.925  0.0975  1.1588 -0.1494
 2857TIP3   OH229985   0.794   4.221  11.561  0.0250 -0.5434 -0.6261
 2857TIP3    H129986   0.878   4.224  11.515  0.0696 -0.9609 -0.5746
 2857TIP3    H229987   0.815   4.245  11.651  0.0975 -0.6871 -0.6046
 2858TIP3   OH229988   1.175   4.016  10.995 -0.0276  0.3988 -0.5164
 2858TIP3    H129989   1.110   4.086  10.987 -0.3890  0.2284  0.7025
 2858TIP3    H229990   1.123   3.936  11.001  0.1645  0.3624  1.7406
 2859TIP3   OH229991   0.103   4.077  14.626  0.2489 -0.0649 -0.1116
 2859TIP3    H129992   0.125   4.006  14.686 -0.2009 -0.2815 -0.2040
 2859TIP3    H229993   0.135   4.156  14.670  1.5140 -0.4002 -0.3868
 2860TIP3   OH229994   0.884   0.064  12.848  0.6639  0.8560  0.2731
 2860TIP3    H129995   0.796   0.100  12.836  1.6028  2.9793 -0.8744
 2860TIP3    H229996   0.915   0.046  12.760  0.5858 -2.1402  0.7708
 2861TIP3   OH229997   5.252   3.437  15.075  0.0186  0.1057  0.2236
 2861TIP3    H129998   5.272   3.528  15.054  0.2154 -0.2524 -1.2552
 2861TIP3    H229999   5.237   3.395  14.990  0.3958 -1.3509  0.8390
 2862TIP3   OH230000   4.411   1.171  14.273 -0.2228 -0.3713 -0.0552
 2862TIP3    H130001   4.488   1.162  14.330 -0.0109 -0.3783 -0.3449
 2862TIP3    H230002   4.443   1.217  14.196 -0.5269 -0.3073 -0.1455
 2863TIP3   OH230003   1.565   5.042  14.204  0.3138 -0.2101  0.3178
 2863TIP3    H130004   1.524   4.964  14.167 -0.2793  0.0071  0.5071
 2863TIP3    H230005   1.497   5.110  14.199  0.6015  0.1178  0.7612
 2864TIP3   OH230006   0.804   0.112  14.163  0.2678  0.5456 -0.4139
 2864TIP3    H130007   0.808   0.183  14.227 -1.0922  0.3277 -0.0615
 2864TIP3    H230008   0.713   0.109  14.136  0.1844 -1.3490 -0.0971
 2865TIP3   OH230009   2.541   6.712  11.688  0.1753  0.0625  0.0134
 2865TIP3    H130010   2.469   6.708  11.625  0.1037  0.6926  0.0544
 2865TIP3    H230011   2.605   6.770  11.647 -0.5501  1.7791  1.1991
 2866TIP3   OH230012   4.954   4.689   1.892  0.0139  0.4637  0.0730
 2866TIP3    H130013   4.949   4.783   1.876 -1.2208  0.5298  0.7183
 2866TIP3    H230014   5.023   4.658   1.833  0.8318  1.8500  0.2522
 2867TIP3   OH230015   4.232   3.773  11.531  0.1052  0.3147  0.5311
 2867TIP3    H130016   4.254   3.705  11.596 -0.1226  0.1934  0.4818
 2867TIP3    H230017   4.277   3.745  11.451 -2.3743 -1.4181 -0.3821
 2868TIP3   OH230018   4.877   3.593  11.603 -0.2776  0.2249  0.0684
 2868TIP3    H130019   4.830   3.564  11.525  0.3002 -1.5932  0.3631
 2868TIP3    H230020   4.902   3.684  11.583 -1.9670  0.5155 -0.9695
 2869TIP3   OH230021   1.802   2.611   0.888 -0.6349  0.0107  0.1062
 2869TIP3    H130022   1.721   2.560   0.882 -0.3439 -0.3925 -0.4468
 2869TIP3    H230023   1.775   2.693   0.931 -1.3756 -0.0401 -0.2387
 2870TIP3   OH230024   2.775   6.686  16.484 -0.5762  0.8579  0.0103
 2870TIP3    H130025   2.805   6.680  16.393  3.4619 -2.3848  1.2814
 2870TIP3    H230026   2.755   6.596  16.509 -0.9167  1.5598  2.5221
 2871TIP3   OH230027   1.760   0.290  12.995 -0.1466 -0.2725  0.0521
 2871TIP3    H130028   1.853   0.310  13.006 -0.0907 -1.4941  2.5918
 2871TIP3    H230029   1.739   0.235  13.071 -3.2119  0.9307  0.2042
 2872TIP3   OH230030   5.000   6.400  16.435  0.1989  0.1805  0.1237
 2872TIP3    H130031   5.001   6.374  16.343  0.8598 -0.5228  0.3207
 2872TIP3    H230032   5.041   6.327  16.481 -0.3872  0.3928  1.0126
 2873TIP3   OH230033   1.006   3.414   3.438  0.0272  0.1120  0.1430
 2873TIP3    H130034   0.965   3.496   3.467  0.6070  0.5134 -0.1602
 2873TIP3    H230035   1.041   3.376   3.518  0.2070  0.4166  0.2111
 2874TIP3   OH230036   1.696   6.764   3.701 -0.5394  0.4638  0.3343
 2874TIP3    H130037   1.721   6.855   3.687 -0.3916  0.2683 -0.7353
 2874TIP3    H230038   1.642   6.742   3.626 -0.0283 -0.5286  0.2490
 2875TIP3   OH230039   1.333   1.437   3.971  0.4372 -0.2722  0.4247
 2875TIP3    H130040   1.286   1.452   3.889 -0.8660  1.2386  1.3745
 2875TIP3    H230041   1.408   1.495   3.967 -1.0282  1.8042  1.3151
 2876TIP3   OH230042   4.562   0.227  13.993  0.4675  0.5765 -0.4942
 2876TIP3    H130043   4.597   0.253  13.908  0.9682  0.6714 -0.2628
 2876TIP3    H230044   4.625   0.162  14.026 -0.0917  0.0129 -0.5035
 2877TIP3   OH230045   4.134   5.114  16.366  0.1305  0.6399  0.1696
 2877TIP3    H130046   4.052   5.108  16.415 -0.6586  2.9644 -0.7699
 2877TIP3    H230047   4.130   5.198  16.321  1.3748 -0.8281 -2.9433
 2878TIP3   OH230048   3.902   4.559   0.169  0.4374 -0.0298  0.1472
 2878TIP3    H130049   3.897   4.464   0.156  1.0931 -0.0463 -0.0153
 2878TIP3    H230050   3.995   4.577   0.176  0.2641  0.4713  1.2490
 2879TIP3   OH230051   6.304   5.310   1.757  0.0225 -0.2453  0.4077
 2879TIP3    H130052   6.209   5.296   1.763  0.2268 -1.1962  2.5642
 2879TIP3    H230053   6.318   5.395   1.799  0.0498  0.4807 -1.0048
 2880TIP3   OH230054   4.459   0.950   2.197 -0.2979 -0.6333 -0.0339
 2880TIP3    H130055   4.520   0.986   2.261  0.0600 -0.4840 -0.4591
 2880TIP3    H230056   4.485   0.990   2.114 -1.0172 -0.5091 -0.2064
 2881TIP3   OH230057   4.713   0.121  15.042  0.2559 -0.0898  0.1806
 2881TIP3    H130058   4.715   0.163  15.129  0.5692 -1.4602  0.8601
 2881TIP3    H230059   4.792   0.068  15.039  0.6834  0.5885 -1.3065
 2882TIP3   OH230060   4.448   1.084   5.661  0.1036  0.0825  0.5402
 2882TIP3    H130061   4.442   1.178   5.645 -2.3953 -0.2475 -0.9701
 2882TIP3    H230062   4.379   1.065   5.725 -0.0051 -0.8205  0.1802
 2883TIP3   OH230063   4.794   1.162  16.195 -0.3137 -0.2753 -0.2606
 2883TIP3    H130064   4.837   1.247  16.196  1.0192 -0.9235  0.6573
 2883TIP3    H230065   4.711   1.176  16.239  0.9328  0.0771  2.1134
 2884TIP3   OH230066   2.193   2.423   1.588 -0.1799  0.1076 -0.2849
 2884TIP3    H130067   2.226   2.413   1.678  0.0457  2.8543  0.0235
 2884TIP3    H230068   2.222   2.510   1.562  0.4817 -0.9100 -3.3771
 2885TIP3   OH230069   0.833   4.051  15.741 -0.6309 -0.1169 -0.1343
 2885TIP3    H130070   0.746   4.090  15.751 -0.5171 -0.2473  1.5185
 2885TIP3    H230071   0.864   4.038  15.830  1.0847 -0.0955 -0.7029
 2886TIP3   OH230072   2.872   1.066  14.934  0.0578 -0.0525  0.0249
 2886TIP3    H130073   2.959   1.026  14.932  0.1301 -0.1177  2.2720
 2886TIP3    H230074   2.812   0.993  14.917  0.3441 -0.4499  0.6849
 2887TIP3   OH230075   4.744   6.287  14.460  0.1344 -0.1462  0.6221
 2887TIP3    H130076   4.755   6.268  14.553 -0.4786 -1.1707  0.4903
 2887TIP3    H230077   4.674   6.229  14.431  0.4308  0.0380 -0.5205
 2888TIP3   OH230078   1.918   3.685  14.013 -0.0445  0.5285  0.3356
 2888TIP3    H130079   1.978   3.754  14.040  0.9477 -0.7883  1.6670
 2888TIP3    H230080   1.845   3.731  13.971  1.1881  2.2701 -0.0183
 2889TIP3   OH230081   5.926   3.682  16.805  0.0395  0.2441 -0.1787
 2889TIP3    H130082   5.915   3.616  16.874  0.4723 -0.1075 -0.4423
 2889TIP3    H230083   5.921   3.766  16.852  0.7946  0.0019  0.3570
 2890TIP3   OH230084   0.539   5.153   0.219  0.2630  0.0607  0.3001
 2890TIP3    H130085   0.466   5.151   0.281 -0.2143  1.5791 -0.1785
 2890TIP3    H230086   0.603   5.212   0.259  0.9978 -0.7961  0.4322
 2891TIP3   OH230087   4.571   2.397  15.948 -0.6803 -0.3575 -0.0824
 2891TIP3    H130088   4.519   2.344  15.887 -0.1713 -0.7038 -0.2177
 2891TIP3    H230089   4.515   2.405  16.025  0.3533 -3.6695  1.1798
 2892TIP3   OH230090   1.470   5.450  13.630  0.7913  0.4512 -0.3659
 2892TIP3    H130091   1.401   5.441  13.565  0.2543  0.5675  0.1759
 2892TIP3    H230092   1.485   5.361  13.662 -2.1594  0.7832  2.5803
 2893TIP3   OH230093   2.655   0.342   0.242 -0.0186  0.4246 -0.1121
 2893TIP3    H130094   2.650   0.325   0.336  1.4979 -0.9053 -0.2304
 2893TIP3    H230095   2.571   0.313   0.207 -0.6448  1.0625  0.8411
 2894TIP3   OH230096   0.590   4.668  16.056  0.0302  1.0234  0.3471
 2894TIP3    H130097   0.641   4.590  16.076  2.4434  2.0947 -1.1869
 2894TIP3    H230098   0.543   4.647  15.975 -2.3358 -0.0683  1.9188
 2895TIP3   OH230099   4.321   5.977  12.603  0.0430  0.2398 -0.2286
 2895TIP3    H130100   4.396   6.035  12.613  0.2547  0.1488 -1.1630
 2895TIP3    H230101   4.338   5.906  12.665  1.1756 -0.2121 -1.0033
 2896TIP3   OH230102   0.747   5.099  15.191  0.5263  0.2888  0.1682
 2896TIP3    H130103   0.696   5.113  15.111 -0.6851  1.1187  1.0648
 2896TIP3    H230104   0.834   5.075  15.159  0.0142  0.4055 -1.4011
 2897TIP3   OH230105   0.577   1.333  11.538  0.0636  0.1714  0.2816
 2897TIP3    H130106   0.541   1.386  11.609 -1.5169  1.8472 -1.6559
 2897TIP3    H230107   0.526   1.357  11.462  1.4378 -1.8482 -1.3886
 2898TIP3   OH230108   5.954   1.409  16.086 -0.6365  0.3167  0.2778
 2898TIP3    H130109   5.886   1.394  16.152 -0.4539  2.1477  0.9560
 2898TIP3    H230110   5.913   1.383  16.003 -2.0307  0.9550  0.7264
 2899TIP3   OH230111   3.571   5.463   0.668  0.4663  0.6681 -0.1174
 2899TIP3    H130112   3.583   5.554   0.640 -0.1259  0.4898 -1.0005
 2899TIP3    H230113   3.530   5.469   0.754 -1.4934  1.2728 -1.0188
 2900TIP3   OH230114   3.228   1.320  13.146  0.6577 -0.0986 -0.0524
 2900TIP3    H130115   3.221   1.399  13.091 -0.8964  0.5140  0.9661
 2900TIP3    H230116   3.204   1.249  13.087  1.4785  0.2252 -0.8233
 2901TIP3   OH230117   2.746   5.924  11.623 -0.1040  0.2112 -0.5625
 2901TIP3    H130118   2.800   5.849  11.600  0.1709  0.5063 -0.8883
 2901TIP3    H230119   2.738   5.974  11.541 -0.4535  0.4291 -0.3980
 2902TIP3   OH230120   4.752   0.080  11.788  0.3501 -0.1369  0.0026
 2902TIP3    H130121   4.761   0.097  11.694  1.3473 -0.3882  0.0388
 2902TIP3    H230122   4.837   0.045  11.814  0.0368 -0.2039  0.9760
 2903TIP3   OH230123   1.882   2.739  13.125 -1.1270 -0.4997  0.2062
 2903TIP3    H130124   1.883   2.646  13.102 -1.1991 -0.4775  0.1076
 2903TIP3    H230125   1.968   2.772  13.098 -0.3735 -0.9346  1.9655
 2904TIP3   OH230126   4.963   5.509   6.389 -0.0530 -0.0567  0.0670
 2904TIP3    H130127   4.927   5.573   6.328 -1.1733 -1.2627 -0.5896
 2904TIP3    H230128   4.897   5.440   6.394  1.1828 -1.2674  0.6056
 2905TIP3   OH230129   3.579   1.800   0.863  0.7107  0.5304 -0.4587
 2905TIP3    H130130   3.485   1.791   0.880  0.6165  0.7657 -0.8650
 2905TIP3    H230131   3.614   1.711   0.876  0.0594 -0.1058 -2.7038
 2906TIP3   OH230132   3.070   4.915   0.524  0.4408  1.0916  0.0581
 2906TIP3    H130133   3.087   5.008   0.539  3.8791  0.4438  0.9250
 2906TIP3    H230134   3.121   4.893   0.446 -0.8917  0.0089 -0.5626
 2907TIP3   OH230135   0.100   0.947   3.877 -0.0322 -0.2494 -0.0951
 2907TIP3    H130136   0.133   0.978   3.961 -1.4665 -0.3836  0.5465
 2907TIP3    H230137   0.125   0.855   3.873 -0.1541 -0.2968  0.2760
 2908TIP3   OH230138   1.639   5.926  12.594 -0.2529 -0.3528 -0.3192
 2908TIP3    H130139   1.726   5.907  12.629  0.2676  2.2219  0.0476
 2908TIP3    H230140   1.591   5.963  12.668 -1.4408 -1.1189 -0.6861
 2909TIP3   OH230141   1.146   5.834   1.930  0.2299  0.2736 -0.7560
 2909TIP3    H130142   1.102   5.822   1.845 -0.0024  2.6079 -1.0409
 2909TIP3    H230143   1.211   5.902   1.913 -0.4971  1.5232  1.1304
 2910TIP3   OH230144   2.245   6.744  13.212  0.4029  0.3739  0.7093
 2910TIP3    H130145   2.260   6.826  13.259  0.3495  0.9215 -0.1932
 2910TIP3    H230146   2.282   6.760  13.125  1.5433 -1.0082  0.9108
 2911TIP3   OH230147   6.020   0.592   3.100 -0.0967 -0.5571 -0.2475
 2911TIP3    H130148   6.012   0.620   3.191  0.6586  1.0115 -0.6400
 2911TIP3    H230149   5.937   0.548   3.081 -1.1537  0.9987  0.5749
 2912TIP3   OH230150   5.745   6.635   5.319  0.4194  0.1597  0.2438
 2912TIP3    H130151   5.651   6.619   5.314  0.0773  1.7488  0.8733
 2912TIP3    H230152   5.771   6.598   5.403  0.1381  0.6711  0.5595
 2913TIP3   OH230153   5.472   0.992  12.350 -0.3697  0.4064 -0.8037
 2913TIP3    H130154   5.512   1.076  12.326  0.1483  0.4639  0.2248
 2913TIP3    H230155   5.497   0.978  12.441 -0.8999 -0.6135 -0.7979
 2914TIP3   OH230156   6.233   1.018   3.821 -0.3127  0.0185  0.4842
 2914TIP3    H130157   6.217   1.106   3.854  0.7985  0.3923  0.0609
 2914TIP3    H230158   6.274   1.031   3.736 -1.9530 -0.9287 -0.4945
 2915TIP3   OH230159   1.427   0.804  16.770  0.0117 -0.5207 -0.0534
 2915TIP3    H130160   1.381   0.797  16.686 -0.7620  1.8533  0.0848
 2915TIP3    H230161   1.493   0.735  16.767 -2.0691 -2.6318 -1.2290
 2916TIP3   OH230162   1.209   0.756   0.107 -0.0339 -0.1727  0.6592
 2916TIP3    H130163   1.251   0.686   0.157 -0.6548 -4.5791 -4.0929
 2916TIP3    H230164   1.118   0.726   0.095  0.1222  0.2812 -3.0452
 2917TIP3   OH230165   3.417   3.746  16.490 -0.2534 -0.3929 -0.0054
 2917TIP3    H130166   3.371   3.694  16.425 -1.1358 -1.4064  1.3558
 2917TIP3    H230167   3.348   3.783  16.544  0.4500 -1.1143  1.4694
 2918TIP3   OH230168   4.949   4.436   3.439 -0.0076 -0.2045 -0.3331
 2918TIP3    H130169   4.964   4.382   3.517 -1.0523 -0.9512 -0.6304
 2918TIP3    H230170   4.856   4.460   3.444 -0.0129 -0.0194 -1.1925
 2919TIP3   OH230171   6.571   1.461  13.275  0.2339 -0.1524  0.4184
 2919TIP3    H130172   6.582   1.415  13.358  0.3829 -1.6261 -0.3959
 2919TIP3    H230173   6.512   1.534  13.296  0.1294 -0.5993  1.7783
 2920TIP3   OH230174   3.747   4.019   2.096  0.1570 -0.0426 -0.0615
 2920TIP3    H130175   3.830   3.977   2.120  0.1218  0.4560  0.9980
 2920TIP3    H230176   3.683   3.948   2.095  0.1977 -0.1142  1.1984
 2921TIP3   OH230177   2.721   0.893   4.432 -0.1565  0.1743 -0.0193
 2921TIP3    H130178   2.629   0.881   4.454 -0.5856 -0.4068 -1.9223
 2921TIP3    H230179   2.722   0.970   4.375  0.6969  0.8075  0.8164
 2922TIP3   OH230180   5.545   4.966   1.414  0.6110  0.2484 -0.1713
 2922TIP3    H130181   5.609   4.984   1.345 -0.6003 -0.4352 -1.5139
 2922TIP3    H230182   5.484   5.040   1.409 -0.3431 -0.5744 -0.8783
 2923TIP3   OH230183   4.851   5.968  11.783  0.3178  0.0121  0.0237
 2923TIP3    H130184   4.787   6.024  11.826  0.2841 -0.4115  0.5269
 2923TIP3    H230185   4.804   5.930  11.709 -0.6439 -1.8338  1.4931
 2924TIP3   OH230186   4.706   5.177  14.938 -0.0250  0.2967  0.1482
 2924TIP3    H130187   4.667   5.162  15.024  3.0492 -2.8356  1.2053
 2924TIP3    H230188   4.776   5.240  14.953  0.1187  0.2266 -0.2087
 2925TIP3   OH230189   1.131   1.003  16.153 -0.0151  0.4499  0.0257
 2925TIP3    H130190   1.138   1.077  16.092 -2.5369  1.3632  0.7224
 2925TIP3    H230191   1.221   0.984  16.178  1.0069  0.9305 -2.8925
 2926TIP3   OH230192   5.965   3.953  16.813  0.2502 -0.6652  0.5342
 2926TIP3    H130193   5.921   3.984  16.734 -1.4726 -0.5191  1.4836
 2926TIP3    H230194   6.010   4.031  16.847 -2.8703  0.6560  2.1306
 2927TIP3   OH230195   3.443   3.356   3.833  0.9575 -0.1740  0.6275
 2927TIP3    H130196   3.387   3.411   3.778 -0.2543  0.7120  2.6419
 2927TIP3    H230197   3.418   3.267   3.811  1.5690  0.0880 -1.2936
 2928TIP3   OH230198   4.991   3.619   1.255 -0.1550 -0.1702 -0.0913
 2928TIP3    H130199   5.085   3.605   1.269 -0.3974 -0.4591  1.4365
 2928TIP3    H230200   4.963   3.544   1.203  0.0795 -1.2362  1.2688
 2929TIP3   OH230201   2.477   0.129   0.161 -0.0855  0.5118  0.8493
 2929TIP3    H130202   2.500   0.037   0.149 -0.4187  0.6113 -0.8531
 2929TIP3    H230203   2.438   0.133   0.248  1.4847 -0.6224  1.6532
 2930TIP3   OH230204   0.128   2.790  13.082 -0.1661  0.1384 -0.3183
 2930TIP3    H130205   0.171   2.752  13.159  0.7415 -1.3825 -1.5238
 2930TIP3    H230206   0.178   2.869  13.063 -0.4687  0.5889  0.7114
 2931TIP3   OH230207   1.788   1.373  14.829  0.2252 -0.8559 -0.6453
 2931TIP3    H130208   1.828   1.286  14.823 -1.2540 -1.6333  0.2898
 2931TIP3    H230209   1.721   1.365  14.896  0.2772  1.1180 -0.2815
 2932TIP3   OH230210   2.514   0.072  13.506 -0.0995  0.3867 -0.0035
 2932TIP3    H130211   2.595   0.109  13.541 -0.2323 -0.0179  0.7555
 2932TIP3    H230212   2.517   0.090  13.412  1.4544 -0.7177 -0.1982
 2933TIP3   OH230213   0.851   0.947  16.616  0.0189 -0.2643  0.5684
 2933TIP3    H130214   0.836   0.856  16.642  0.0397 -0.0880  1.2121
 2933TIP3    H230215   0.944   0.950  16.593 -0.3283 -0.7790 -1.0367
 2934TIP3   OH230216   4.654   2.689   1.616  0.5809 -0.5311 -0.6071
 2934TIP3    H130217   4.604   2.763   1.650 -1.5691 -2.2421  0.1996
 2934TIP3    H230218   4.743   2.723   1.605 -0.7631  2.8235 -2.5979
 2935TIP3   OH230219   4.535   3.840   3.021 -0.0764 -0.0257  0.0142
 2935TIP3    H130220   4.598   3.803   3.083 -0.8136 -0.3301  0.5958
 2935TIP3    H230221   4.575   3.924   2.995 -0.0389  0.4214  1.4006
 2936TIP3   OH230222   1.727   0.767   4.948  0.0594  0.2404  0.0584
 2936TIP3    H130223   1.713   0.673   4.937 -0.3706 -0.2058  3.4063
 2936TIP3    H230224   1.641   0.806   4.936 -0.0069  0.0687 -0.0377
 2937TIP3   OH230225   3.399   2.058  10.312 -0.3155 -0.0022 -0.3108
 2937TIP3    H130226   3.483   2.021  10.341 -0.7329  0.1320  1.1361
 2937TIP3    H230227   3.404   2.150  10.337  0.0294  0.5997 -2.3757
 2938TIP3   OH230228   3.270   3.489  11.423  0.1890  0.6841  0.6546
 2938TIP3    H130229   3.299   3.546  11.494  1.8113  0.5448  0.1629
 2938TIP3    H230230   3.325   3.412  11.430 -0.6395  0.0283  0.1306
 2939TIP3   OH230231   5.233   3.310   4.486  0.6419  0.1488  0.0997
 2939TIP3    H130232   5.152   3.284   4.443  0.9004 -0.5641  0.0362
 2939TIP3    H230233   5.297   3.319   4.415  0.4259  1.4934  0.0588
 2940TIP3   OH230234   1.844   5.726   2.761 -0.0513 -0.4746 -0.2050
 2940TIP3    H130235   1.760   5.756   2.727 -0.7887 -0.6105  1.4051
 2940TIP3    H230236   1.825   5.641   2.801  0.5748  0.0015  1.1886
 2941TIP3   OH230237   2.662   0.080   2.921 -0.0654  0.5912 -0.7315
 2941TIP3    H130238   2.712  -0.002   2.923 -0.8080  0.1417  0.3930
 2941TIP3    H230239   2.690   0.126   3.001 -1.2947  0.4066 -0.1740
 2942TIP3   OH230240   5.343   6.665   6.020  0.0718  0.4432 -1.1105
 2942TIP3    H130241   5.410   6.597   6.028 -0.3742  0.0268 -0.9516
 2942TIP3    H230242   5.266   6.629   6.064  0.4990  1.9496  1.0426
 2943TIP3   OH230243   1.083   6.121   3.820  0.5776 -0.3583  0.0109
 2943TIP3    H130244   1.150   6.076   3.872  0.2716 -1.1965 -0.2957
 2943TIP3    H230245   1.077   6.070   3.740 -0.6780 -0.5119  0.1775
 2944TIP3   OH230246   1.627   0.942  13.261 -0.2162  0.5858  0.1259
 2944TIP3    H130247   1.573   0.880  13.311 -1.3714  1.4839  0.0142
 2944TIP3    H230248   1.698   0.966  13.322  1.5390 -2.4261 -0.5167
 2945TIP3   OH230249   5.998   2.770  15.228 -0.3381 -0.2350  0.1199
 2945TIP3    H130250   6.043   2.804  15.151 -2.5371 -0.2986 -1.2557
 2945TIP3    H230251   5.953   2.845  15.265  0.7798 -0.1794  1.4836
 2946TIP3   OH230252   4.981   5.616  14.277  0.5375 -0.0613 -0.0939
 2946TIP3    H130253   4.968   5.593  14.185 -0.4064 -0.2219  0.0667
 2946TIP3    H230254   4.976   5.533  14.323 -0.1063  0.1381  0.2074
 2947TIP3   OH230255   4.296   6.424  15.065 -0.1757 -0.5492 -0.2311
 2947TIP3    H130256   4.244   6.382  15.133 -2.8204  1.6532 -0.7468
 2947TIP3    H230257   4.266   6.384  14.983 -1.3588  0.9179 -0.5548
 2948TIP3   OH230258   4.149   4.209   4.294  0.1477  0.1175  0.3340
 2948TIP3    H130259   4.113   4.195   4.207  0.3708 -0.2248  0.2928
 2948TIP3    H230260   4.100   4.283   4.329 -0.7961 -0.5153  0.3913
 2949TIP3   OH230261   1.913   5.117  16.529 -0.2635  0.1684 -0.2244
 2949TIP3    H130262   1.901   5.177  16.602 -2.1229 -0.2374 -0.1514
 2949TIP3    H230263   1.826   5.084  16.510  0.4288 -1.0457 -1.5247
 2950TIP3   OH230264   3.219   5.386   4.420  0.1456 -0.2471  0.0492
 2950TIP3    H130265   3.211   5.481   4.423 -0.4591 -0.3196  1.5750
 2950TIP3    H230266   3.309   5.368   4.449  0.5555 -0.1135 -1.1147
 2951TIP3   OH230267   4.104   6.718  16.420  0.5225  0.8822  0.4214
 2951TIP3    H130268   4.012   6.693  16.412  0.8076  0.3535 -1.6668
 2951TIP3    H230269   4.151   6.635  16.427  0.7839  1.1601  3.3553
 2952TIP3   OH230270   6.503   0.274  16.703  0.1832 -0.1893  0.3181
 2952TIP3    H130271   6.476   0.242  16.789  0.7085  0.1386  0.6123
 2952TIP3    H230272   6.572   0.338  16.722  1.0333 -0.8694 -0.4055
 2953TIP3   OH230273   3.010   0.692   3.338 -0.3800  0.1020 -0.4491
 2953TIP3    H130274   3.089   0.707   3.390 -1.0062  0.3271  0.4670
 2953TIP3    H230275   2.984   0.603   3.359 -0.2970 -0.0168 -0.8501
 2954TIP3   OH230276   2.934   4.062   0.629  0.1256  0.8184  0.0462
 2954TIP3    H130277   3.004   4.115   0.592  0.3884 -0.1166 -0.8670
 2954TIP3    H230278   2.860   4.077   0.570  0.7224 -1.1526 -1.3030
 2955TIP3   OH230279   4.175   2.642  13.712 -0.0484 -0.3728 -0.2152
 2955TIP3    H130280   4.251   2.700  13.712  0.5096 -0.8641 -3.8034
 2955TIP3    H230281   4.103   2.697  13.679 -0.7531 -0.4697  1.1129
 2956TIP3   OH230282   5.213   0.755   4.583  0.4532  0.7051 -0.2314
 2956TIP3    H130283   5.176   0.833   4.541 -0.7602 -0.6894 -1.8659
 2956TIP3    H230284   5.300   0.746   4.545  0.2862  0.8117 -0.6416
 2957TIP3   OH230285   1.905   2.341  16.201  0.4321  0.2806 -0.2962
 2957TIP3    H130286   1.840   2.300  16.257 -0.8346 -0.0323 -1.8996
 2957TIP3    H230287   1.888   2.435  16.209  0.1949  0.2323 -0.2200
 2958TIP3   OH230288   4.836   3.370  14.645 -0.1181 -0.0237 -0.3995
 2958TIP3    H130289   4.787   3.441  14.605 -1.5681 -1.1297 -0.6695
 2958TIP3    H230290   4.928   3.391  14.628 -0.5669  1.1889 -1.4544
 2959TIP3   OH230291   1.010   2.134   3.456 -0.0883  0.9367 -0.7210
 2959TIP3    H130292   1.067   2.150   3.531 -2.2160  0.7779  1.0285
 2959TIP3    H230293   1.005   2.218   3.411 -1.6733  2.1354  1.4888
 2960TIP3   OH230294   3.158   5.859  11.999 -0.4643  0.2463 -0.3502
 2960TIP3    H130295   3.229   5.899  11.949  0.3436  1.4667  1.6878
 2960TIP3    H230296   3.201   5.811  12.069 -1.6065 -0.2528  0.0346
 2961TIP3   OH230297   3.460   1.172  13.920  0.2733  0.3565 -0.0605
 2961TIP3    H130298   3.492   1.130  14.000  0.9714  1.3230  0.1850
 2961TIP3    H230299   3.384   1.223  13.948  0.4096  0.5522 -0.0466
 2962TIP3   OH230300   0.002   0.616  13.852  0.5926  0.2604  0.0491
 2962TIP3    H130301   0.090   0.604  13.887  0.2908 -0.2561  0.6498
 2962TIP3    H230302  -0.045   0.663  13.921  0.4151  0.5931 -0.2963
 2963TIP3   OH230303   1.746   4.583  14.923 -0.2806  0.6770  0.3732
 2963TIP3    H130304   1.833   4.553  14.950 -0.6607 -0.4889  0.3619
 2963TIP3    H230305   1.687   4.550  14.992 -0.9913 -0.5112 -0.7428
 2964TIP3   OH230306   2.266   5.788   3.673  0.2396 -0.6356 -0.7292
 2964TIP3    H130307   2.301   5.732   3.604  0.3989 -0.9079 -0.4281
 2964TIP3    H230308   2.313   5.871   3.662 -1.0132 -0.0654 -2.0792
 2965TIP3   OH230309   4.671   0.112  12.805 -0.0589  0.1592 -0.6775
 2965TIP3    H130310   4.711   0.115  12.891 -0.9571 -0.3821 -0.2218
 2965TIP3    H230311   4.722   0.047  12.757 -0.5523 -0.7562 -0.0049
 2966TIP3   OH230312   0.297   3.212  16.377  0.0819 -0.0792  0.0916
 2966TIP3    H130313   0.239   3.154  16.427  0.5530 -0.5477  0.1036
 2966TIP3    H230314   0.350   3.152  16.324  0.3880  0.3593 -0.0952
 2967TIP3   OH230315   2.196   4.329   2.348  0.1752  0.6610  0.0484
 2967TIP3    H130316   2.178   4.255   2.406  0.6131  0.5995  0.1080
 2967TIP3    H230317   2.177   4.295   2.260  0.2971  0.5041  0.0821
 2968TIP3   OH230318   0.139   3.676   5.994 -0.3025 -0.7400  0.6787
 2968TIP3    H130319   0.083   3.661   6.071  1.0181 -1.2474  1.5920
 2968TIP3    H230320   0.219   3.628   6.014  0.1845 -0.6370 -0.9157
 2969TIP3   OH230321   6.491   2.096   3.992  0.4791  0.0640 -0.4284
 2969TIP3    H130322   6.540   2.053   4.062  0.4736 -1.0815 -1.1055
 2969TIP3    H230323   6.414   2.132   4.036  1.7387  1.6563  0.6014
 2970TIP3   OH230324   2.943   5.626   0.716  0.3781  0.1743  0.3352
 2970TIP3    H130325   2.932   5.532   0.734  0.2387 -0.1021 -1.0764
 2970TIP3    H230326   3.036   5.635   0.693  0.1862  0.2024 -0.4561
 2971TIP3   OH230327   2.831   1.654  12.639  0.6047  0.3935 -0.2831
 2971TIP3    H130328   2.757   1.620  12.689 -0.7265  0.6431 -2.0189
 2971TIP3    H230329   2.888   1.578  12.626  0.5469  0.1418  0.8345
 2972TIP3   OH230330   4.748   0.121   2.506  0.0674  0.7155 -0.4125
 2972TIP3    H130331   4.829   0.168   2.489  1.0952 -0.5234  0.8777
 2972TIP3    H230332   4.752   0.098   2.598 -2.7791  2.4949  0.3245
 2973TIP3   OH230333   2.843   4.572   5.782 -0.2801 -0.2983  0.0444
 2973TIP3    H130334   2.758   4.606   5.811 -0.6995 -0.9009 -0.4655
 2973TIP3    H230335   2.873   4.635   5.717 -2.2689 -2.1375 -2.8676
 2974TIP3   OH230336   4.473   4.692   3.997 -0.3713 -0.2533 -0.3508
 2974TIP3    H130337   4.472   4.676   3.902 -1.0214  2.2890 -0.8550
 2974TIP3    H230338   4.382   4.715   4.018 -0.2178 -0.7106  0.8875
 2975TIP3   OH230339   5.468   6.474   0.625  0.0037 -0.1370 -0.1120
 2975TIP3    H130340   5.519   6.406   0.580 -1.6698 -0.3775 -1.7467
 2975TIP3    H230341   5.436   6.432   0.704 -0.5476 -1.0899 -0.8287
 2976TIP3   OH230342   6.238   3.236   1.537 -0.0628  0.7820  0.1649
 2976TIP3    H130343   6.308   3.210   1.598 -1.5056 -1.9837  0.8199
 2976TIP3    H230344   6.195   3.153   1.514 -0.9904  1.9922 -2.9346
 2977TIP3   OH230345   1.052   5.221  14.498  0.5644 -0.6894  0.3931
 2977TIP3    H130346   0.979   5.279  14.480  1.1400 -0.0477  0.0625
 2977TIP3    H230347   1.043   5.198  14.590  1.1043  1.0762  0.9301
 2978TIP3   OH230348   2.620   3.738   5.828  0.3058  0.0642  0.4939
 2978TIP3    H130349   2.635   3.813   5.886  1.5223  0.9423 -0.8778
 2978TIP3    H230350   2.526   3.720   5.834 -0.0150  1.7511  0.8003
 2979TIP3   OH230351   6.287   3.567  12.150 -0.1462 -0.4223 -0.0094
 2979TIP3    H130352   6.264   3.515  12.227 -1.4404 -0.8738 -0.6723
 2979TIP3    H230353   6.311   3.502  12.083 -0.6502 -0.1333 -0.4857
 2980TIP3   OH230354   0.126   4.677   5.285  0.0107 -1.2020 -0.0288
 2980TIP3    H130355   0.079   4.759   5.298 -0.7893 -1.3803 -1.5747
 2980TIP3    H230356   0.157   4.653   5.372 -0.9699  0.0049  0.6822
 2981TIP3   OH230357   6.149   3.827  11.552 -0.0437  0.0883  0.0445
 2981TIP3    H130358   6.143   3.910  11.504  0.1384  0.8171  1.2422
 2981TIP3    H230359   6.061   3.812  11.585 -0.1150 -0.2833 -0.3176
 2982TIP3   OH230360   0.957   2.678  13.515  0.2447  0.0712 -0.6229
 2982TIP3    H130361   1.000   2.592  13.518 -1.4341 -0.7877  0.1396
 2982TIP3    H230362   1.029   2.741  13.522  1.3483 -1.2988  2.9036
 2983TIP3   OH230363   0.868   0.264   6.126  0.0738 -0.2451  0.3988
 2983TIP3    H130364   0.909   0.258   6.212  0.5047  2.9641  0.5545
 2983TIP3    H230365   0.938   0.297   6.069 -0.5012 -1.2884 -0.9658
 2984TIP3   OH230366   2.156   3.680   2.085 -0.6909  0.0544 -0.2360
 2984TIP3    H130367   2.097   3.693   2.159  0.9365 -1.3529  1.4001
 2984TIP3    H230368   2.120   3.605   2.038  0.0073 -1.1310  1.0518
 2985TIP3   OH230369   6.626   2.341  14.697  0.2480 -0.5118 -0.0551
 2985TIP3    H130370   6.718   2.328  14.718 -0.1535 -0.5433  1.8518
 2985TIP3    H230371   6.619   2.434  14.675  0.4033 -0.0204  1.8461
 2986TIP3   OH230372   0.121   3.286  14.889 -0.1376  0.3323 -0.0356
 2986TIP3    H130373   0.099   3.317  14.801 -0.3811  1.4240  0.3899
 2986TIP3    H230374   0.048   3.229  14.912 -0.5788  0.8367 -0.1593
 2987TIP3   OH230375   6.321   2.056  16.552  0.0508  0.3308  0.1200
 2987TIP3    H130376   6.338   2.035  16.460 -1.1540 -0.0296 -0.0332
 2987TIP3    H230377   6.378   1.997  16.601 -0.3255 -0.4581 -0.3803
 2988TIP3   OH230378   3.866   5.736  13.417  0.4827 -0.4701 -0.2606
 2988TIP3    H130379   3.890   5.824  13.387  1.1193 -0.2963  0.7277
 2988TIP3    H230380   3.788   5.749  13.470  1.2336 -0.3221  0.8456
 2989TIP3   OH230381   5.358   3.253   3.579  0.1478  0.2648  0.3756
 2989TIP3    H130382   5.371   3.296   3.494  0.8977  1.4129  1.0448
 2989TIP3    H230383   5.264   3.256   3.594 -0.1915 -1.2608 -1.0495
 2990TIP3   OH230384   2.895   3.039   2.080 -0.1425 -0.0710 -0.0164
 2990TIP3    H130385   2.844   2.989   2.016 -0.9349  0.9295 -0.1781
 2990TIP3    H230386   2.945   2.972   2.127  0.4643 -0.8329 -1.6639
 2991TIP3   OH230387   6.438   0.144   3.626 -0.1926  0.0852 -0.6620
 2991TIP3    H130388   6.488   0.064   3.606  0.5775  0.5725 -0.7277
 2991TIP3    H230389   6.412   0.133   3.718  0.4909  0.0506 -0.4614
 2992TIP3   OH230390   6.655   0.290  14.815 -0.3685 -0.3725 -0.3325
 2992TIP3    H130391   6.742   0.280  14.854 -0.7080  0.3534  0.6728
 2992TIP3    H230392   6.596   0.290  14.891 -1.1317  0.3183 -0.9205
 2993TIP3   OH230393   0.565   3.889  13.808  0.1973 -0.6020 -0.0700
 2993TIP3    H130394   0.596   3.976  13.784 -0.9511 -0.7094 -2.2195
 2993TIP3    H230395   0.588   3.833  13.734  2.7324 -2.7004  2.0570
 2994TIP3   OH230396   5.493   3.566  14.462 -0.0065  0.0834 -0.2338
 2994TIP3    H130397   5.573   3.528  14.498 -0.0178 -1.3360 -1.6146
 2994TIP3    H230398   5.424   3.504  14.486 -0.4432  0.4838 -0.4374
 2995TIP3   OH230399   0.120   1.456   4.239  0.5531  0.0973 -0.2162
 2995TIP3    H130400   0.208   1.419   4.243  0.4124 -0.2473 -0.3009
 2995TIP3    H230401   0.070   1.393   4.188  0.2195  0.2225 -0.0435
 2996TIP3   OH230402   4.435   4.616  12.053 -0.0453  0.1351 -0.6534
 2996TIP3    H130403   4.409   4.528  12.028  0.2393 -0.5001  1.1475
 2996TIP3    H230404   4.357   4.655  12.092  0.6253 -0.4796  1.4220
 2997TIP3   OH230405   3.193   1.661   2.573  0.0018  0.8501 -0.1655
 2997TIP3    H130406   3.155   1.732   2.624 -0.8024  1.4750 -1.5643
 2997TIP3    H230407   3.236   1.704   2.499  2.4413  0.0690  0.7145
 2998TIP3   OH230408   5.484   3.277  14.773 -0.5344 -0.3488  0.1598
 2998TIP3    H130409   5.500   3.213  14.842 -1.6086 -1.3420 -0.4873
 2998TIP3    H230410   5.395   3.309  14.790  0.3600  1.8784  1.1571
 2999TIP3   OH230411   5.864   5.982   1.858  0.0221 -0.2818  0.1339
 2999TIP3    H130412   5.939   6.024   1.899  0.0966  1.4703 -1.6389
 2999TIP3    H230413   5.795   5.986   1.924  1.4458 -2.0752  1.8574
 3000TIP3   OH230414   5.958   3.582  11.419 -0.0508 -0.3136 -0.0033
 3000TIP3    H130415   5.958   3.500  11.369 -0.5862 -0.8574  0.8552
 3000TIP3    H230416   6.051   3.599  11.437  0.0542 -0.8218 -0.0536
 3001TIP3   OH230417   6.077   0.974   2.739 -0.1675  0.6278  0.0358
 3001TIP3    H130418   6.029   1.057   2.732  0.3750  0.9267 -0.1938
 3001TIP3    H230419   6.021   0.919   2.794 -1.0392  0.7788 -0.6612
 3002TIP3   OH230420   0.656   5.030  14.465  0.4919  0.6097 -0.4876
 3002TIP3    H130421   0.705   5.003  14.388 -0.4660  1.6129 -1.4931
 3002TIP3    H230422   0.605   5.105  14.435 -2.4054 -0.9472  0.2180
 3003TIP3   OH230423   0.929   0.084   1.219  0.4032  0.3120  0.0159
 3003TIP3    H130424   0.878   0.135   1.157 -0.3411  0.5678  0.8274
 3003TIP3    H230425   0.891  -0.004   1.214 -0.2262  0.5380  0.7287
 3004TIP3   OH230426   5.358   3.920   0.921 -0.2416 -0.1208 -0.5428
 3004TIP3    H130427   5.263   3.921   0.914 -0.1972  1.3710 -1.3214
 3004TIP3    H230428   5.389   3.941   0.832  0.8302 -1.0921 -0.4277
 3005TIP3   OH230429   0.015   5.758   0.185 -0.0551  0.1009  0.1543
 3005TIP3    H130430   0.076   5.692   0.219  1.8305  1.6017 -0.1884
 3005TIP3    H230431  -0.010   5.809   0.262  0.5262  0.5715  0.0401
 3006TIP3   OH230432   5.301   4.638   3.958 -0.2911  0.0734  0.2872
 3006TIP3    H130433   5.278   4.595   4.040 -0.7720 -0.3953 -0.0872
 3006TIP3    H230434   5.237   4.709   3.949 -0.0253  0.3448  0.4778
 3007TIP3   OH230435   0.338   0.264  13.086 -0.5435  0.1381  0.3961
 3007TIP3    H130436   0.358   0.307  13.169 -1.9897 -0.1862  0.9501
 3007TIP3    H230437   0.294   0.332  13.034 -0.0852  0.1963  0.0753
 3008TIP3   OH230438   1.544   3.963  12.987  0.0834  0.3769  0.4835
 3008TIP3    H130439   1.598   4.026  13.035 -1.8713  1.1385  1.8624
 3008TIP3    H230440   1.456   4.003  12.988 -0.5605 -0.8877 -1.4376
 3009TIP3   OH230441   4.764   0.062  14.062 -0.4781  0.3177 -0.6502
 3009TIP3    H130442   4.788   0.023  13.978 -1.9993 -0.1913 -0.8697
 3009TIP3    H230443   4.848   0.072  14.108  0.2880 -0.1861 -1.8763
 3010TIP3   OH230444   6.243   6.099   2.358  0.1929  0.0783 -0.1311
 3010TIP3    H130445   6.191   6.065   2.431  0.0500  0.9483  0.1910
 3010TIP3    H230446   6.334   6.082   2.382  0.0827 -1.7905 -0.8653
 3011TIP3   OH230447   4.821   1.818   4.771  0.9679  0.1157  0.0392
 3011TIP3    H130448   4.814   1.810   4.676  0.5452 -2.5446  0.2224
 3011TIP3    H230449   4.885   1.887   4.785  0.4729  1.1005 -2.1469
 3012TIP3   OH230450   4.945   5.415   0.138 -0.4439 -0.5271  0.3328
 3012TIP3    H130451   4.856   5.387   0.118 -0.2418 -1.8038  1.0734
 3012TIP3    H230452   4.998   5.335   0.129  0.8566  0.4656 -1.3375
 3013TIP3   OH230453   4.454   3.251   0.868  0.7703  0.6799 -0.3911
 3013TIP3    H130454   4.479   3.167   0.829  0.9563  0.6217 -0.1511
 3013TIP3    H230455   4.441   3.231   0.961  1.3813  1.0308 -0.2268
 3014TIP3   OH230456   3.440   2.554   4.658  0.0816 -0.0434  0.5366
 3014TIP3    H130457   3.524   2.510   4.660 -1.7592 -4.0452 -0.2858
 3014TIP3    H230458   3.426   2.576   4.566  0.3042  0.9667  0.7238
 3015TIP3   OH230459   6.298   5.052  15.584 -0.0608 -0.2200 -1.1446
 3015TIP3    H130460   6.349   4.987  15.633 -0.0887 -0.6709 -1.7031
 3015TIP3    H230461   6.307   5.133  15.634 -1.1926 -0.9689  0.3693
 3016TIP3   OH230462   0.530   5.840   6.110 -0.1339 -0.3694  0.4999
 3016TIP3    H130463   0.441   5.853   6.142  0.5193  0.2667  2.1711
 3016TIP3    H230464   0.549   5.748   6.130 -0.1514 -0.2970  0.8593
 3017TIP3   OH230465   3.400   2.365   0.860  0.4480  0.1830 -0.6368
 3017TIP3    H130466   3.457   2.289   0.876  1.7623  1.2353 -0.1536
 3017TIP3    H230467   3.385   2.363   0.765  0.6445 -0.5582 -0.6587
 3018TIP3   OH230468   5.428   6.353  16.653 -0.2326  0.1782  0.7875
 3018TIP3    H130469   5.346   6.328  16.611 -0.2300  1.1215  0.1847
 3018TIP3    H230470   5.401   6.392  16.736 -0.4770  1.3499  0.1755
 3019TIP3   OH230471   5.511   4.006  15.237 -0.0737 -0.6280 -0.2123
 3019TIP3    H130472   5.580   4.071  15.251 -0.4989 -0.4133  0.9438
 3019TIP3    H230473   5.466   4.037  15.158  0.7693 -0.4506 -0.6420
 3020TIP3   OH230474   0.005   5.449   0.457  0.4850  0.7439 -0.9269
 3020TIP3    H130475  -0.080   5.458   0.414  0.5137  2.8987 -0.6147
 3020TIP3    H230476   0.065   5.500   0.404  0.2289  4.7771  2.2169
 3021TIP3   OH230477   3.045   4.737  13.155 -0.0762 -0.5423 -0.9849
 3021TIP3    H130478   2.984   4.707  13.223  0.2794  0.5311 -0.1612
 3021TIP3    H230479   2.990   4.784  13.092 -0.0945  0.7386 -0.0572
 3022TIP3   OH230480   5.131   1.228  16.605  0.6278  0.6141 -0.6141
 3022TIP3    H130481   5.036   1.218  16.609  0.6263  0.6463 -0.5640
 3022TIP3    H230482   5.166   1.142  16.627  0.6273  0.9149  0.5990
 3023TIP3   OH230483   4.120   5.234  11.087  0.0676  0.2591 -0.3168
 3023TIP3    H130484   4.201   5.278  11.112  0.2542  1.3216 -2.5472
 3023TIP3    H230485   4.070   5.301  11.040 -0.8349 -1.1701 -1.4618
 3024TIP3   OH230486   1.665   3.904   0.541 -0.5316 -0.0836 -0.3801
 3024TIP3    H130487   1.598   3.838   0.522 -0.5818 -0.3258  0.5615
 3024TIP3    H230488   1.620   3.987   0.530 -0.6903 -0.2226 -0.8000
 3025TIP3   OH230489   1.711   2.087  13.160  0.4503  0.2268 -0.2366
 3025TIP3    H130490   1.653   2.011  13.156  0.9542 -0.3549  2.1468
 3025TIP3    H230491   1.654   2.162  13.144 -1.2799 -0.2297  2.9795
 3026TIP3   OH230492   4.081   4.492  11.250 -0.6092  0.6576 -0.0406
 3026TIP3    H130493   4.014   4.430  11.280 -0.9110  0.1235 -1.7115
 3026TIP3    H230494   4.078   4.486  11.154  0.1087  2.4722 -0.2145
 3027TIP3   OH230495   1.464   3.384  12.977  0.6901  0.0703 -0.1939
 3027TIP3    H130496   1.535   3.326  13.006  0.4864  0.8494  2.0913
 3027TIP3    H230497   1.463   3.455  13.042 -0.5792  1.4075 -1.5866
 3028TIP3   OH230498   2.217   4.641   1.099 -0.2224 -0.1184  0.5023
 3028TIP3    H130499   2.138   4.682   1.063 -0.3421 -0.2080  0.6623
 3028TIP3    H230500   2.184   4.573   1.157 -0.0392  0.4333  1.2724
 3029TIP3   OH230501   0.670   4.593  16.736 -0.5258  0.0968  0.2279
 3029TIP3    H130502   0.694   4.679  16.703  0.5884 -0.8745 -1.6875
 3029TIP3    H230503   0.574   4.592  16.734 -0.5716  1.5497  1.0697
 3030TIP3   OH230504   3.384   3.180   2.606 -0.0954  0.2073  0.0093
 3030TIP3    H130505   3.374   3.269   2.573  1.6668  0.6571  0.5953
 3030TIP3    H230506   3.297   3.156   2.639 -0.7320  1.4613 -0.7003
 3031TIP3   OH230507   2.093   2.934  14.980  0.4775 -0.0889  0.1544
 3031TIP3    H130508   2.058   2.990  15.050  0.0911  0.2487 -0.2988
 3031TIP3    H230509   2.178   2.972  14.960 -0.9419  2.2409 -2.1653
 3032TIP3   OH230510   5.520   6.446   5.297  0.1756  0.1443  0.6525
 3032TIP3    H130511   5.445   6.420   5.351 -0.3097 -0.1708 -0.1639
 3032TIP3    H230512   5.594   6.399   5.336  0.1516  1.1800  2.0438
 3033TIP3   OH230513   1.542   3.041  16.431  0.8729  0.1788 -0.1151
 3033TIP3    H130514   1.627   3.006  16.459  0.7018  0.1262  0.3534
 3033TIP3    H230515   1.562   3.127  16.394  0.8788  1.3265  2.3171
 3034TIP3   OH230516   0.706   2.311   2.288 -0.3808 -0.7333  0.5392
 3034TIP3    H130517   0.644   2.377   2.261  0.7943  0.0209 -0.4082
 3034TIP3    H230518   0.663   2.266   2.361 -1.9122 -0.0962  0.0618
 3035TIP3   OH230519   5.771   2.253   5.477  0.0678 -0.0171  0.5553
 3035TIP3    H130520   5.784   2.347   5.479 -1.2090  0.1679  2.5821
 3035TIP3    H230521   5.838   2.218   5.536 -0.6036 -0.1976  1.2187
 3036TIP3   OH230522   4.703   6.400   2.440 -0.4254  0.1585  0.1786
 3036TIP3    H130523   4.774   6.452   2.404  0.1135  0.0457  1.0637
 3036TIP3    H230524   4.636   6.399   2.371  0.5958 -0.0902 -0.8303
 3037TIP3   OH230525   5.877   5.376   2.423 -0.1528 -0.2648 -0.1339
 3037TIP3    H130526   5.786   5.392   2.450  0.4465  0.3775  1.6282
 3037TIP3    H230527   5.883   5.281   2.414 -1.0714 -0.2950 -0.5722
 3038TIP3   OH230528   0.609   2.023   1.014 -0.2543 -0.0588  1.0473
 3038TIP3    H130529   0.637   1.934   0.993 -0.8178 -0.2274  0.9960
 3038TIP3    H230530   0.554   2.049   0.940 -0.2246  0.2713  1.1393
 3039TIP3   OH230531   0.124   4.512   0.182  0.1778 -0.0617 -0.0890
 3039TIP3    H130532   0.196   4.457   0.213 -0.8169 -0.7232  1.1674
 3039TIP3    H230533   0.101   4.566   0.258  0.2523  1.1442 -0.9012
 3040TIP3   OH230534   6.405   5.663  12.974  0.1478 -0.6381 -0.0570
 3040TIP3    H130535   6.424   5.756  12.978  2.0480 -0.7697 -2.8800
 3040TIP3    H230536   6.313   5.657  12.949  0.3340  0.5598 -1.1057
 3041TIP3   OH230537   5.733   3.091   1.159 -0.0902  0.2031 -0.2033
 3041TIP3    H130538   5.682   3.010   1.165  0.9987 -0.4562  0.7119
 3041TIP3    H230539   5.691   3.150   1.221  0.1559 -0.2946  0.4569
 3042TIP3   OH230540   0.643   5.275  15.988  0.2384 -0.3847 -0.3450
 3042TIP3    H130541   0.700   5.260  16.063  0.7391 -0.8285 -0.8000
 3042TIP3    H230542   0.703   5.279  15.913 -0.2014  0.5397 -0.6680
 3043TIP3   OH230543   1.232   5.816   2.881  0.2604 -0.3740  0.2058
 3043TIP3    H130544   1.214   5.727   2.908 -0.0685 -0.3092  0.2052
 3043TIP3    H230545   1.321   5.833   2.910  0.3243 -0.7052  0.1980
 3044TIP3   OH230546   2.231   6.562   2.719 -0.1416 -0.5276 -0.3871
 3044TIP3    H130547   2.221   6.656   2.701 -1.6005 -0.8215 -1.3226
 3044TIP3    H230548   2.300   6.557   2.785 -0.2374  1.2217 -0.1088
 3045TIP3   OH230549   2.451   6.012  11.316  0.1959 -0.2059  0.0813
 3045TIP3    H130550   2.518   6.052  11.372  0.4059 -1.6561  0.9076
 3045TIP3    H230551   2.372   6.012  11.371  0.3832 -1.5722  0.3779
 3046TIP3   OH230552   3.100   5.112   1.025 -0.2427  0.3005  0.5989
 3046TIP3    H130553   3.168   5.066   0.974  1.1458  1.7713  1.0335
 3046TIP3    H230554   3.060   5.172   0.962 -0.7546 -0.1407  0.4928
 3047TIP3   OH230555   2.080   3.854   1.595 -0.3977  0.2362 -0.0705
 3047TIP3    H130556   2.094   3.921   1.529 -1.0138  0.6157  0.1765
 3047TIP3    H230557   2.044   3.901   1.670  0.9521 -0.0824  0.8012
 3048TIP3   OH230558   6.395   1.755   0.660 -0.7017  0.1828  0.0550
 3048TIP3    H130559   6.354   1.810   0.727 -0.9744  0.5391 -0.4059
 3048TIP3    H230560   6.476   1.801   0.637 -0.7121  0.1648 -0.0172
 3049TIP3   OH230561   1.178   1.054  14.743 -0.0465 -0.5892 -0.0947
 3049TIP3    H130562   1.151   1.140  14.774  0.7198 -0.5086  0.3754
 3049TIP3    H230563   1.263   1.039  14.784  0.7258 -0.7427 -1.6476
 3050TIP3   OH230564   6.677   1.435   2.739  0.1455  0.1723  0.2372
 3050TIP3    H130565   6.722   1.493   2.799  0.1638  1.6931 -1.1619
 3050TIP3    H230566   6.590   1.474   2.729 -0.5051 -1.1183  0.7084
 3051TIP3   OH230567   1.951   6.124  15.533  0.0592  0.4595  0.4470
 3051TIP3    H130568   1.969   6.089  15.621  2.6973  1.2417  0.3122
 3051TIP3    H230569   1.882   6.068  15.499  0.7023 -1.4761  2.1006
 3052TIP3   OH230570   5.105   3.016   0.309  0.3506 -0.2203  0.6883
 3052TIP3    H130571   5.097   2.929   0.270  1.6465 -0.0971  0.0977
 3052TIP3    H230572   5.071   3.075   0.242 -1.3636 -0.3009  1.4308
 3053TIP3   OH230573   5.371   3.832  12.450  0.5801 -0.3373  0.3961
 3053TIP3    H130574   5.448   3.873  12.411 -0.9637  2.0639 -0.3405
 3053TIP3    H230575   5.398   3.809  12.539  2.3599 -0.3500 -0.1084
 3054TIP3   OH230576   5.785   0.559   0.631  0.0910  0.1686  0.1033
 3054TIP3    H130577   5.771   0.619   0.558 -0.9398  0.1147  0.2373
 3054TIP3    H230578   5.869   0.517   0.613 -0.7831 -0.8914 -1.7945
 3055TIP3   OH230579   2.879   0.408  16.082 -0.5221  0.2133  0.1115
 3055TIP3    H130580   2.903   0.407  16.175 -0.7457  2.8233  0.2783
 3055TIP3    H230581   2.783   0.409  16.082 -0.6250  4.1060  0.1393
 3056TIP3   OH230582   0.586   6.425  14.483 -0.3115  0.1793 -0.4515
 3056TIP3    H130583   0.532   6.365  14.535 -0.0449  1.4327  1.3763
 3056TIP3    H230584   0.617   6.489  14.546  0.8305  1.2495 -2.0337
 3057TIP3   OH230585   6.454   4.130   3.734 -0.1738  0.2152  0.3859
 3057TIP3    H130586   6.517   4.062   3.711 -0.2330  0.0372  0.7493
 3057TIP3    H230587   6.424   4.164   3.649  0.3171  0.2197  0.2123
 3058TIP3   OH230588   0.240   1.482   3.221  0.7298  0.1873 -0.1273
 3058TIP3    H130589   0.261   1.553   3.161 -1.7690 -1.1081 -2.7464
 3058TIP3    H230590   0.161   1.511   3.267  0.1207 -0.5589 -0.6768
 3059TIP3   OH230591   1.641   5.606  14.431  0.2045  0.2947 -0.5454
 3059TIP3    H130592   1.606   5.536  14.375 -0.9965  1.6352 -1.5308
 3059TIP3    H230593   1.591   5.598  14.512 -0.9186  0.8425 -1.1628
 3060TIP3   OH230594   2.363   5.138   3.931 -0.8003 -0.4569 -0.1605
 3060TIP3    H130595   2.329   5.094   4.009 -2.1433  1.1511  0.2360
 3060TIP3    H230596   2.402   5.219   3.965 -1.0486  0.0682 -1.1100
 3061TIP3   OH230597   3.422   4.563   3.146  0.6505 -0.4429 -0.3469
 3061TIP3    H130598   3.407   4.579   3.053 -0.1569 -1.7650 -0.4705
 3061TIP3    H230599   3.334   4.544   3.181  1.0184 -0.5132  0.5654
 3062TIP3   OH230600   1.089   4.063  10.589 -0.5339  0.2315  0.0625
 3062TIP3    H130601   1.110   3.976  10.622  0.9092 -0.1118 -1.6072
 3062TIP3    H230602   1.011   4.050  10.534 -0.6208  0.0961  0.2183
 3063TIP3   OH230603   2.725   6.218   0.720  0.4281 -0.3219 -0.6167
 3063TIP3    H130604   2.757   6.307   0.728 -0.4311 -0.1048  0.7954
 3063TIP3    H230605   2.793   6.164   0.760  1.1014 -0.3505 -1.7734
 3064TIP3   OH230606   3.577   3.124  16.126 -0.2620 -0.0647 -0.2615
 3064TIP3    H130607   3.576   3.034  16.158 -2.0365 -0.8972 -2.3864
 3064TIP3    H230608   3.505   3.127  16.062 -0.9907  3.1647  0.5473
 3065TIP3   OH230609   1.727   3.049   0.277 -0.2358 -0.7020 -0.5237
 3065TIP3    H130610   1.711   2.984   0.345 -0.6593 -0.0409  0.0251
 3065TIP3    H230611   1.640   3.069   0.242 -0.1853  0.0080 -0.2649
 3066TIP3   OH230612   6.692   1.814  14.211 -0.0658  0.1716 -0.2297
 3066TIP3    H130613   6.773   1.844  14.168 -0.1944  1.8614  0.6062
 3066TIP3    H230614   6.717   1.804  14.303 -1.0011  1.6186  0.2071
 3067TIP3   OH230615   2.232   2.050   4.601 -0.9456  0.7586 -0.1323
 3067TIP3    H130616   2.164   1.983   4.598  1.0268 -1.5129  1.6236
 3067TIP3    H230617   2.229   2.083   4.691  0.6825  0.0761  0.2071
 3068TIP3   OH230618   4.481   5.465   1.637 -0.1911 -0.0857 -0.2965
 3068TIP3    H130619   4.468   5.502   1.550 -0.5649  0.1400 -0.1473
 3068TIP3    H230620   4.395   5.469   1.678 -0.0107 -0.1608  0.0949
 3069TIP3   OH230621   0.028   0.778  11.014  0.1251 -0.4816 -0.3546
 3069TIP3    H130622   0.023   0.803  11.106 -1.5274 -2.5637  0.2017
 3069TIP3    H230623  -0.049   0.723  11.000  0.1828 -0.0153 -3.0730
 3070TIP3   OH230624   3.986   2.133   2.701 -0.2945  0.7555 -0.1902
 3070TIP3    H130625   4.029   2.217   2.717 -1.1785  0.7795  2.5566
 3070TIP3    H230626   3.895   2.148   2.725 -0.5352 -0.9107  0.0542
 3071TIP3   OH230627   2.707   0.677  15.302 -0.2226 -0.0602  0.4021
 3071TIP3    H130628   2.723   0.672  15.208  0.1050  0.3836  0.4263
 3071TIP3    H230629   2.626   0.727  15.310  1.1753  2.3634  0.4144
 3072TIP3   OH230630   6.639   0.441   5.375 -0.0617  0.1660 -0.0859
 3072TIP3    H130631   6.704   0.479   5.316 -0.4733  2.0771  0.6186
 3072TIP3    H230632   6.686   0.430   5.458 -0.4002  0.8605  0.2133
 3073TIP3   OH230633   3.886   1.566   0.202  0.2671 -0.3253  0.6568
 3073TIP3    H130634   3.917   1.478   0.223 -0.8752 -0.5640  1.4839
 3073TIP3    H230635   3.923   1.622   0.270 -0.4967 -0.4943  1.2298
 3074TIP3   OH230636   3.537   2.711  13.453  0.0967  0.1978  0.0846
 3074TIP3    H130637   3.510   2.693  13.363 -0.3855 -1.3217  0.5045
 3074TIP3    H230638   3.523   2.628  13.499  1.1801  0.7018  1.3640
 3075TIP3   OH230639   4.184   6.707   3.255 -0.1359 -0.2010  0.2464
 3075TIP3    H130640   4.204   6.721   3.162 -1.8164  0.1162 -0.0963
 3075TIP3    H230641   4.196   6.792   3.295 -1.6369  0.2162 -0.1386
 3076TIP3   OH230642   1.042   3.198   4.804 -0.6567  0.6965 -0.3746
 3076TIP3    H130643   1.057   3.165   4.716 -1.5116  1.0565 -0.6657
 3076TIP3    H230644   1.093   3.141   4.861  2.2434  2.1539 -1.3193
 3077TIP3   OH230645   5.818   5.489   5.971  0.5093  0.0178  0.4111
 3077TIP3    H130646   5.789   5.450   5.889  2.0582  1.0529 -0.6624
 3077TIP3    H230647   5.753   5.556   5.990  0.1086 -0.2701  0.0761
 3078TIP3   OH230648   4.339   4.538   1.361  0.3740  0.8397  0.0430
 3078TIP3    H130649   4.279   4.476   1.404 -0.5337 -0.9475 -3.4498
 3078TIP3    H230650   4.412   4.483   1.332  0.5238  1.7681 -1.3983
 3079TIP3   OH230651   2.879   0.430  12.389  0.5460  0.1395 -0.3900
 3079TIP3    H130652   2.868   0.352  12.335 -1.2426 -1.3018  1.8785
 3079TIP3    H230653   2.842   0.407  12.474  1.1537  3.0423  0.8104
 3080TIP3   OH230654   5.673   2.870  11.121 -0.0736  0.4459  1.0480
 3080TIP3    H130655   5.762   2.899  11.100 -0.3348  0.1329 -0.5892
 3080TIP3    H230656   5.617   2.927  11.069 -0.5994 -3.2459 -2.9549
 3081TIP3   OH230657   1.577   5.588   2.417 -0.8034 -0.2259  0.2346
 3081TIP3    H130658   1.499   5.534   2.434 -0.1270 -0.9718  1.1023
 3081TIP3    H230659   1.650   5.526   2.423  0.0523  0.8761  1.9668
 3082TIP3   OH230660   5.894   4.758   4.155  0.4247 -0.0685  0.4851
 3082TIP3    H130661   5.808   4.732   4.187  0.8254 -1.7303  0.3049
 3082TIP3    H230662   5.956   4.717   4.215  1.1227 -1.2842 -0.9834
 3083TIP3   OH230663   6.069   1.896   3.053 -0.1666  0.6763 -0.0237
 3083TIP3    H130664   6.054   1.816   3.003 -0.3585  0.4760  0.3559
 3083TIP3    H230665   6.043   1.966   2.993 -1.0819  0.4041  0.0323
 3084TIP3   OH230666   3.557   3.354   3.446 -0.1074  0.2869 -0.2297
 3084TIP3    H130667   3.640   3.360   3.398  1.0158  2.6166  1.7790
 3084TIP3    H230668   3.536   3.444   3.469 -1.7927 -0.5057  1.5982
 3085TIP3   OH230669   1.254   0.637   6.653  0.1598  0.0798 -0.2271
 3085TIP3    H130670   1.159   0.653   6.651 -0.2079 -1.9068 -0.8533
 3085TIP3    H230671   1.287   0.675   6.572  0.0018  1.3039  0.2726
 3086TIP3   OH230672   3.704   0.366  15.086  0.6095 -0.1661  0.0600
 3086TIP3    H130673   3.629   0.424  15.072  0.8879  0.1922  0.0376
 3086TIP3    H230674   3.726   0.377  15.178  0.1400 -0.8756  0.2651
 3087TIP3   OH230675   2.227   1.852  14.030  0.3731 -0.6284 -0.4314
 3087TIP3    H130676   2.190   1.852  13.942  1.0578 -1.3395 -0.7258
 3087TIP3    H230677   2.258   1.763  14.043  1.0441 -0.3106  0.2029
 3088TIP3   OH230678   6.108   6.139  12.879  0.3049 -0.4428 -0.6193
 3088TIP3    H130679   6.040   6.186  12.926 -0.3081 -0.2430 -1.6810
 3088TIP3    H230680   6.061   6.085  12.816  1.0558 -1.6654 -0.1619
 3089TIP3   OH230681   5.887   1.488   5.677 -0.1467  0.1141  0.1797
 3089TIP3    H130682   5.834   1.482   5.597  3.0176 -0.1434 -2.1138
 3089TIP3    H230683   5.881   1.401   5.716  1.1453 -1.0148 -1.9313
 3090TIP3   OH230684   4.615   4.856   5.347 -0.3587  0.3220 -0.0056
 3090TIP3    H130685   4.574   4.770   5.353  1.8320 -0.7284  1.6170
 3090TIP3    H230686   4.653   4.870   5.434  0.9776  2.0514 -0.8078
 3091TIP3   OH230687   5.990   0.882   3.251  0.1628 -0.5018  0.2679
 3091TIP3    H130688   5.953   0.804   3.291 -0.9779  0.9693  2.2828
 3091TIP3    H230689   6.084   0.875   3.266  0.0900 -1.5578  0.2689
 3092TIP3   OH230690   6.167   4.132   0.200 -0.5239 -0.2795  0.6660
 3092TIP3    H130691   6.251   4.145   0.155 -1.2211  0.5291 -0.4522
 3092TIP3    H230692   6.101   4.153   0.134 -1.6207  3.2118  2.6107
 3093TIP3   OH230693   4.782   0.546  11.816  1.1480 -0.1128  0.2765
 3093TIP3    H130694   4.795   0.624  11.763  0.5490  0.5469  1.0716
 3093TIP3    H230695   4.755   0.479  11.753 -0.1403  0.8074 -0.2004
 3094TIP3   OH230696   2.619   3.110   5.678  0.2413 -0.1163 -0.1685
 3094TIP3    H130697   2.664   3.124   5.595 -2.2886 -0.7063 -1.7739
 3094TIP3    H230698   2.689   3.096   5.742  2.2853  0.2670 -2.1934
 3095TIP3   OH230699   6.433   5.572   6.603  0.1807 -0.1387  0.0673
 3095TIP3    H130700   6.441   5.477   6.595 -1.0855 -0.2897  0.4758
 3095TIP3    H230701   6.524   5.603   6.604  0.6015 -1.2420 -1.1213
 3096TIP3   OH230702   0.554   3.888   5.678  0.4360 -0.6197  0.0458
 3096TIP3    H130703   0.579   3.881   5.771 -1.7869 -1.7082  0.6255
 3096TIP3    H230704   0.638   3.891   5.631  1.6472 -2.2415  1.9356
 3097TIP3   OH230705   0.111   1.829  16.008  0.1649 -0.0965 -0.2231
 3097TIP3    H130706   0.202   1.821  15.979 -0.2776 -1.1845 -1.4503
 3097TIP3    H230707   0.062   1.775  15.946 -1.2708  0.1329  0.6673
 3098TIP3   OH230708   3.566   4.088  11.331 -0.0991 -0.4568  0.0928
 3098TIP3    H130709   3.472   4.078  11.318 -0.5615  0.8931  1.9447
 3098TIP3    H230710   3.595   4.143  11.259 -0.6479 -1.1130 -0.6483
 3099TIP3   OH230711   1.492   1.988   1.537  0.2120  0.3100  0.1562
 3099TIP3    H130712   1.560   1.974   1.602  0.3856  1.8750  0.3595
 3099TIP3    H230713   1.433   1.914   1.548  0.6834  0.1002  1.5303
 3100TIP3   OH230714   5.947   2.284  15.135 -0.1361 -0.0750  0.2503
 3100TIP3    H130715   5.890   2.262  15.208  3.7722  0.1616  3.7372
 3100TIP3    H230716   5.973   2.200  15.098 -3.7978 -0.1807 -2.6206
 3101TIP3   OH230717   6.697   6.730   1.696 -0.8072 -0.0404 -0.4677
 3101TIP3    H130718   6.746   6.654   1.726 -0.6872 -0.2050 -1.0553
 3101TIP3    H230719   6.623   6.737   1.757 -0.1513  0.1107  0.3173
 3102TIP3   OH230720   2.287   0.013  14.603 -0.4062  0.3421  0.4450
 3102TIP3    H130721   2.359  -0.050  14.604  0.4851  1.2993  2.1892
 3102TIP3    H230722   2.322   0.087  14.553 -0.2750  0.6769  1.0198
 3103TIP3   OH230723   3.070   6.334  16.973  0.0107  0.0919 -0.2148
 3103TIP3    H130724   3.019   6.384  16.909 -0.8654 -1.4344 -0.7629
 3103TIP3    H230725   3.046   6.373  17.058 -0.3362  0.8551 -0.6496
 3104TIP3   OH230726   5.563   0.176   3.424 -0.2441  0.1482 -0.2788
 3104TIP3    H130727   5.523   0.116   3.488  1.3511 -1.9142 -1.1382
 3104TIP3    H230728   5.599   0.247   3.478  0.9547 -1.4712  1.1753
 3105TIP3   OH230729   2.213   3.559  12.826 -0.2496  0.2788 -0.3985
 3105TIP3    H130730   2.250   3.593  12.907 -0.9233 -2.2748  1.0678
 3105TIP3    H230731   2.285   3.509  12.786 -0.3031  0.4705 -0.7399
 3106TIP3   OH230732   4.233   2.187   6.762 -0.1462  0.2991  0.0953
 3106TIP3    H130733   4.307   2.128   6.749 -0.2058 -0.1124  1.4514
 3106TIP3    H230734   4.158   2.140   6.725 -0.2017 -0.5384  1.1920
 3107TIP3   OH230735   2.190   3.168  13.535 -0.3141 -0.3841  0.5056
 3107TIP3    H130736   2.166   3.261  13.529 -0.5946 -0.5303 -1.0588
 3107TIP3    H230737   2.118   3.128  13.583  0.0549  0.2683  1.6550
 3108TIP3   OH230738   6.092   5.418  15.898 -0.5413 -0.3152  0.0002
 3108TIP3    H130739   6.035   5.473  15.845 -0.5470  1.0573  1.3369
 3108TIP3    H230740   6.166   5.475  15.921 -0.2419 -1.0403  0.9175
 3109TIP3   OH230741   4.778   2.674  13.026 -0.4360  0.0409  0.0565
 3109TIP3    H130742   4.829   2.648  12.949 -0.1789 -1.6200  0.7332
 3109TIP3    H230743   4.837   2.730  13.076 -0.3484  0.5394 -0.5893
 3110TIP3   OH230744   0.283   0.068  11.005 -0.5325 -0.0653  0.8498
 3110TIP3    H130745   0.292   0.143  10.946  1.8997 -1.9760 -1.4985
 3110TIP3    H230746   0.193   0.073  11.037 -0.8195  3.1763 -0.0307
 3111TIP3   OH230747   5.387   2.701  13.288 -0.1912 -0.3139 -0.2092
 3111TIP3    H130748   5.371   2.795  13.282  1.4988  0.0224 -0.0330
 3111TIP3    H230749   5.354   2.677  13.375  0.2270  0.3207  0.1333
 3112TIP3   OH230750   0.086   2.053  16.298 -0.0550 -0.3930 -0.4546
 3112TIP3    H130751   0.150   2.121  16.319  0.0392 -0.2076 -1.3322
 3112TIP3    H230752   0.084   2.049  16.203 -0.8008 -0.9258 -0.4302
 3113TIP3   OH230753   5.004   3.149  11.805 -1.6627 -0.4846 -0.4034
 3113TIP3    H130754   5.028   3.219  11.865  0.1202 -2.4422  1.3403
 3113TIP3    H230755   4.993   3.192  11.721 -2.5130  2.1130  0.9403
 3114TIP3   OH230756   2.499   2.376   2.676 -0.3870 -0.6694 -0.2741
 3114TIP3    H130757   2.584   2.336   2.695 -1.9858 -2.9450  3.0279
 3114TIP3    H230758   2.503   2.461   2.720  0.2939 -0.5909 -0.4700
 3115TIP3   OH230759   5.929   1.498  15.108 -0.8180  0.0181  0.1056
 3115TIP3    H130760   5.992   1.486  15.037 -1.5522 -0.7885 -0.4412
 3115TIP3    H230761   5.976   1.474  15.187 -0.8481 -2.0365 -0.4575
 3116TIP3   OH230762   5.973   1.402   0.755  0.7861  0.1980  0.2202
 3116TIP3    H130763   6.019   1.482   0.731  1.7722 -0.5388 -0.4264
 3116TIP3    H230764   6.029   1.331   0.723  0.0832 -0.7626  1.0286
 3117TIP3   OH230765   1.370   1.254   6.468  0.1412 -0.2803  0.1130
 3117TIP3    H130766   1.389   1.231   6.559  1.2868 -1.1361 -0.3166
 3117TIP3    H230767   1.429   1.199   6.416  0.8118  1.4913 -1.0981
 3118TIP3   OH230768   2.419   1.530  12.818 -0.0183  0.1682  0.1422
 3118TIP3    H130769   2.410   1.610  12.766  1.0848  1.4988  1.8766
 3118TIP3    H230770   2.450   1.464  12.756  0.5244  1.4834 -1.0414
 3119TIP3   OH230771   0.914   4.906   5.861 -0.2174  0.4221  0.2781
 3119TIP3    H130772   0.950   4.995   5.854 -0.3149  0.3777 -1.1186
 3119TIP3    H230773   0.880   4.887   5.774  0.8768 -1.4433  0.2037
 3120TIP3   OH230774   0.992   2.192   4.370  1.1374  0.1648  0.1537
 3120TIP3    H130775   0.950   2.242   4.300  0.8571 -2.1675 -1.4890
 3120TIP3    H230776   0.996   2.252   4.444 -0.7800  1.9883 -1.1088
 3121TIP3   OH230777   1.501   0.754  13.416 -0.0842 -0.7651 -0.0972
 3121TIP3    H130778   1.415   0.751  13.457 -0.3045  0.2262 -0.4828
 3121TIP3    H230779   1.562   0.730  13.487 -0.5377  0.0559  0.5805
 3122TIP3   OH230780   2.405   0.945   3.776 -0.0244 -0.0424 -0.2515
 3122TIP3    H130781   2.314   0.948   3.745 -0.8972 -0.9064  1.9875
 3122TIP3    H230782   2.442   0.867   3.735 -0.1579  0.4939 -1.4355
 3123TIP3   OH230783   4.355   5.726  16.790  0.2031 -0.8827 -0.3176
 3123TIP3    H130784   4.368   5.816  16.817  1.3397 -1.1226 -0.0154
 3123TIP3    H230785   4.267   5.724  16.754  0.1386  0.3251 -0.2512
 3124TIP3   OH230786   3.116   2.657   0.830 -0.8108 -0.4105  0.5810
 3124TIP3    H130787   3.095   2.569   0.798 -0.3944 -0.9952  1.8528
 3124TIP3    H230788   3.163   2.698   0.758 -2.2556 -0.7098 -0.5752
 3125TIP3   OH230789   0.247   5.007   0.028  0.0239 -0.8340  0.2249
 3125TIP3    H130790   0.195   5.081   0.059 -1.2253 -1.5226 -0.1748
 3125TIP3    H230791   0.280   5.034  -0.057  2.1395  0.4374  1.3729
 3126TIP3   OH230792   0.320   2.700   2.619  0.5323 -0.2238 -0.0359
 3126TIP3    H130793   0.272   2.709   2.701  0.1957 -1.9457  0.0077
 3126TIP3    H230794   0.360   2.613   2.625  0.7359 -0.2596 -1.5663
 3127TIP3   OH230795   5.917   5.839   3.565 -0.6854  0.4481  0.3412
 3127TIP3    H130796   5.990   5.862   3.508 -0.4122 -1.0988  0.0123
 3127TIP3    H230797   5.858   5.914   3.560 -0.0701  0.8698 -0.9966
 3128TIP3   OH230798   6.367   0.872  15.828 -0.2167  0.2253 -0.0769
 3128TIP3    H130799   6.456   0.897  15.852 -0.8132  0.9595  1.5872
 3128TIP3    H230800   6.359   0.781  15.858  0.4986 -0.4644 -1.8673
 3129TIP3   OH230801   3.254   1.546   0.295 -0.2575  0.1528 -0.1365
 3129TIP3    H130802   3.167   1.506   0.289  1.0216 -2.6967 -1.5813
 3129TIP3    H230803   3.307   1.480   0.340  1.7136  0.7166 -1.5146
 3130TIP3   OH230804   2.924   4.136   3.222 -0.0179  0.3074 -0.2587
 3130TIP3    H130805   2.890   4.115   3.309 -0.5341  0.0300 -0.5203
 3130TIP3    H230806   2.954   4.052   3.187  1.8109  0.6871  0.3209
 3131TIP3   OH230807   2.671   4.342  11.446 -0.3608  0.7909 -0.0612
 3131TIP3    H130808   2.706   4.426  11.478 -0.2623  0.4047  0.8768
 3131TIP3    H230809   2.715   4.328  11.362 -0.3867  1.6798 -0.2366
 3132TIP3   OH230810   0.543   5.733  12.469 -0.1951 -0.0062  0.1031
 3132TIP3    H130811   0.544   5.829  12.471  0.6829  0.0402 -1.3360
 3132TIP3    H230812   0.463   5.711  12.422  0.9112  0.1305 -1.9367
 3133TIP3   OH230813   4.849   4.175  13.050  0.3018 -0.5039 -0.2199
 3133TIP3    H130814   4.754   4.165  13.056  0.2316  0.1242 -0.2571
 3133TIP3    H230815   4.868   4.256  13.097  0.6423  0.1542 -1.4463
 3134TIP3   OH230816   0.618   1.372   4.882 -0.3442  0.2213  0.0123
 3134TIP3    H130817   0.591   1.280   4.886  1.1111 -0.3096 -1.3028
 3134TIP3    H230818   0.549   1.419   4.928 -0.5176 -1.6451  1.8017
 3135TIP3   OH230819   3.028   3.186   3.254 -0.5222 -0.1441 -0.4850
 3135TIP3    H130820   3.006   3.276   3.233  0.1627  0.2536  0.4611
 3135TIP3    H230821   3.016   3.179   3.349  1.9574 -0.2875 -0.1113
 3136TIP3   OH230822   1.255   5.758   0.412 -0.0953  0.6275  0.0897
 3136TIP3    H130823   1.187   5.691   0.407  1.1385 -0.8495  1.5853
 3136TIP3    H230824   1.322   5.719   0.468  1.5591  2.3853 -0.5576
 3137TIP3   OH230825   1.827   0.925  15.378 -0.0982  0.0078  1.0716
 3137TIP3    H130826   1.756   0.876  15.419 -1.4663 -1.5749 -2.7388
 3137TIP3    H230827   1.878   0.858  15.332 -1.4473  1.7522 -3.5136
 3138TIP3   OH230828   6.141   2.266  14.662  0.0253 -0.0998 -0.4446
 3138TIP3    H130829   6.189   2.274  14.580  0.5953  0.9316 -0.0226
 3138TIP3    H230830   6.198   2.213  14.718 -0.6980 -1.4563 -0.9407
 3139TIP3   OH230831   2.422   1.034   6.175 -0.2330 -0.4201 -0.6833
 3139TIP3    H130832   2.373   1.116   6.179  0.7551  0.2244 -1.4373
 3139TIP3    H230833   2.459   1.024   6.263 -1.5584 -0.8595 -0.1340
 3140TIP3   OH230834   4.638   5.553   2.590  0.0444  0.2910 -0.3871
 3140TIP3    H130835   4.703   5.576   2.523  0.8674 -0.0853  0.2708
 3140TIP3    H230836   4.562   5.607   2.568  0.2028  0.0028 -1.7693
 3141TIP3   OH230837   2.420   0.739  11.742  0.6272 -0.3851 -0.2198
 3141TIP3    H130838   2.343   0.735  11.685 -2.5045  2.6168  3.2815
 3141TIP3    H230839   2.486   0.786  11.690 -1.9923  2.1491 -1.5309
 3142TIP3   OH230840   1.608   0.805  17.066  0.1302  0.2394  0.3000
 3142TIP3    H130841   1.574   0.837  17.150 -1.8208  0.7223 -0.6207
 3142TIP3    H230842   1.580   0.871  17.002 -0.0700 -1.0562 -0.9948
 3143TIP3   OH230843   3.604   0.962   6.254 -0.3335 -0.6593 -0.0374
 3143TIP3    H130844   3.565   1.047   6.231 -0.1025 -0.9773 -1.7458
 3143TIP3    H230845   3.674   0.983   6.315 -0.7359  0.3066  0.1086
 3144TIP3   OH230846   1.263   3.261   2.678 -0.1902  0.6462  0.0072
 3144TIP3    H130847   1.333   3.197   2.667 -0.1447  0.6138  0.4575
 3144TIP3    H230848   1.309   3.344   2.694 -0.2541  0.6788  0.0208
 3145TIP3   OH230849   0.801   1.399  16.462  0.6702  0.4691 -0.6721
 3145TIP3    H130850   0.735   1.397  16.393 -0.3645  1.7747  0.2138
 3145TIP3    H230851   0.769   1.339  16.529 -1.1881  3.0828  0.9984
 3146TIP3   OH230852   1.238   0.102  12.898  0.2022  0.7915  0.0030
 3146TIP3    H130853   1.181   0.040  12.943  1.5647 -0.8001 -0.3963
 3146TIP3    H230854   1.255   0.170  12.964 -2.9617  1.9332 -0.2000
 3147TIP3   OH230855   0.932   2.288   0.415 -0.9045 -0.2130  0.3124
 3147TIP3    H130856   0.914   2.222   0.482  2.2017 -1.7069 -0.1422
 3147TIP3    H230857   0.908   2.246   0.333  0.6186 -0.6892  0.0668
 3148TIP3   OH230858   2.403   5.216   3.069 -0.0350 -0.5115  0.5596
 3148TIP3    H130859   2.490   5.191   3.037 -0.1116 -0.9288  0.6824
 3148TIP3    H230860   2.395   5.308   3.044 -0.2593 -0.9217 -1.0048
 3149TIP3   OH230861   3.196   2.558  16.014  0.2227  0.0377  0.1585
 3149TIP3    H130862   3.128   2.495  15.990  1.1165 -0.4625 -1.1952
 3149TIP3    H230863   3.220   2.534  16.104 -1.7306  0.5762  0.8694
 3150TIP3   OH230864   5.865   2.302   1.190  0.5149 -0.1656  0.1924
 3150TIP3    H130865   5.953   2.268   1.170  0.9667 -0.0773  1.8771
 3150TIP3    H230866   5.881   2.384   1.236 -0.5502  1.7134 -2.5354
 3151TIP3   OH230867   2.527   3.142  15.508  0.9340  0.4861  0.3552
 3151TIP3    H130868   2.622   3.125  15.508  0.8760  0.0064  1.8063
 3151TIP3    H230869   2.489   3.063  15.470  1.1622  1.3256 -1.7725
 3152TIP3   OH230870   4.786   5.428   1.870 -0.0211 -0.2889  0.3623
 3152TIP3    H130871   4.789   5.478   1.788 -1.3822 -0.3175  0.2695
 3152TIP3    H230872   4.792   5.337   1.842 -2.7189 -0.4581  0.0182
 3153TIP3   OH230873   1.480   5.561   1.203  0.6154  0.1543  0.7003
 3153TIP3    H130874   1.453   5.602   1.121  1.6306 -0.3297  0.0951
 3153TIP3    H230875   1.460   5.626   1.271  0.6855  0.9658 -0.0410
 3154TIP3   OH230876   1.441   1.394   4.564  0.3510  0.1420 -0.0212
 3154TIP3    H130877   1.502   1.450   4.611  1.4029 -0.9086 -0.0814
 3154TIP3    H230878   1.421   1.323   4.625  0.2967 -0.2574 -0.4926
 3155TIP3   OH230879   6.128   4.233   3.583  0.3194 -0.0992 -0.8394
 3155TIP3    H130880   6.151   4.240   3.676  1.0541 -0.8468 -0.9454
 3155TIP3    H230881   6.204   4.267   3.537 -0.3044  0.8836 -1.1783
 3156TIP3   OH230882   3.151   5.256  13.374 -0.0245  0.1439  0.0693
 3156TIP3    H130883   3.247   5.253  13.380 -0.1198 -0.4168  1.7803
 3156TIP3    H230884   3.127   5.176  13.328  0.4004  1.3365 -2.4055
 3157TIP3   OH230885   4.468   5.872   3.437 -0.4448  0.8751  0.4902
 3157TIP3    H130886   4.402   5.861   3.368 -1.5961 -0.4931  1.7698
 3157TIP3    H230887   4.418   5.876   3.518  1.0494 -2.9530  1.8302
 3158TIP3   OH230888   1.553   5.152   3.983  0.3893 -0.0686 -0.3070
 3158TIP3    H130889   1.592   5.237   3.965  0.7537 -0.6277 -2.4368
 3158TIP3    H230890   1.615   5.089   3.946  0.6976 -1.3758  2.2284
 3159TIP3   OH230891   0.180   5.217  10.640  0.2670 -0.1546  0.3175
 3159TIP3    H130892   0.194   5.123  10.641  0.5434 -0.1215 -0.1608
 3159TIP3    H230893   0.260   5.254  10.678  1.0935 -0.0140 -1.4906
 3160TIP3   OH230894   4.631   3.486   2.817  0.4720 -0.2543 -0.4014
 3160TIP3    H130895   4.699   3.523   2.760  1.8305 -1.5951  0.2982
 3160TIP3    H230896   4.667   3.493   2.905  0.1459 -1.8649 -0.1081
 3161TIP3   OH230897   6.010   3.961   2.171 -0.0412 -0.2711  0.3859
 3161TIP3    H130898   6.081   3.971   2.108 -0.8132 -2.0984 -0.8845
 3161TIP3    H230899   5.942   4.021   2.140  0.0337 -0.3151  0.1296
 3162TIP3   OH230900   6.295   6.780   5.320  0.0794  0.1982 -0.4585
 3162TIP3    H130901   6.379   6.823   5.303  0.4536 -0.6266 -0.7278
 3162TIP3    H230902   6.304   6.692   5.282 -0.9038  0.0958 -0.4944
 3163TIP3   OH230903   4.035   4.604   0.613  0.0555  0.1587 -0.0830
 3163TIP3    H130904   4.093   4.561   0.675 -0.5929 -0.7176 -0.0633
 3163TIP3    H230905   4.065   4.695   0.610 -1.0717  0.7167  2.9422
 3164TIP3   OH230906   5.302   2.174  15.605  0.2329 -0.0747  0.3972
 3164TIP3    H130907   5.227   2.215  15.563  1.1609  0.0837 -1.1495
 3164TIP3    H230908   5.334   2.240  15.667  0.5445  0.7984 -0.6715
 3165TIP3   OH230909   3.728   1.006  13.980 -0.1885 -0.2428  0.3945
 3165TIP3    H130910   3.702   1.095  13.954 -1.0741 -0.4357  0.5974
 3165TIP3    H230911   3.818   1.016  14.010 -0.5534  0.7553  1.2257
 3166TIP3   OH230912   2.219   1.377  16.510  0.2144  0.3298 -0.0085
 3166TIP3    H130913   2.142   1.417  16.551  0.0170 -1.6958  1.7482
 3166TIP3    H230914   2.184   1.332  16.433  0.0371  1.3156 -0.5238
 3167TIP3   OH230915   4.272   1.081  14.872  0.1017 -0.0901 -0.2248
 3167TIP3    H130916   4.296   1.049  14.959  1.3070 -2.4707 -1.3594
 3167TIP3    H230917   4.331   1.036  14.812 -1.5021  0.5279 -2.3983
 3168TIP3   OH230918   3.989   2.395   0.804 -0.5696  0.1499  0.0507
 3168TIP3    H130919   3.928   2.344   0.857  0.4994 -0.0055  1.1756
 3168TIP3    H230920   4.039   2.445   0.867  2.0058 -1.4083 -0.6251
 3169TIP3   OH230921   5.083   1.269  14.035  0.1675 -0.0389 -0.3381
 3169TIP3    H130922   5.032   1.189  14.044 -0.3534  0.2491 -0.6889
 3169TIP3    H230923   5.096   1.279  13.941  1.8412 -0.7051 -0.2014
 3170TIP3   OH230924   1.653   5.337  15.436 -0.4210  0.0850 -1.0040
 3170TIP3    H130925   1.628   5.271  15.372 -0.1815 -1.0494  0.0344
 3170TIP3    H230926   1.578   5.341  15.497  1.0960 -2.1711  1.2032
 3171TIP3   OH230927   1.372   5.317  15.552 -0.0663  0.5022 -0.2474
 3171TIP3    H130928   1.367   5.390  15.614  0.2559  0.8532 -0.6310
 3171TIP3    H230929   1.293   5.325  15.499  0.9588  1.8165 -1.6482
 3172TIP3   OH230930   1.118   0.066  14.851  0.0236 -0.4208  0.3198
 3172TIP3    H130931   1.026   0.040  14.841  0.3395 -1.5131  0.0670
 3172TIP3    H230932   1.114   0.155  14.886 -1.1226  0.0859 -0.9970
 3173TIP3   OH230933   1.300   3.419   5.680  0.0712  0.6403  0.0192
 3173TIP3    H130934   1.352   3.438   5.602  1.0593  0.8633  0.7253
 3173TIP3    H230935   1.359   3.372   5.738 -0.5902  0.6931  0.7497
 3174TIP3   OH230936   5.579   3.003   0.629  0.7369  0.7968  0.5256
 3174TIP3    H130937   5.608   2.953   0.706  0.1361  0.6002  0.6239
 3174TIP3    H230938   5.659   3.048   0.599  1.6508 -1.3162 -0.4221
 3175TIP3   OH230939   4.620   5.932  12.508 -0.8100 -0.2213  0.0029
 3175TIP3    H130940   4.675   5.913  12.584 -1.6882 -2.0857  0.2399
 3175TIP3    H230941   4.564   5.854  12.499  0.7839 -1.1927 -3.9092
 3176TIP3   OH230942   3.786   0.819  14.312 -0.1360  0.0233  0.7789
 3176TIP3    H130943   3.859   0.801  14.370 -0.5071 -1.3754  0.8391
 3176TIP3    H230944   3.818   0.793  14.225 -0.5203 -0.5152  0.7941
 3177TIP3   OH230945   3.675   0.947  16.861 -0.4289  0.0126 -0.2724
 3177TIP3    H130946   3.754   0.999  16.873 -1.5317  1.9554 -0.8942
 3177TIP3    H230947   3.613   1.007  16.818 -2.8290 -0.8544  1.7435
 3178TIP3   OH230948   0.938   5.596  15.408  0.2317 -0.1370  0.2870
 3178TIP3    H130949   0.852   5.575  15.372 -0.3234  1.3459  0.6611
 3178TIP3    H230950   0.929   5.685  15.442  1.5994 -0.3554  1.3412
 3179TIP3   OH230951   4.555   3.994  11.855 -0.3887 -0.0919 -0.0131
 3179TIP3    H130952   4.460   4.003  11.869 -0.1288  1.2964  1.0664
 3179TIP3    H230953   4.570   3.900  11.853 -1.9552 -0.3589 -1.4686
 3180TIP3   OH230954   4.537   0.436  11.558 -0.1593 -0.1256  0.4067
 3180TIP3    H130955   4.609   0.383  11.523 -1.0942 -1.7687  0.8900
 3180TIP3    H230956   4.576   0.522  11.572  0.9620 -0.1300 -2.0891
 3181TIP3   OH230957   0.908   1.339   1.851 -0.1282 -0.3420 -0.0323
 3181TIP3    H130958   0.983   1.351   1.793 -0.2234 -1.6350 -0.4358
 3181TIP3    H230959   0.889   1.245   1.849 -1.1445 -0.1847  0.8347
 3182TIP3   OH230960   5.054   1.721  14.994  0.2212 -0.0279 -0.0904
 3182TIP3    H130961   5.056   1.626  14.982  0.5784  0.0501 -0.7067
 3182TIP3    H230962   5.146   1.747  14.986  0.0646  0.4235 -0.3832
 3183TIP3   OH230963   6.308   3.049   4.998 -0.2995 -0.2752  0.1875
 3183TIP3    H130964   6.270   3.046   4.910 -0.2366  1.5878  0.0496
 3183TIP3    H230965   6.394   3.007   4.989  0.1449  0.7975 -0.9108
 3184TIP3   OH230966   5.748   6.046   3.616  0.0971  0.4557 -0.0014
 3184TIP3    H130967   5.757   6.122   3.673  1.3703  1.7525 -1.7885
 3184TIP3    H230968   5.658   6.050   3.584 -0.0694  0.7576  0.4975
 3185TIP3   OH230969   1.132   6.191  12.456  0.5713 -0.3900 -0.3368
 3185TIP3    H130970   1.127   6.097  12.476 -1.9063 -0.4458 -0.8508
 3185TIP3    H230971   1.126   6.234  12.542  1.5275 -0.6718 -0.1158
 3186TIP3   OH230972   6.104   5.890  15.457 -0.1750 -0.0177 -0.0519
 3186TIP3    H130973   6.059   5.809  15.435 -1.4488  0.8413 -0.7138
 3186TIP3    H230974   6.035   5.950  15.486  0.8868  0.4610  1.6502
 3187TIP3   OH230975   6.610   2.129  16.674  0.3193 -0.6361 -0.2834
 3187TIP3    H130976   6.578   2.101  16.759 -1.6682 -1.8794 -1.3731
 3187TIP3    H230977   6.563   2.210  16.656 -0.6818 -1.3451 -0.9624
 3188TIP3   OH230978   5.693   2.743  15.962  0.0746 -0.1745 -0.7788
 3188TIP3    H130979   5.737   2.828  15.960 -1.3324  0.5695 -1.6752
 3188TIP3    H230980   5.691   2.719  16.055 -1.7934  2.0476 -0.1521
 3189TIP3   OH230981   4.652   2.290  11.420 -0.1384 -0.4441 -0.3152
 3189TIP3    H130982   4.654   2.210  11.474  0.6927 -0.1486  0.1104
 3189TIP3    H230983   4.572   2.281  11.368 -0.5809 -1.0880  0.4364
 3190TIP3   OH230984   3.485   4.957  14.661 -0.3834 -0.1403 -0.3743
 3190TIP3    H130985   3.463   5.037  14.709 -2.1841  0.7975 -2.5426
 3190TIP3    H230986   3.400   4.916  14.643  0.3300 -1.2076 -1.4641
 3191TIP3   OH230987   3.120   2.305  12.002  0.3282  0.1716 -0.1728
 3191TIP3    H130988   3.032   2.315  12.037  0.3711 -0.6129  0.1832
 3191TIP3    H230989   3.107   2.287  11.909  0.1211  0.2423 -0.1583
 3192TIP3   OH230990   1.873   4.678  13.028  0.5238  0.0389 -0.5850
 3192TIP3    H130991   1.912   4.722  13.103  0.7995  0.6842 -1.1018
 3192TIP3    H230992   1.810   4.741  12.993 -0.9101 -0.9265  0.1493
 3193TIP3   OH230993   2.325   5.751   4.884 -0.1459 -0.0962  0.0629
 3193TIP3    H130994   2.389   5.698   4.837 -0.1747  1.2246 -1.5630
 3193TIP3    H230995   2.287   5.691   4.949 -0.8492 -2.3307 -2.2605
 3194TIP3   OH230996   0.914   4.733   1.729  0.2988 -0.0030  0.2442
 3194TIP3    H130997   0.999   4.773   1.713  1.1209 -2.0861 -1.0901
 3194TIP3    H230998   0.861   4.802   1.769  2.0475  1.8804 -0.5462
 3195TIP3   OH230999   2.001   3.085  13.712 -0.4883  0.5411 -0.2824
 3195TIP3    H131000   1.946   3.007  13.718 -0.5690  0.6369  0.3132
 3195TIP3    H231001   1.942   3.152  13.677 -0.3441  0.2738 -1.0595
 3196TIP3   OH231002   5.435   3.200   0.926  0.1725  0.2281  0.2242
 3196TIP3    H131003   5.485   3.281   0.933  0.7174  0.0606 -1.3979
 3196TIP3    H231004   5.482   3.137   0.981  0.2044  0.7897  0.8417
 3197TIP3   OH231005   5.438   4.594  14.166 -0.2227  0.4641  0.1068
 3197TIP3    H131006   5.435   4.499  14.173  1.1033  0.2251 -1.8169
 3197TIP3    H231007   5.356   4.617  14.122 -0.1790  0.1342 -0.1484
 3198TIP3   OH231008   4.502   3.736  13.106 -0.3836 -0.4702  0.4760
 3198TIP3    H131009   4.504   3.672  13.035  0.1787  0.0904 -0.0222
 3198TIP3    H231010   4.432   3.705  13.164 -0.5284 -1.1954 -0.0694
 3199TIP3   OH231011   5.333   4.346  12.507  0.1578 -0.4796  0.1854
 3199TIP3    H131012   5.377   4.354  12.592 -0.5493 -0.0865  0.5281
 3199TIP3    H231013   5.323   4.437  12.477  1.6843 -0.6565 -1.0153
 3200TIP3   OH231014   1.199   1.724  15.618 -1.0222  0.2269  0.2719
 3200TIP3    H131015   1.292   1.744  15.607 -1.1388  0.5353 -0.1892
 3200TIP3    H231016   1.179   1.751  15.708 -0.7268  0.4122  0.2844
 3201TIP3   OH231017   0.320   1.450  13.698  0.0059  0.2040  0.5539
 3201TIP3    H131018   0.378   1.377  13.674 -0.5757 -0.2778  0.5853
 3201TIP3    H231019   0.338   1.517  13.632  1.6616  0.6533  1.4081
 3202TIP3   OH231020   0.636   5.433  14.222 -0.3435 -0.2944 -0.2196
 3202TIP3    H131021   0.587   5.367  14.270 -0.8968  1.7647  2.2526
 3202TIP3    H231022   0.571   5.499  14.197  0.4265  0.1247 -1.2041
 3203TIP3   OH231023   2.458   3.156   3.514  0.0394  0.2885 -0.5143
 3203TIP3    H131024   2.469   3.102   3.436 -0.1397  0.2957 -0.5451
 3203TIP3    H231025   2.374   3.200   3.500  0.5571  1.1953 -0.8739
 3204TIP3   OH231026   1.817   0.492  15.813 -0.3095 -0.0829 -1.0779
 3204TIP3    H131027   1.849   0.402  15.823  0.8652  0.2999 -1.1534
 3204TIP3    H231028   1.820   0.528  15.901  1.5992  0.6042 -1.3651
 3205TIP3   OH231029   0.443   3.086   5.085 -0.0643 -0.0403 -0.7443
 3205TIP3    H131030   0.351   3.066   5.068  0.5063 -0.8674 -3.1623
 3205TIP3    H231031   0.446   3.181   5.091 -0.6617  0.2861 -3.9916
 3206TIP3   OH231032   3.165   0.982  11.781 -0.3910  0.2474 -0.8092
 3206TIP3    H131033   3.128   0.896  11.799 -1.8517  0.4145 -2.6992
 3206TIP3    H231034   3.217   1.003  11.859 -1.7073 -1.3992  0.5806
 3207TIP3   OH231035   5.765   1.246   5.782  0.0097 -0.4959 -0.1067
 3207TIP3    H131036   5.720   1.216   5.703 -0.0527 -4.5414  1.2451
 3207TIP3    H231037   5.850   1.202   5.780  0.3568 -0.0136  1.6589
 3208TIP3   OH231038   6.068   3.615  15.939  0.3555  0.4840 -0.3897
 3208TIP3    H131039   6.023   3.694  15.970 -3.2870 -1.6702  0.4579
 3208TIP3    H231040   6.056   3.617  15.844  1.2363  1.4192 -0.4964
 3209TIP3   OH231041   2.127   0.744  12.037 -0.2449  0.0825  0.2468
 3209TIP3    H131042   2.090   0.710  12.119  0.3797  0.3155  0.6310
 3209TIP3    H231043   2.051   0.756  11.980 -0.5107 -1.7434  0.1658
 3210TIP3   OH231044   3.260   3.450  14.030 -0.2897 -0.8837  0.4506
 3210TIP3    H131045   3.337   3.423  13.981 -0.5123  1.0176 -1.0774
 3210TIP3    H231046   3.295   3.484  14.113  0.4654 -0.5709  0.0114
 3211TIP3   OH231047   4.181   5.071   3.268  0.3386 -0.0016  0.4841
 3211TIP3    H131048   4.095   5.098   3.299 -0.1742 -0.6863 -0.2906
 3211TIP3    H231049   4.222   5.151   3.235 -0.6380  0.0629 -0.6141
 3212TIP3   OH231050   0.784   2.699   3.523  0.9370  0.4699  0.0344
 3212TIP3    H131051   0.794   2.730   3.433  0.7652  0.5110  0.0300
 3212TIP3    H231052   0.874   2.683   3.552  1.0339  1.0225  0.0528
 3213TIP3   OH231053   0.761   4.510   1.798  0.0124 -0.3563 -0.7142
 3213TIP3    H131054   0.803   4.591   1.768 -1.0638  0.4637 -0.0908
 3213TIP3    H231055   0.679   4.506   1.748 -0.9455  0.0851  0.7716
 3214TIP3   OH231056   6.725   1.849   0.168  0.2050  0.1974  0.3155
 3214TIP3    H131057   6.716   1.939   0.136 -0.8056  0.5726  1.5688
 3214TIP3    H231058   6.635   1.824   0.192  0.9482  0.1191  3.2867
 3215TIP3   OH231059   2.216   1.101   2.835  0.0786  0.0598 -0.7473
 3215TIP3    H131060   2.148   1.083   2.900  0.6494 -1.8355 -0.6038
 3215TIP3    H231061   2.225   1.196   2.835 -0.0696  0.1392  1.8349
 3216TIP3   OH231062   3.124   5.876   2.374  0.0338 -0.0158 -0.0225
 3216TIP3    H131063   3.031   5.857   2.382  0.1636 -0.4758  0.4558
 3216TIP3    H231064   3.129   5.972   2.371 -0.3594  0.0515  1.1813
 3217TIP3   OH231065   0.985   6.592  12.474 -0.3484 -0.4300 -0.0308
 3217TIP3    H131066   0.921   6.617  12.540 -1.4156 -1.2420 -0.7135
 3217TIP3    H231067   1.018   6.507  12.503 -1.2045 -1.0391 -0.7655
 3218TIP3   OH231068   1.716   6.143  12.438  0.2538  0.0243  1.2603
 3218TIP3    H131069   1.761   6.137  12.354  2.1643 -0.0577  2.2377
 3218TIP3    H231070   1.676   6.056  12.450  1.4646 -0.5540  1.2293
 3219TIP3   OH231071   6.528   0.525  13.752  0.5240  0.1184 -0.1496
 3219TIP3    H131072   6.623   0.524  13.751  0.5795 -2.4677  0.4113
 3219TIP3    H231073   6.504   0.470  13.827 -1.4219  1.1001  0.0153
 3220TIP3   OH231074   0.885   0.998   2.335  0.1891  0.1388 -0.2880
 3220TIP3    H131075   0.818   1.063   2.317 -0.2396  0.6696  2.7042
 3220TIP3    H231076   0.960   1.026   2.282 -1.0520  1.0521 -1.6611
 3221TIP3   OH231077   3.417   4.393   0.171 -0.4497 -0.2044  0.2606
 3221TIP3    H131078   3.410   4.415   0.264  0.5960 -0.2230  0.3580
 3221TIP3    H231079   3.368   4.311   0.162 -0.8130 -0.0387  0.7393
 3222TIP3   OH231080   2.004   5.270  13.148  0.1960 -0.3191  0.8711
 3222TIP3    H131081   2.042   5.334  13.208  1.4770 -1.8311  1.7618
 3222TIP3    H231082   1.987   5.193  13.202  0.7745 -1.5040 -0.5342
 3223TIP3   OH231083   5.283   4.385   2.870 -0.4958  0.7681 -0.1523
 3223TIP3    H131084   5.198   4.340   2.866 -0.6954  1.1384 -0.0878
 3223TIP3    H231085   5.332   4.348   2.796  0.1122 -1.0746  1.0919
 3224TIP3   OH231086   3.609   0.884  16.285  0.0110  0.2701 -0.3270
 3224TIP3    H131087   3.551   0.878  16.361 -1.0595  2.2150 -0.8992
 3224TIP3    H231088   3.622   0.794  16.257 -2.1775 -0.2900  0.2857
 3225TIP3   OH231089   0.470   2.324   4.935 -0.4546 -0.0045 -0.0120
 3225TIP3    H131090   0.406   2.255   4.954 -2.1328  1.5049  0.1409
 3225TIP3    H231091   0.549   2.277   4.908 -1.2235 -1.9810  0.9678
 3226TIP3   OH231092   4.333   3.111  10.608  0.0442 -0.1380  0.1416
 3226TIP3    H131093   4.345   3.019  10.585  0.9408  0.2349 -0.9841
 3226TIP3    H231094   4.320   3.110  10.703 -1.7557 -1.5632 -0.0672
 3227TIP3   OH231095   2.802   6.387   2.807  0.3751 -0.4406 -0.3752
 3227TIP3    H131096   2.892   6.362   2.788  0.4126 -0.7195  0.1459
 3227TIP3    H231097   2.754   6.304   2.808 -0.1359 -0.2101 -1.8425
 3228TIP3   OH231098   6.507   3.235  12.635  0.0085 -0.1387 -0.0625
 3228TIP3    H131099   6.465   3.239  12.549  1.2335  0.7476 -0.6551
 3228TIP3    H231100   6.499   3.324  12.669  0.3653 -0.2506  0.3187
 3229TIP3   OH231101   0.991   4.166   2.917 -0.5866  0.6358  0.1992
 3229TIP3    H131102   1.085   4.151   2.909 -0.8336 -0.1418 -2.3152
 3229TIP3    H231103   0.979   4.259   2.894 -0.4966  0.4366 -0.7165
 3230TIP3   OH231104   2.860   4.932   3.058  0.0531 -0.7138  0.3472
 3230TIP3    H131105   2.949   4.962   3.041 -0.9250  1.2264 -1.6979
 3230TIP3    H231106   2.856   4.846   3.015  0.9748 -0.9299  0.6568
 3231TIP3   OH231107   0.900   4.013  11.266 -0.1431 -0.5270  0.5472
 3231TIP3    H131108   0.958   3.965  11.207 -1.1813  1.9667 -2.8081
 3231TIP3    H231109   0.825   3.956  11.279 -0.3064 -0.8160 -1.4036
 3232TIP3   OH231110   4.971   6.087  14.339  0.0019  0.0495 -0.5019
 3232TIP3    H131111   4.921   6.169  14.344  1.1881  0.8514 -1.1746
 3232TIP3    H231112   5.000   6.083  14.248  2.2781  0.3319  0.1501
 3233TIP3   OH231113   3.649   5.958   5.038  0.0191 -0.2615 -0.3949
 3233TIP3    H131114   3.577   5.988   4.983 -0.2695  1.4790  0.8440
 3233TIP3    H231115   3.630   5.994   5.124  2.2660  0.1041  0.0112
 3234TIP3   OH231116   1.626   0.990  14.807  0.2118  0.0370  0.0019
 3234TIP3    H131117   1.709   0.950  14.835  0.1541 -0.0714  0.0168
 3234TIP3    H231118   1.624   0.974  14.712 -0.4734 -1.2188  0.2122
 3235TIP3   OH231119   4.929   4.258  11.604 -0.1358 -0.0294 -0.3125
 3235TIP3    H131120   4.886   4.265  11.689  1.1851  0.3469  0.3553
 3235TIP3    H231121   4.896   4.176  11.567  0.3366 -0.9492  1.1980
 3236TIP3   OH231122   2.574   4.594  17.056  0.0564  0.4465  0.5779
 3236TIP3    H131123   2.515   4.521  17.075 -0.5943  0.8475  0.1367
 3236TIP3    H231124   2.662   4.560  17.076  0.1089 -1.4412 -2.3116
 3237TIP3   OH231125   0.037   5.242   1.352 -0.7819  0.6248 -0.0690
 3237TIP3    H131126  -0.032   5.261   1.288 -1.3278 -1.3455 -0.1316
 3237TIP3    H231127   0.008   5.286   1.432 -2.4351 -0.6112  0.0571
 3238TIP3   OH231128   5.435   3.114   5.246 -0.4342 -0.2942 -0.2432
 3238TIP3    H131129   5.394   3.199   5.233 -1.5696 -0.5647  1.1978
 3238TIP3    H231130   5.411   3.064   5.168  1.7838  1.1915 -1.9958
 3239TIP3   OH231131   4.374   4.444   3.666 -0.7702  1.1716 -0.1133
 3239TIP3    H131132   4.325   4.370   3.632  0.0201  1.1927 -1.3597
 3239TIP3    H231133   4.411   4.412   3.748  0.9646 -0.4469 -1.4410
 3240TIP3   OH231134   2.382   4.647   4.951 -0.2948  0.2384  0.4959
 3240TIP3    H131135   2.446   4.676   5.016 -0.8972 -0.4968  1.4492
 3240TIP3    H231136   2.331   4.724   4.931  1.2642  0.9979 -0.7502
 3241TIP3   OH231137   2.185   1.616  16.766 -0.4010  0.5227 -0.0479
 3241TIP3    H131138   2.118   1.607  16.699  0.8387  0.4819 -1.3234
 3241TIP3    H231139   2.260   1.653  16.720  0.5464  0.3168  1.2798
 3242TIP3   OH231140   4.369   4.818  16.075  0.3567  0.1914 -0.4508
 3242TIP3    H131141   4.408   4.749  16.021  0.0113  1.1169 -1.9694
 3242TIP3    H231142   4.433   4.833  16.144  0.0994 -2.1268  0.3579
 3243TIP3   OH231143   3.648   4.731  16.096 -0.0932  0.2390 -1.0069
 3243TIP3    H131144   3.715   4.765  16.156  1.3277  0.0615 -2.4238
 3243TIP3    H231145   3.623   4.647  16.134 -0.4784  0.8907  0.2236
 3244TIP3   OH231146   1.385   3.688   3.893  0.6896  0.6343 -0.4591
 3244TIP3    H131147   1.300   3.718   3.926  1.4123  1.7138  0.4720
 3244TIP3    H231148   1.403   3.744   3.818  0.8941  0.8567 -0.2430
 3245TIP3   OH231149   1.500   6.377   3.506 -0.1000 -0.2707 -0.5300
 3245TIP3    H131150   1.467   6.335   3.427 -0.4385 -1.0048 -0.0162
 3245TIP3    H231151   1.523   6.466   3.479 -1.1394 -0.1965 -1.2341
 3246TIP3   OH231152   5.079   5.327   2.211 -0.1712  0.3821  0.8222
 3246TIP3    H131153   5.016   5.279   2.265 -1.0120  3.7326  3.1763
 3246TIP3    H231154   5.034   5.408   2.188  1.5322  0.6819 -1.9109
 3247TIP3   OH231155   1.321   3.683  12.998 -0.4471 -0.6357 -0.2695
 3247TIP3    H131156   1.415   3.683  12.983 -0.2110 -2.3140  0.8966
 3247TIP3    H231157   1.307   3.743  13.070 -0.3182 -0.1717 -0.6282
 3248TIP3   OH231158   1.468   2.223  13.833 -0.1999 -0.4661  0.1958
 3248TIP3    H131159   1.455   2.129  13.821 -0.2740 -0.6713  1.7645
 3248TIP3    H231160   1.458   2.237  13.927  1.4865  0.8537  0.2232
 3249TIP3   OH231161   2.914   5.567   5.609  0.1227 -0.2390  0.1387
 3249TIP3    H131162   2.903   5.575   5.514  0.1251  0.3364  0.1836
 3249TIP3    H231163   2.831   5.530   5.639 -0.2762  0.5527  0.0317
 3250TIP3   OH231164   0.089   5.818  15.705 -0.0855  0.5552 -0.0477
 3250TIP3    H131165   0.064   5.889  15.646  0.5450  0.6737 -0.1825
 3250TIP3    H231166   0.179   5.796  15.679  0.0518  0.3374  0.6045
 3251TIP3   OH231167   1.731   1.361  13.007  0.4653 -0.3341 -0.1217
 3251TIP3    H131168   1.807   1.393  13.057  0.2384 -1.7368  1.1994
 3251TIP3    H231169   1.662   1.425  13.026  0.3862 -0.8224  1.4402
 3252TIP3   OH231170   5.835   4.788  13.283  0.0280  0.4012 -0.1086
 3252TIP3    H131171   5.898   4.719  13.305  0.9121  1.2333  0.0519
 3252TIP3    H231172   5.858   4.860  13.342 -1.2749  0.6209  0.1556
 3253TIP3   OH231173   4.021   1.792   0.883  0.0606 -0.2333  0.2503
 3253TIP3    H131174   4.023   1.731   0.957  0.5873  0.3879  0.7654
 3253TIP3    H231175   3.998   1.876   0.923  0.6408  0.1668 -0.2466
 3254TIP3   OH231176   4.588   3.587   0.337  0.2527  0.2912  0.1658
 3254TIP3    H131177   4.555   3.500   0.359 -2.7123  1.4027  0.5669
 3254TIP3    H231178   4.589   3.589   0.242  2.9264 -0.9813  0.0749
 3255TIP3   OH231179   5.080   0.445  15.039 -0.0342 -0.0444  0.2883
 3255TIP3    H131180   5.050   0.491  14.961  0.4755 -0.6674 -0.2912
 3255TIP3    H231181   5.027   0.481  15.110 -2.1971 -1.0992 -0.6654
 3256TIP3   OH231182   4.449   3.637  14.281 -0.0582  0.3140  0.1023
 3256TIP3    H131183   4.391   3.623  14.355  0.1308 -0.3262  0.1355
 3256TIP3    H231184   4.486   3.551  14.262 -0.4895  0.3672 -1.0581
 3257TIP3   OH231185   6.502   5.236   0.383 -0.3370  0.6199  0.6788
 3257TIP3    H131186   6.527   5.318   0.341 -1.7001  0.4414 -0.5703
 3257TIP3    H231187   6.439   5.261   0.450 -1.0088  0.6009  0.0755
 3258TIP3   OH231188   1.767   3.051   5.376  0.1401  0.3552 -0.0007
 3258TIP3    H131189   1.701   3.034   5.308 -0.6183 -0.2464  0.8574
 3258TIP3    H231190   1.777   3.146   5.376  2.1879  0.2681 -2.7890
 3259TIP3   OH231191   2.171   0.654   6.272 -0.0118 -0.4681  0.2699
 3259TIP3    H131192   2.167   0.649   6.367  2.2082 -0.2925  0.4126
 3259TIP3    H231193   2.229   0.582   6.246 -0.0861 -0.1365 -0.8974
 3260TIP3   OH231194   0.383   1.532  16.643  0.3346  0.0165  0.0575
 3260TIP3    H131195   0.317   1.592  16.610 -0.7027 -1.2421 -0.2587
 3260TIP3    H231196   0.333   1.465  16.690  1.6023  0.5607  2.3317
 3261TIP3   OH231197   3.712   2.810  15.026  0.6924  0.6516  0.5447
 3261TIP3    H131198   3.680   2.879  14.968  2.9838  1.4361  0.0889
 3261TIP3    H231199   3.646   2.741  15.020 -0.4741  1.8146 -0.8682
 3262TIP3   OH231200   4.167   1.161  16.857 -0.2686 -0.3723 -0.8568
 3262TIP3    H131201   4.171   1.242  16.908  0.7996 -0.6675 -0.4634
 3262TIP3    H231202   4.218   1.181  16.778 -0.6284 -0.4315 -1.1100
 3263TIP3   OH231203   1.409   4.252   0.766 -0.1191  0.5542  0.3051
 3263TIP3    H131204   1.378   4.322   0.822  0.1962 -0.4043  1.7407
 3263TIP3    H231205   1.501   4.240   0.790  0.0086  0.0716 -0.3706
 3264TIP3   OH231206   4.377   4.563  16.785 -0.4296 -0.3808 -0.0915
 3264TIP3    H131207   4.302   4.584  16.842  1.0872 -0.6897  2.1670
 3264TIP3    H231208   4.400   4.473  16.810  0.9640 -0.1239 -0.4023
 3265TIP3   OH231209   1.308   4.149  13.080  0.1452 -0.0939  0.2131
 3265TIP3    H131210   1.230   4.144  13.135 -0.8072  0.2372 -1.0849
 3265TIP3    H231211   1.361   4.219  13.120  0.4115 -1.1674  1.8389
 3266TIP3   OH231212   4.802   6.152   5.690 -0.4005 -0.3374 -0.0467
 3266TIP3    H131213   4.779   6.117   5.604  0.1984 -1.2243  0.1410
 3266TIP3    H231214   4.723   6.140   5.743 -0.6182 -0.2142 -0.3433
 3267TIP3   OH231215   1.000   4.609  12.004 -0.2375  0.1778 -0.4208
 3267TIP3    H131216   0.971   4.696  11.977  0.1263 -0.0078 -1.4214
 3267TIP3    H231217   1.080   4.593  11.955 -0.3794 -0.7884 -0.3639
 3268TIP3   OH231218   6.262   3.329   3.200  0.0156 -0.5868  0.1423
 3268TIP3    H131219   6.181   3.374   3.175  0.4803  0.4627  0.4835
 3268TIP3    H231220   6.316   3.332   3.121 -0.2270 -1.1843 -0.0501
 3269TIP3   OH231221   5.367   2.263  16.509 -0.0825  0.1056  0.2162
 3269TIP3    H131222   5.383   2.220  16.593  0.6867  1.5619  0.8541
 3269TIP3    H231223   5.328   2.195  16.454  2.5231 -1.8898  0.6260
 3270TIP3   OH231224   4.021   0.992   2.261  0.1343  0.6888  0.3865
 3270TIP3    H131225   3.962   1.003   2.186 -0.2562 -2.0449  0.1909
 3270TIP3    H231226   3.991   0.911   2.303  3.0772 -0.2207  0.9347
 3271TIP3   OH231227   4.957   3.285   4.826 -0.2725  0.1320  0.1179
 3271TIP3    H131228   5.042   3.307   4.788 -0.1815  0.0341  0.2638
 3271TIP3    H231229   4.895   3.300   4.755  0.0244 -1.1722 -0.4621
 3272TIP3   OH231230   5.708   4.360   6.066 -0.0665  0.3032 -0.8843
 3272TIP3    H131231   5.644   4.316   6.122 -0.6845  1.5148 -0.5965
 3272TIP3    H231232   5.789   4.311   6.080 -0.9859 -1.4918 -1.5455
 3273TIP3   OH231233   0.442   4.205   0.744 -0.2460 -0.1874 -0.6893
 3273TIP3    H131234   0.490   4.172   0.820 -1.6982  0.2735  0.4828
 3273TIP3    H231235   0.373   4.140   0.729 -1.7757  1.1284  0.2707
 3274TIP3   OH231236   4.690   2.393   3.635  0.5593 -0.3064 -0.2588
 3274TIP3    H131237   4.752   2.325   3.662  0.6487 -0.3832 -0.6411
 3274TIP3    H231238   4.716   2.470   3.685  0.7679 -0.4235 -0.1843
 3275TIP3   OH231239   6.606   0.461  12.335  0.3594 -0.3843 -0.4729
 3275TIP3    H131240   6.642   0.483  12.421 -0.1833 -1.9468  0.1876
 3275TIP3    H231241   6.629   0.369  12.323 -0.4278 -0.4499 -1.5679
 3276TIP3   OH231242   0.651   2.369   4.503 -0.1593  0.2374 -0.5727
 3276TIP3    H131243   0.600   2.288   4.499  0.1730  0.0206 -0.5530
 3276TIP3    H231244   0.607   2.423   4.568 -0.4900  0.1456 -0.7224
 3277TIP3   OH231245   0.622   1.961   5.363 -0.1949  0.0986 -0.5570
 3277TIP3    H131246   0.539   1.914   5.370 -0.4343  0.7268  1.0728
 3277TIP3    H231247   0.677   1.922   5.431  0.4659  0.4600 -0.8807
 3278TIP3   OH231248   1.482   3.820   2.739 -0.0933  0.2424 -0.1757
 3278TIP3    H131249   1.536   3.761   2.792  0.4413 -0.0749 -1.0685
 3278TIP3    H231250   1.474   3.899   2.793 -2.3742 -1.2321  1.9061
 3279TIP3   OH231251   0.166   3.636  14.907  0.3156  0.3972  0.2132
 3279TIP3    H131252   0.190   3.639  14.999 -0.8559  0.5972  0.5128
 3279TIP3    H231253   0.173   3.543  14.884 -2.3912 -0.1591  1.3323
 3280TIP3   OH231254   0.417   5.380  11.572  0.8829  0.0390 -0.4179
 3280TIP3    H131255   0.480   5.325  11.525  0.8789  0.3722 -0.8209
 3280TIP3    H231256   0.400   5.453  11.512  1.6226  0.9850  0.4934
 3281TIP3   OH231257   3.857   2.333  16.820  0.1311  0.1049  0.2913
 3281TIP3    H131258   3.876   2.339  16.914  2.1510 -0.1269 -0.0434
 3281TIP3    H231259   3.904   2.254  16.791  1.3220  1.3070 -1.2630
 3282TIP3   OH231260   0.974   5.140   2.917  0.5968 -0.2238 -0.1206
 3282TIP3    H131261   0.879   5.128   2.914  0.6933 -1.1301  0.2662
 3282TIP3    H231262   1.008   5.056   2.946  1.5993 -0.2752 -1.3578
 3283TIP3   OH231263   0.862   2.153   0.185 -0.5185 -0.0690 -0.2635
 3283TIP3    H131264   0.805   2.218   0.144  0.4144  0.8921 -0.0890
 3283TIP3    H231265   0.853   2.075   0.130 -2.2228 -0.0621 -0.0533
 3284TIP3   OH231266   3.810   2.501   2.851 -0.2992 -0.5658  0.0577
 3284TIP3    H131267   3.768   2.421   2.817 -1.3851 -0.8654  1.9754
 3284TIP3    H231268   3.834   2.479   2.941  2.0050  0.3685 -0.2619
 3285TIP3   OH231269   6.386   2.208   4.551 -0.1895  0.8117  0.0395
 3285TIP3    H131270   6.343   2.273   4.606 -1.1236  0.4170 -0.1987
 3285TIP3    H231271   6.455   2.257   4.506 -0.5463  1.5203  0.2444
 3286TIP3   OH231272   2.257   1.052  13.765  0.6894  0.0281  0.3061
 3286TIP3    H131273   2.316   1.032  13.837 -1.7485 -0.6079  2.2731
 3286TIP3    H231274   2.193   1.113  13.802 -0.3268  0.1112 -1.4631
 3287TIP3   OH231275   3.582   0.822   5.135  0.7634  0.1834  0.2128
 3287TIP3    H131276   3.499   0.844   5.092  1.0366  0.5088 -0.1573
 3287TIP3    H231277   3.604   0.735   5.101  0.6557  0.1648  0.1892
 3288TIP3   OH231278   2.815   1.789   4.108  0.3159 -0.5443  0.4654
 3288TIP3    H131279   2.777   1.705   4.133  0.7978 -1.1769 -0.8547
 3288TIP3    H231280   2.833   1.781   4.014  1.6547  0.5182  0.5950
 3289TIP3   OH231281   6.690   5.260  15.882 -0.4512  0.0828 -0.0062
 3289TIP3    H131282   6.759   5.207  15.843 -0.4461 -0.4473  0.7088
 3289TIP3    H231283   6.706   5.349  15.850  1.2038  0.1757  1.0066
 3290TIP3   OH231284   0.933   3.680  13.193  0.1458  0.1903 -0.4073
 3290TIP3    H131285   1.000   3.615  13.170  0.3265 -0.6819  2.2899
 3290TIP3    H231286   0.963   3.717  13.276 -1.8582  1.0321 -0.0133
 3291TIP3   OH231287   2.865   1.006   5.159  0.1040 -0.4986  0.2663
 3291TIP3    H131288   2.789   0.960   5.193  0.9219 -2.7645 -0.7321
 3291TIP3    H231289   2.885   1.072   5.225 -0.5467 -2.2708  2.3671
 3292TIP3   OH231290   0.580   5.893   4.875 -0.0307  0.0326 -0.8692
 3292TIP3    H131291   0.617   5.962   4.930 -0.3235 -1.2255  0.9924
 3292TIP3    H231292   0.632   5.897   4.794  1.2826  1.1198 -0.0270
 3293TIP3   OH231293   3.067   2.624   2.606 -0.8816 -0.4136  0.4994
 3293TIP3    H131294   3.098   2.618   2.697 -1.0080 -1.1308  0.4998
 3293TIP3    H231295   2.985   2.576   2.606 -0.8755 -0.4244 -0.0029
 3294TIP3   OH231296   1.201   4.055  11.942 -0.3319  0.2082 -0.3274
 3294TIP3    H131297   1.224   4.137  11.899  1.4944  0.8946  1.7880
 3294TIP3    H231298   1.285   4.012  11.959 -0.9392 -0.0359  2.4501
 3295TIP3   OH231299   1.939   1.595   4.839 -0.3349  0.2370  0.3751
 3295TIP3    H131300   1.852   1.583   4.800 -0.3840 -0.3531  0.6584
 3295TIP3    H231301   1.998   1.550   4.779 -0.2398  0.5217  0.2540
 3296TIP3   OH231302   0.075   1.103  16.779  0.0940  0.1271  0.1658
 3296TIP3    H131303   0.092   1.015  16.810  0.3478  0.0537 -0.1741
 3296TIP3    H231304   0.032   1.147  16.852 -0.5040 -0.4303  0.1621
 3297TIP3   OH231305   5.244   6.004   0.348  0.0934 -0.6743  0.2751
 3297TIP3    H131306   5.282   6.092   0.350 -2.4077  0.5606 -1.1281
 3297TIP3    H231307   5.187   6.000   0.425 -2.0164  0.1219 -1.1637
 3298TIP3   OH231308   1.233   0.798  13.843  0.3702  0.1961 -0.1164
 3298TIP3    H131309   1.237   0.835  13.932  0.8878 -0.3174  0.0787
 3298TIP3    H231310   1.144   0.816  13.814  0.7596  2.1064 -0.2507
 3299TIP3   OH231311   3.933   3.984  12.739 -0.0293  0.6963  0.1014
 3299TIP3    H131312   3.907   4.067  12.778 -0.9956  0.8662 -0.8545
 3299TIP3    H231313   3.925   3.921  12.811  2.8498  1.7179  1.4501
 3300TIP3   OH231314   2.944   3.583  15.975  0.0728  0.1391 -0.0267
 3300TIP3    H131315   2.857   3.600  15.939 -0.3185  0.1042  0.8882
 3300TIP3    H231316   2.931   3.509  16.035  0.4283  1.1158  1.2953
 3301TIP3   OH231317   6.268   0.458   3.237  0.1061 -0.7870 -0.2784
 3301TIP3    H131318   6.261   0.414   3.321 -2.7947 -1.2946 -0.6718
 3301TIP3    H231319   6.197   0.420   3.184 -0.5998  2.1722 -1.6598
 3302TIP3   OH231320   1.664   6.188   0.520 -0.1116  0.5499  0.1613
 3302TIP3    H131321   1.750   6.225   0.539 -1.1910  2.0533  2.6349
 3302TIP3    H231322   1.633   6.157   0.605 -1.7907 -0.4528 -0.7840
 3303TIP3   OH231323   2.902   5.887  11.927  0.7042  0.0522  0.1776
 3303TIP3    H131324   2.994   5.879  11.952  0.9648  1.2831 -0.3294
 3303TIP3    H231325   2.877   5.974  11.955  0.0010  0.1235 -0.6474
 3304TIP3   OH231326   4.948   2.852  11.700  0.2264 -0.3209  0.1582
 3304TIP3    H131327   4.944   2.926  11.639  0.7368 -1.3321 -1.1558
 3304TIP3    H231328   4.978   2.779  11.646  0.2203 -1.3718  1.5396
 3305TIP3   OH231329   0.114   4.449  15.220  0.0635  0.6086  0.1391
 3305TIP3    H131330   0.127   4.507  15.146 -0.8084  0.9840  0.2672
 3305TIP3    H231331   0.060   4.378  15.186 -0.0554  0.6057  0.3298
 3306TIP3   OH231332   1.990   2.170   2.963 -0.3493  0.2089 -0.2119
 3306TIP3    H131333   2.034   2.085   2.953 -1.2741 -0.4410  1.0506
 3306TIP3    H231334   1.899   2.153   2.938  0.0304  1.5870 -3.0184
 3307TIP3   OH231335   2.037   0.724  13.694  0.7910  0.1369  0.4947
 3307TIP3    H131336   1.971   0.788  13.720  1.4729  0.8552  0.4969
 3307TIP3    H231337   2.118   0.755  13.734  1.1362 -0.7454  0.5180
 3308TIP3   OH231338   5.616   3.290   3.268 -0.0050 -0.3259 -0.2951
 3308TIP3    H131339   5.642   3.266   3.357 -0.4630 -1.7244 -0.5125
 3308TIP3    H231340   5.547   3.355   3.280  3.2067  3.3395  0.3004
 3309TIP3   OH231341   5.638   2.192   5.901 -0.4349  0.0246  0.1600
 3309TIP3    H131342   5.730   2.202   5.876  0.0446 -1.5600  1.1240
 3309TIP3    H231343   5.590   2.198   5.819  0.8288 -2.1625 -0.8366
 3310TIP3   OH231344   3.799   3.952  12.066  0.1640  0.2951 -0.5108
 3310TIP3    H131345   3.755   4.037  12.064 -0.4970  0.0593  1.6457
 3310TIP3    H231346   3.770   3.912  12.148  1.4182 -1.5083 -0.8937
 3311TIP3   OH231347   3.363   2.338  15.930 -0.4340  0.5877  0.0719
 3311TIP3    H131348   3.442   2.387  15.952 -1.7165  2.7800  0.1485
 3311TIP3    H231349   3.292   2.402  15.940 -2.3496 -1.5432  1.0113
 3312TIP3   OH231350   3.904   3.140   4.495  0.9160 -0.1395 -0.1447
 3312TIP3    H131351   3.825   3.194   4.494 -0.0856 -1.4082  2.3203
 3312TIP3    H231352   3.965   3.187   4.553  1.0072 -0.4095 -0.0188
 3313TIP3   OH231353   5.162   2.518   2.402 -0.3839  0.4878 -0.0951
 3313TIP3    H131354   5.180   2.495   2.493  0.5755 -0.3911 -0.4902
 3313TIP3    H231355   5.245   2.554   2.370 -0.7099  0.7659 -0.6297
 3314TIP3   OH231356   6.582   4.779   5.631 -0.2738  0.1448  0.0113
 3314TIP3    H131357   6.519   4.741   5.692  1.2258 -0.7611  1.0522
 3314TIP3    H231358   6.637   4.706   5.603  2.3353  1.3356  1.6323
 3315TIP3   OH231359   3.756   5.965   3.823 -0.3912 -0.0484 -0.4085
 3315TIP3    H131360   3.835   6.019   3.812 -0.0496 -0.5607 -0.4999
 3315TIP3    H231361   3.709   5.975   3.740 -0.9404  1.0669  0.0164
 3316TIP3   OH231362   0.385   5.946  11.709 -0.4918 -0.5903  0.1330
 3316TIP3    H131363   0.346   5.951  11.622 -0.3383  0.2943  0.1057
 3316TIP3    H231364   0.388   6.036  11.739  0.5103 -0.7662  0.5965
 3317TIP3   OH231365   4.354   5.414   4.505 -0.0252 -0.4132  0.1032
 3317TIP3    H131366   4.389   5.434   4.591  1.8305  0.7315 -0.8537
 3317TIP3    H231367   4.410   5.344   4.471 -0.5000 -0.5925 -0.3260
 3318TIP3   OH231368   2.848   0.857  14.682 -0.2634  0.3158  0.1245
 3318TIP3    H131369   2.882   0.876  14.595 -1.1221 -1.0194 -0.5305
 3318TIP3    H231370   2.926   0.854  14.738  0.6100 -1.4146 -1.0954
 3319TIP3   OH231371   5.477   0.937  10.733 -0.4007  0.0807  0.2343
 3319TIP3    H131372   5.454   0.899  10.818  3.5528 -0.0099  1.4754
 3319TIP3    H231373   5.407   1.001  10.716 -3.2654 -2.4093  1.6726
 3320TIP3   OH231374   5.727   5.546  17.006  0.2374 -0.5349 -0.1674
 3320TIP3    H131375   5.699   5.507  17.089 -1.0668  0.6528 -0.0071
 3320TIP3    H231376   5.750   5.637  17.029 -1.2730  0.1671 -1.2582
 3321TIP3   OH231377   5.803   2.216  15.336 -0.1619  0.1180  0.6052
 3321TIP3    H131378   5.749   2.288  15.369 -1.4801 -0.2946 -0.6115
 3321TIP3    H231379   5.743   2.142  15.328  0.6462 -0.4440 -0.4750
 3322TIP3   OH231380   4.910   1.510  14.222 -0.5665 -0.3556  0.2170
 3322TIP3    H131381   4.954   1.429  14.246  0.8395 -0.2980 -1.8486
 3322TIP3    H231382   4.847   1.484  14.155  0.4728  0.2990 -1.0686
 3323TIP3   OH231383   4.388   2.752   4.385  0.1604 -0.3458 -0.4267
 3323TIP3    H131384   4.465   2.698   4.404  0.7752  0.0952 -1.6159
 3323TIP3    H231385   4.354   2.719   4.302  0.2772  0.7757 -0.9463
 3324TIP3   OH231386   0.198   4.004  15.243  0.1848  0.1697  0.0916
 3324TIP3    H131387   0.260   4.035  15.178  1.8175  0.8764  1.8821
 3324TIP3    H231388   0.161   4.083  15.282 -1.3824 -0.2410 -0.4642
 3325TIP3   OH231389   5.942   3.615   1.947 -0.2127 -0.1629  0.2078
 3325TIP3    H131390   5.958   3.669   2.025 -0.2447  1.1050 -0.6322
 3325TIP3    H231391   5.847   3.613   1.939 -0.1923  0.7550 -0.4723
 3326TIP3   OH231392   1.839   0.938   4.705  0.1518 -0.2587  1.0196
 3326TIP3    H131393   1.841   0.868   4.770  0.1235 -1.3626 -0.1301
 3326TIP3    H231394   1.747   0.942   4.677 -0.5684  2.3873  3.2478
 3327TIP3   OH231395   0.346   4.943   0.727 -0.6632 -1.1716 -0.1182
 3327TIP3    H131396   0.337   4.920   0.819  1.6294 -0.7911  0.2660
 3327TIP3    H231397   0.327   5.037   0.723 -1.3879 -1.3177 -0.1527
 3328TIP3   OH231398   4.711   0.175  14.450 -0.7036 -0.4165 -0.0906
 3328TIP3    H131399   4.722   0.205  14.540  0.7951  1.2995 -0.7844
 3328TIP3    H231400   4.766   0.233  14.398 -2.3979 -0.6233 -2.2745
 3329TIP3   OH231401   0.032   4.378   2.902 -0.3072 -0.2939  0.1708
 3329TIP3    H131402   0.012   4.285   2.899  2.4928 -1.0354  1.1051
 3329TIP3    H231403   0.030   4.401   2.995 -0.8148  0.5554 -0.0355
 3330TIP3   OH231404   5.335   6.451  16.876  0.5756  0.3994 -0.4581
 3330TIP3    H131405   5.260   6.497  16.913  0.4361  0.3325 -0.6563
 3330TIP3    H231406   5.406   6.514  16.880  0.5940  0.3537  0.0372
 3331TIP3   OH231407   4.453   3.673  12.395  0.0705 -0.1394 -0.1324
 3331TIP3    H131408   4.383   3.653  12.457 -1.0175 -0.2040 -1.3329
 3331TIP3    H231409   4.529   3.628  12.430  0.4787  2.6546  3.0237
 3332TIP3   OH231410   2.703   5.767   2.903 -0.3308 -0.4376 -0.3035
 3332TIP3    H131411   2.756   5.808   2.835 -0.2600 -1.7179 -1.0399
 3332TIP3    H231412   2.763   5.759   2.978 -0.1361  0.1232 -0.3954
 3333TIP3   OH231413   6.430   4.689   2.525 -0.4414  0.4994 -0.1626
 3333TIP3    H131414   6.386   4.751   2.582  1.7618  1.7800  0.2696
 3333TIP3    H231415   6.476   4.629   2.584  0.8403  1.0745 -0.5310
 3334TIP3   OH231416   4.218   2.048   1.850 -0.1892 -0.1372 -0.0480
 3334TIP3    H131417   4.255   2.087   1.929  0.9201  0.8174 -1.0007
 3334TIP3    H231418   4.223   1.954   1.866 -1.3199  0.0143  1.5770
 3335TIP3   OH231419   6.111   4.279   0.638 -0.5697  0.5590 -0.2249
 3335TIP3    H131420   6.142   4.200   0.682  0.3021  1.0439  0.0574
 3335TIP3    H231421   6.022   4.258   0.611 -0.4029 -0.4673 -0.0231
 3336TIP3   OH231422   3.386   1.216   2.778  0.2517  0.0527  1.0471
 3336TIP3    H131423   3.358   1.302   2.748 -2.0680 -0.3901  1.7576
 3336TIP3    H231424   3.304   1.168   2.793  1.3781 -3.2794 -2.0325
 3337TIP3   OH231425   3.275   3.660  12.210  0.4488  0.6611  0.1807
 3337TIP3    H131426   3.357   3.614  12.194 -0.2966 -1.8274  2.6658
 3337TIP3    H231427   3.300   3.751  12.226  2.4912  0.2786 -0.6229
 3338TIP3   OH231428   5.978   5.605   1.322 -0.0576  0.1284 -0.5578
 3338TIP3    H131429   5.941   5.517   1.315  0.3879 -0.1069 -0.0422
 3338TIP3    H231430   5.929   5.657   1.259  0.2033 -0.6630 -1.4296
 3339TIP3   OH231431   5.545   6.268   6.006  0.0520 -0.1741 -0.6847
 3339TIP3    H131432   5.618   6.221   6.045 -0.8350 -1.7322 -0.8226
 3339TIP3    H231433   5.519   6.331   6.074 -0.9364 -2.2628  1.0118
 3340TIP3   OH231434   0.586   5.444  12.753  0.6603  0.1809  0.3101
 3340TIP3    H131435   0.494   5.440  12.778  0.2214  2.4933 -0.6674
 3340TIP3    H231436   0.602   5.362  12.706 -1.0847  0.0301 -0.0928
 3341TIP3   OH231437   4.850   0.132   3.225  0.5466 -0.1321 -0.0823
 3341TIP3    H131438   4.769   0.087   3.250 -0.4579  0.4276 -2.1639
 3341TIP3    H231439   4.894   0.071   3.167 -0.7134  1.3174 -2.7388
 3342TIP3   OH231440   4.144   5.546   5.381  0.3316  0.3340  0.0824
 3342TIP3    H131441   4.232   5.517   5.403  0.3528  1.3898  1.4932
 3342TIP3    H231442   4.107   5.474   5.328  1.9344 -0.2122 -0.3359
 3343TIP3   OH231443   5.844   4.420  14.551 -0.0526  0.0859  0.3738
 3343TIP3    H131444   5.801   4.438  14.467  3.1188  0.5162 -1.2977
 3343TIP3    H231445   5.804   4.482  14.612 -3.8165 -1.4987 -0.1775
 3344TIP3   OH231446   3.349   0.401  16.606  0.2321  0.0197 -0.7438
 3344TIP3    H131447   3.327   0.399  16.513 -0.3115 -1.3615 -0.5967
 3344TIP3    H231448   3.265   0.415  16.650  0.3251 -0.4871 -0.4055
 3345TIP3   OH231449   5.645   1.040   2.664  0.2659  0.0434  0.1715
 3345TIP3    H131450   5.589   1.097   2.611  1.2049  1.7323  0.9192
 3345TIP3    H231451   5.585   0.972   2.697 -0.6025 -0.2404 -1.8572
 3346TIP3   OH231452   3.287   2.860  11.441 -0.2127  0.2448 -0.2344
 3346TIP3    H131453   3.340   2.781  11.457 -0.6115  0.1250  0.5319
 3346TIP3    H231454   3.219   2.831  11.381 -1.5038 -0.5058  1.5057
 3347TIP3   OH231455   2.053   5.614  16.926  0.4936 -0.5317 -0.0111
 3347TIP3    H131456   2.107   5.690  16.947  0.1100 -0.0640 -0.7176
 3347TIP3    H231457   1.989   5.646  16.863 -0.4205 -1.1539  0.5763
 3348TIP3   OH231458   4.331   5.918   4.470  0.3950  0.5584 -0.1158
 3348TIP3    H131459   4.350   5.974   4.545 -0.5415  2.0773 -0.9643
 3348TIP3    H231460   4.413   5.918   4.420  0.8576 -0.0413  0.6150
 3349TIP3   OH231461   0.176   4.885  14.834  0.5130  0.7519 -0.0319
 3349TIP3    H131462   0.161   4.971  14.873 -0.9918  1.1094 -1.3204
 3349TIP3    H231463   0.233   4.902  14.759 -1.2137  0.9502 -1.3660
 3350TIP3   OH231464   3.532   4.768   6.355  0.1093  0.3609 -0.6492
 3350TIP3    H131465   3.448   4.723   6.368  0.4831 -0.3610 -0.6896
 3350TIP3    H231466   3.508   4.853   6.318 -0.5667 -0.1669 -1.4729
 3351TIP3   OH231467   2.747   0.726  12.911 -0.0202  0.1690  0.3750
 3351TIP3    H131468   2.801   0.803  12.891 -2.5526  1.4033 -2.6229
 3351TIP3    H231469   2.663   0.745  12.869 -1.9518 -2.7763  2.5172
 3352TIP3   OH231470   6.101   2.975   1.467 -1.2042  0.8015  0.0813
 3352TIP3    H131471   6.151   2.894   1.475 -1.2182  0.6435 -1.3072
 3352TIP3    H231472   6.056   2.983   1.551  0.2619  0.3722  0.9628
 3353TIP3   OH231473   5.167   3.769   0.504  0.6033 -0.2266  0.1001
 3353TIP3    H131474   5.178   3.846   0.448 -0.5730 -0.6214 -0.7087
 3353TIP3    H231475   5.170   3.695   0.443  0.5901 -0.7428  0.7236
 3354TIP3   OH231476   3.065   3.121  15.931  0.4182 -0.5679  0.0030
 3354TIP3    H131477   3.161   3.123  15.939  0.3950 -1.3941  0.5643
 3354TIP3    H231478   3.043   3.028  15.929 -0.2996 -0.3856 -1.2094
 3355TIP3   OH231479   4.035   2.504  12.963  0.2089  0.4890  0.0406
 3355TIP3    H131480   4.113   2.512  13.017 -0.0397 -2.7673  1.1438
 3355TIP3    H231481   3.963   2.492  13.025 -0.9663  1.9272 -0.9728
 3356TIP3   OH231482   6.136   5.276  11.977  0.7374 -0.6445 -0.0525
 3356TIP3    H131483   6.041   5.286  11.987  0.2718 -2.1477 -2.1490
 3356TIP3    H231484   6.162   5.219  12.049 -0.2684 -1.5511 -0.3874
 3357TIP3   OH231485   5.283   0.554   3.184  0.3453  0.0618 -0.3615
 3357TIP3    H131486   5.218   0.557   3.254  1.8692 -1.8988  1.2538
 3357TIP3    H231487   5.318   0.465   3.188 -0.3592 -0.5924 -4.4954
 3358TIP3   OH231488   0.371   5.935  13.199 -0.9074  0.2617  0.1030
 3358TIP3    H131489   0.313   5.879  13.148 -0.2207  0.9095 -1.4689
 3358TIP3    H231490   0.359   6.022  13.161  1.2052  0.3807 -0.4031
 3359TIP3   OH231491   5.053   0.179   4.855 -0.5134  0.4454 -0.4052
 3359TIP3    H131492   5.115   0.178   4.928  0.1428 -1.5855 -0.9107
 3359TIP3    H231493   4.995   0.104   4.872 -1.7101  1.2380 -0.8741
 3360TIP3   OH231494   3.387   5.641   3.907  0.0467 -0.2152 -0.0410
 3360TIP3    H131495   3.332   5.606   3.837 -2.5542 -1.0405  2.2150
 3360TIP3    H231496   3.434   5.564   3.940 -0.3500 -0.2653  0.4273
 3361TIP3   OH231497   3.881   4.409   3.635  0.1138  0.7181  0.2134
 3361TIP3    H131498   3.903   4.497   3.665  0.6194  0.5114  0.4522
 3361TIP3    H231499   3.797   4.390   3.677  1.3844 -0.0510  2.5288
 3362TIP3   OH231500   4.360   4.932   5.111 -0.1280  0.5230 -0.4881
 3362TIP3    H131501   4.318   4.951   5.195  0.8122  0.5245  0.0006
 3362TIP3    H231502   4.385   4.839   5.117  0.6394  0.7240 -0.4373
 3363TIP3   OH231503   0.234   3.333   0.130  0.0099  0.2496  0.3458
 3363TIP3    H131504   0.302   3.400   0.136  1.6474 -1.3409  0.5909
 3363TIP3    H231505   0.283   3.250   0.124 -1.9183 -0.9413  0.2368
 3364TIP3   OH231506   5.060   3.075   2.426 -0.0011 -0.1618  0.0241
 3364TIP3    H131507   5.136   3.045   2.376  1.2243  0.1188  1.6456
 3364TIP3    H231508   4.984   3.040   2.378  1.0125  0.8910 -2.5644
 3365TIP3   OH231509   0.395   5.806   2.033  0.8407 -0.1489  0.3722
 3365TIP3    H131510   0.474   5.829   2.081 -0.0527  1.6845  1.0759
 3365TIP3    H231511   0.340   5.760   2.097 -0.0491  1.6535  0.9746
 3366TIP3   OH231512   4.731   2.943  13.312  0.3509  0.5023 -0.2208
 3366TIP3    H131513   4.783   3.006  13.361  0.0607  0.5218  0.0710
 3366TIP3    H231514   4.789   2.911  13.243  0.9796 -0.0046  0.5269
 3367TIP3   OH231515   2.799   6.648   2.886 -0.6123 -0.1523  0.0787
 3367TIP3    H131516   2.783   6.580   2.820 -0.3043 -1.3607  1.1867
 3367TIP3    H231517   2.803   6.599   2.969 -1.3258  1.3464  1.0440
 3368TIP3   OH231518   3.563   1.163   5.308  0.7114 -0.2769 -0.0324
 3368TIP3    H131519   3.545   1.094   5.372  1.2412 -0.3007  0.0947
 3368TIP3    H231520   3.504   1.234   5.333 -2.0890 -1.7519 -2.0117
 3369TIP3   OH231521   2.552   0.167   1.980 -0.7592 -0.3547  0.1546
 3369TIP3    H131522   2.514   0.093   2.029 -0.0751 -2.7827 -2.7035
 3369TIP3    H231523   2.641   0.175   2.015 -0.6087 -1.3868  0.0558
 3370TIP3   OH231524   4.380   2.329  10.659  0.6743  0.0338 -0.3053
 3370TIP3    H131525   4.355   2.349  10.569  0.8435 -0.9289 -0.5705
 3370TIP3    H231526   4.305   2.356  10.712  1.0730  1.8305 -0.5795
 3371TIP3   OH231527   0.732   5.894   0.533 -0.3865 -0.7268 -0.0199
 3371TIP3    H131528   0.713   5.963   0.470 -1.8719  0.7891  1.9519
 3371TIP3    H231529   0.659   5.896   0.594  0.7918 -2.3596  1.5652
 3372TIP3   OH231530   2.729   4.120   0.451 -0.6608  0.0059  0.0815
 3372TIP3    H131531   2.692   4.115   0.363  1.6004  1.5421 -1.0624
 3372TIP3    H231532   2.732   4.214   0.471 -0.5648 -0.2835  1.5470
 3373TIP3   OH231533   6.588   2.907   5.731 -0.5369 -0.5382  0.3068
 3373TIP3    H131534   6.501   2.944   5.717 -0.9033 -1.5970 -0.3494
 3373TIP3    H231535   6.618   2.883   5.644  1.1480  1.3242  0.2912
 3374TIP3   OH231536   0.082   1.055   2.280  0.6789 -0.3651 -0.9395
 3374TIP3    H131537   0.017   1.124   2.293  1.5703  0.4542 -0.7219
 3374TIP3    H231538   0.148   1.071   2.347 -0.0351 -2.6080  0.4195
 3375TIP3   OH231539   3.791   4.673   0.423 -0.1538  0.4081  0.0800
 3375TIP3    H131540   3.767   4.755   0.379  1.1939 -0.2366 -1.9764
 3375TIP3    H231541   3.852   4.630   0.364  0.3074 -1.4396  1.7730
 3376TIP3   OH231542   2.798   2.524  14.910 -0.1369 -0.3485  0.1963
 3376TIP3    H131543   2.873   2.579  14.889 -0.1807 -0.5705 -0.6015
 3376TIP3    H231544   2.723   2.569  14.870 -0.1700 -0.9841 -0.4839
 3377TIP3   OH231545   1.022   5.466  11.709  0.2527  0.7408  0.4373
 3377TIP3    H131546   1.064   5.544  11.672 -2.4550  2.5209  0.8407
 3377TIP3    H231547   0.956   5.442  11.645  0.4807 -0.7411  0.7302
 3378TIP3   OH231548   2.142   6.722  14.814 -0.0617 -0.1835 -0.2805
 3378TIP3    H131549   2.190   6.742  14.733  0.3489  0.0308  0.0127
 3378TIP3    H231550   2.056   6.764  14.802 -1.2295 -2.8002 -1.9486
 3379TIP3   OH231551   4.806   2.892  16.601 -0.0987 -0.5380 -0.2815
 3379TIP3    H131552   4.810   2.911  16.694  0.9875 -1.3926 -0.1386
 3379TIP3    H231553   4.863   2.957  16.560  0.8884 -1.2756 -0.1364
 3380TIP3   OH231554   3.702   0.482  11.100 -0.2206  0.0815  0.4133
 3380TIP3    H131555   3.685   0.389  11.092  0.2972  0.1119 -1.3196
 3380TIP3    H231556   3.798   0.489  11.101 -0.2549  0.6010  0.4783
 3381TIP3   OH231557   0.080   5.587   1.253  0.2510  0.2328  0.5595
 3381TIP3    H131558   0.003   5.626   1.212 -1.4512 -2.0259  1.3982
 3381TIP3    H231559   0.080   5.619   1.343  0.4878  0.4874  0.4701
 3382TIP3   OH231560   5.358   1.519   4.053  0.1014  0.0616  0.2585
 3382TIP3    H131561   5.274   1.479   4.029 -0.4896 -0.1360  2.3919
 3382TIP3    H231562   5.342   1.558   4.139  2.6052 -1.3429  1.4758
 3383TIP3   OH231563   3.528   5.600   2.506  0.0877 -0.3509 -0.3725
 3383TIP3    H131564   3.446   5.647   2.520  0.1119 -0.0914 -1.1032
 3383TIP3    H231565   3.517   5.554   2.423  0.5293 -0.6373 -0.2778
 3384TIP3   OH231566   0.445   2.296   3.035  0.5012 -0.3473 -0.0327
 3384TIP3    H131567   0.356   2.285   3.000  0.6195 -0.4037 -0.3161
 3384TIP3    H231568   0.491   2.217   3.010  0.7871 -0.0796 -0.3571
 3385TIP3   OH231569   0.742   2.104  11.086  0.4948  0.0186 -0.2453
 3385TIP3    H131570   0.740   2.071  10.996  1.4304  0.7415 -0.5434
 3385TIP3    H231571   0.698   2.188  11.082 -0.1592 -0.2936  0.1416
 3386TIP3   OH231572   1.084   1.484  14.267 -0.1170 -0.0655 -0.1021
 3386TIP3    H131573   1.069   1.466  14.174  1.0227  1.5450 -0.6574
 3386TIP3    H231574   1.017   1.434  14.313 -0.1173 -1.6543 -1.7216
 3387TIP3   OH231575   3.394   0.285  14.613  0.1074  0.2627 -0.2702
 3387TIP3    H131576   3.304   0.267  14.639  0.8118  0.4119  2.6827
 3387TIP3    H231577   3.446   0.255  14.688  2.3462  2.1121 -0.9799
 3388TIP3   OH231578   0.941   4.745  15.007 -0.8789  0.0086  0.2957
 3388TIP3    H131579   0.978   4.679  15.067  1.0993 -0.7033 -1.5540
 3388TIP3    H231580   1.016   4.773  14.954 -2.4897  0.7342 -1.7098
 3389TIP3   OH231581   2.321   4.711  16.178  0.2918  0.3627  0.0674
 3389TIP3    H131582   2.239   4.704  16.226 -0.2391  0.6229 -0.7902
 3389TIP3    H231583   2.385   4.737  16.244 -0.1905 -0.3723  0.8553
 3390TIP3   OH231584   5.624   2.768  11.588 -0.3931 -0.3966 -0.2760
 3390TIP3    H131585   5.614   2.856  11.624 -1.0347 -0.6431  0.1639
 3390TIP3    H231586   5.695   2.776  11.524 -0.6609  0.5091 -0.4724
 3391TIP3   OH231587   5.454   4.483   4.686  0.5746  0.4391 -0.1875
 3391TIP3    H131588   5.411   4.554   4.734  1.0647  1.3604 -1.0705
 3391TIP3    H231589   5.539   4.474   4.728 -0.0651 -0.6923  0.9091
 3392TIP3   OH231590   0.894   3.242  12.357 -0.0837  0.1646 -0.1420
 3392TIP3    H131591   0.914   3.330  12.387 -1.2841  0.5988 -0.5639
 3392TIP3    H231592   0.857   3.198  12.434  0.5584  0.0064  0.0815
 3393TIP3   OH231593   4.873   4.743  16.728 -0.2872  0.0897 -0.4263
 3393TIP3    H131594   4.899   4.835  16.726 -0.5392  0.2791  2.1314
 3393TIP3    H231595   4.778   4.745  16.730 -0.2912 -0.0970  1.3567
 3394TIP3   OH231596   2.667   5.930  16.072  0.1023 -0.4829  0.0645
 3394TIP3    H131597   2.681   5.855  16.130  1.2237 -1.3838 -1.3212
 3394TIP3    H231598   2.577   5.957  16.089  0.3348 -0.8241  2.0801
 3395TIP3   OH231599   2.554   4.646  15.144 -0.0806 -0.6982  0.3280
 3395TIP3    H131600   2.525   4.704  15.073  0.4313 -1.4385 -0.5046
 3395TIP3    H231601   2.639   4.681  15.171 -0.6895  0.1415  1.2449
 3396TIP3   OH231602   6.657   1.829   1.906 -0.3196 -0.0587  0.1807
 3396TIP3    H131603   6.658   1.858   1.997  0.6573  0.1782  0.1104
 3396TIP3    H231604   6.667   1.734   1.911  0.4736  0.0255  0.3092
 3397TIP3   OH231605   3.837   6.479   2.347  0.6387 -0.6592  0.0320
 3397TIP3    H131606   3.870   6.432   2.271  1.4903  0.8295 -0.5763
 3397TIP3    H231607   3.916   6.517   2.387 -0.0381  0.5467  0.2580
 3398TIP3   OH231608   4.952   3.699  12.961 -0.2515 -0.3083 -0.6947
 3398TIP3    H131609   5.001   3.657  13.032 -0.3199  0.8544  0.0760
 3398TIP3    H231610   4.884   3.635  12.938  0.5966 -1.2494 -0.6356
 3399TIP3   OH231611   1.691   0.605  16.038 -0.4280 -0.3742  0.2406
 3399TIP3    H131612   1.677   0.694  16.006  0.0591  0.0655  1.2255
 3399TIP3    H231613   1.671   0.610  16.131 -0.9367 -1.4251  0.1982
 3400TIP3   OH231614   0.856   6.122  12.224 -0.5068  0.0654 -0.0340
 3400TIP3    H131615   0.836   6.190  12.160 -0.7578  1.2319  1.2411
 3400TIP3    H231616   0.771   6.082  12.244 -0.1101 -2.2878 -2.4797
 3401TIP3   OH231617   3.031   4.509   3.544 -0.1334 -0.7090 -0.6832
 3401TIP3    H131618   3.121   4.477   3.531 -0.6070 -1.8646 -1.3013
 3401TIP3    H231619   3.021   4.517   3.638  1.1724  1.1545 -0.6368
 3402TIP3   OH231620   5.413   1.884  11.691  0.9261 -0.5713 -0.2036
 3402TIP3    H131621   5.399   1.900  11.785  2.5642  0.2058 -0.0553
 3402TIP3    H231622   5.334   1.919  11.649 -0.3486 -1.9524  0.9398
 3403TIP3   OH231623   1.854   5.987  15.981  0.6529 -0.0936  0.3234
 3403TIP3    H131624   1.764   6.012  15.961  0.9933  1.2328  0.3601
 3403TIP3    H231625   1.846   5.932  16.060  0.0502  2.1981  1.9668
 3404TIP3   OH231626   6.355   5.248   2.999  0.3430  0.6362 -0.1978
 3404TIP3    H131627   6.322   5.276   2.913  0.8800 -0.4530 -0.7816
 3404TIP3    H231628   6.292   5.183   3.029  1.7621 -1.3454 -1.2540
 3405TIP3   OH231629   0.492   2.704   1.498 -0.2956  0.0920  0.0396
 3405TIP3    H131630   0.412   2.654   1.478  0.4483 -0.7032 -1.0372
 3405TIP3    H231631   0.476   2.790   1.461 -0.1200 -0.4772 -1.3927
 3406TIP3   OH231632   3.595   0.429   5.936  0.5807  0.3172  0.4447
 3406TIP3    H131633   3.636   0.346   5.961  2.1549  0.7293 -0.6606
 3406TIP3    H231634   3.653   0.466   5.870  0.6974  2.9887  1.9114
 3407TIP3   OH231635   6.059   0.399   5.996 -0.2692  0.5208  0.1818
 3407TIP3    H131636   6.141   0.435   5.962 -0.7724  0.4446 -1.1565
 3407TIP3    H231637   6.016   0.472   6.040 -0.6320  1.2183 -1.2941
 3408TIP3   OH231638   1.374   6.500   4.275  0.3862 -0.4046 -0.3170
 3408TIP3    H131639   1.294   6.475   4.322 -0.5971  0.5237 -1.4324
 3408TIP3    H231640   1.438   6.433   4.299 -0.4683 -0.7026  1.2678
 3409TIP3   OH231641   4.941   1.177  12.967  0.1382 -0.1941 -0.5448
 3409TIP3    H131642   4.909   1.090  12.945  1.1324 -0.5761 -0.4961
 3409TIP3    H231643   5.033   1.177  12.941  0.4473  0.4718  0.4735
 3410TIP3   OH231644   5.122   2.303   1.743  0.2181 -0.5290 -0.0805
 3410TIP3    H131645   5.199   2.255   1.712  2.1560 -0.3140  3.8104
 3410TIP3    H231646   5.131   2.390   1.704  1.4298 -0.7809 -0.4099
 3411TIP3   OH231647   6.525   5.997   6.413  0.2729  0.2779  0.1597
 3411TIP3    H131648   6.480   5.931   6.465 -1.3241 -0.4326 -1.9964
 3411TIP3    H231649   6.475   6.077   6.428 -0.5912 -0.0756 -0.7452
 3412TIP3   OH231650   5.740   0.806   0.094 -0.1059 -1.0061  0.1480
 3412TIP3    H131651   5.833   0.783   0.103  0.1993 -0.6572 -1.7057
 3412TIP3    H231652   5.739   0.901   0.091 -0.3388 -1.0349 -1.2799
 3413TIP3   OH231653   3.792   5.973  12.755 -0.5567  0.5705 -0.0519
 3413TIP3    H131654   3.735   5.909  12.796 -0.9853  1.7318  1.2515
 3413TIP3    H231655   3.867   5.923  12.723 -1.1370 -0.6246  0.4329
 3414TIP3   OH231656   1.750   4.924  12.907 -0.3127 -0.0754  0.6013
 3414TIP3    H131657   1.772   5.017  12.905 -1.2336  0.1624  1.0490
 3414TIP3    H231658   1.690   4.915  12.981 -0.9710 -0.8588 -0.0127
 3415TIP3   OH231659   2.415   3.611  15.049 -0.4611 -0.0207 -0.3216
 3415TIP3    H131660   2.336   3.584  15.095 -0.3030 -0.0918 -0.0903
 3415TIP3    H231661   2.473   3.534  15.054  1.1175  1.2149  2.7776
 3416TIP3   OH231662   2.639   0.751   5.078  0.2420  0.0378  0.0422
 3416TIP3    H131663   2.683   0.669   5.099 -0.7023 -0.7352 -0.8789
 3416TIP3    H231664   2.660   0.767   4.986  0.1533  0.6618  0.1244
 3417TIP3   OH231665   1.571   3.370  13.781 -0.0781 -0.1576 -0.0640
 3417TIP3    H131666   1.573   3.366  13.876 -0.3817 -0.1588 -0.0585
 3417TIP3    H231667   1.620   3.292  13.753  1.3449  0.6471  0.0959
 3418TIP3   OH231668   6.461   4.900  15.742  0.1695  0.0063  0.4027
 3418TIP3    H131669   6.465   4.911  15.837  2.0010  2.7793  0.1390
 3418TIP3    H231670   6.528   4.836  15.721  0.5194  0.2055  0.9149
 3419TIP3   OH231671   5.336   3.134   1.335  0.5370 -0.0043 -0.1792
 3419TIP3    H131672   5.416   3.185   1.320 -0.8422  2.0012 -1.0673
 3419TIP3    H231673   5.311   3.157   1.425  0.6073 -0.1282 -0.1279
 3420TIP3   OH231674   5.726   4.799  12.423 -0.6218 -0.2773 -0.2378
 3420TIP3    H131675   5.686   4.712  12.416  0.7951 -0.8324 -2.0338
 3420TIP3    H231676   5.710   4.840  12.338 -0.5704  0.9395  0.3131
 3421TIP3   OH231677   2.081   2.711  13.838  0.0050  0.2075 -0.0902
 3421TIP3    H131678   2.070   2.736  13.746  1.1502 -0.0024 -0.2991
 3421TIP3    H231679   2.082   2.615  13.836  0.4812  0.2077  0.0767
 3422TIP3   OH231680   0.643   3.141   2.114  0.4642  0.1754 -0.3581
 3422TIP3    H131681   0.690   3.205   2.060 -0.9664  1.5416 -0.0468
 3422TIP3    H231682   0.699   3.129   2.190  0.7660  1.0509 -0.4298
 3423TIP3   OH231683   3.966   2.075  14.730  0.3201 -0.9916  0.1050
 3423TIP3    H131684   3.899   2.007  14.732 -0.0791 -0.5962  0.8290
 3423TIP3    H231685   4.022   2.056  14.805  0.7029 -0.9999 -0.1774
 3424TIP3   OH231686   1.692   1.388  13.762 -0.2292  0.0228  0.5415
 3424TIP3    H131687   1.648   1.303  13.751  1.2280 -0.5848 -0.9750
 3424TIP3    H231688   1.656   1.422  13.844 -0.6666 -2.1926  1.3648
 3425TIP3   OH231689   3.311   1.883  12.145 -0.9743 -0.4287 -0.1798
 3425TIP3    H131690   3.397   1.842  12.150 -0.6230  0.3156 -0.0382
 3425TIP3    H231691   3.253   1.814  12.113 -0.1412 -0.6476 -1.2631
 3426TIP3   OH231692   6.188   2.238   5.180 -0.3740 -0.9694 -1.0316
 3426TIP3    H131693   6.167   2.287   5.100  0.3245 -0.6074 -1.0003
 3426TIP3    H231694   6.193   2.305   5.248 -0.7675 -1.2555 -0.7160
 3427TIP3   OH231695   2.324   2.297   4.083 -0.3850  0.1050  0.4564
 3427TIP3    H131696   2.275   2.217   4.065 -0.7709  0.0487  1.6475
 3427TIP3    H231697   2.259   2.357   4.120  0.0219  0.7759  0.1065
 3428TIP3   OH231698   4.620   3.194  11.293  0.2629 -0.5044 -0.4825
 3428TIP3    H131699   4.621   3.228  11.383 -0.5055 -0.0527 -0.6331
 3428TIP3    H231700   4.711   3.201  11.264  0.5058 -0.5968  0.2412
 3429TIP3   OH231701   5.458   0.335  15.551 -0.6223  0.4720 -0.3107
 3429TIP3    H131702   5.505   0.320  15.633 -1.1211  0.6828  0.0226
 3429TIP3    H231703   5.438   0.247  15.519 -0.0489  0.3820 -0.4327
 3430TIP3   OH231704   1.594   1.500  13.997  0.7649 -0.0671  0.5654
 3430TIP3    H131705   1.633   1.417  14.024  0.2223  0.1819  2.2174
 3430TIP3    H231706   1.504   1.496  14.028 -0.5789 -0.5037 -2.9268
 3431TIP3   OH231707   1.643   5.157  10.875 -0.4912  0.0485  0.9974
 3431TIP3    H131708   1.661   5.150  10.781 -1.0619 -0.5451  0.9274
 3431TIP3    H231709   1.549   5.175  10.880 -0.5571 -0.4196  1.4751
 3432TIP3   OH231710   2.306   2.872   1.425 -0.2614 -0.4587  0.2065
 3432TIP3    H131711   2.245   2.928   1.377  0.3922  0.1474  0.0737
 3432TIP3    H231712   2.366   2.838   1.359 -0.5331 -1.1645  0.3163
 3433TIP3   OH231713   2.334   5.037  12.405 -0.4975  0.0662  0.2876
 3433TIP3    H131714   2.245   5.073  12.403 -0.0719  1.1676 -2.4870
 3433TIP3    H231715   2.327   4.954  12.358  0.3317  1.3979 -2.3604
 3434TIP3   OH231716   1.452   4.291  15.413  0.3770  0.0439  0.2270
 3434TIP3    H131717   1.400   4.312  15.336  1.0992 -1.3777 -0.6722
 3434TIP3    H231718   1.417   4.207  15.443 -0.9484  1.2666  2.4231
 3435TIP3   OH231719   3.647   3.445   6.514 -0.2915  0.3984  0.0914
 3435TIP3    H131720   3.600   3.512   6.564 -0.5522 -0.8603  1.6261
 3435TIP3    H231721   3.579   3.405   6.459 -0.4660  0.3546  0.3367
 3436TIP3   OH231722   1.872   1.012   5.791  0.8200 -0.6843 -0.3951
 3436TIP3    H131723   1.869   1.036   5.699 -0.9007  2.0113  0.2595
 3436TIP3    H231724   1.844   1.091   5.838 -1.7052 -2.9227  2.2584
 3437TIP3   OH231725   1.291   1.164   5.006  0.7010 -0.2769  0.6101
 3437TIP3    H131726   1.266   1.112   5.082  0.4928 -0.6713  0.2733
 3437TIP3    H231727   1.375   1.202   5.030  0.4865 -0.1406  1.1626
 3438TIP3   OH231728   6.096   5.873  15.985  0.1406 -0.0740  0.5516
 3438TIP3    H131729   6.067   5.783  15.999 -0.2545  0.1008  0.8667
 3438TIP3    H231730   6.190   5.872  16.004 -0.0484 -0.2133  1.5132
 3439TIP3   OH231731   0.760   5.609  13.250 -0.2406 -1.1498  0.1739
 3439TIP3    H131732   0.849   5.624  13.282 -0.6757 -1.2610  1.5280
 3439TIP3    H231733   0.705   5.619  13.328 -1.4880 -0.4389 -0.7541
 3440TIP3   OH231734   1.768   2.795   3.656  0.3949  0.2305  0.1756
 3440TIP3    H131735   1.693   2.849   3.683  0.6737  0.8671 -0.2967
 3440TIP3    H231736   1.728   2.715   3.621 -0.0131 -0.0202  1.1570
 3441TIP3   OH231737   5.251   6.512   1.803 -0.3690  0.2066  0.3631
 3441TIP3    H131738   5.221   6.422   1.800 -1.1256  0.3532  2.2424
 3441TIP3    H231739   5.204   6.556   1.731 -0.5196 -0.7285 -0.1174
 3442TIP3   OH231740   3.226   0.534   1.195 -0.0745 -0.3145 -0.6215
 3442TIP3    H131741   3.272   0.460   1.234 -1.2156 -0.8113 -0.1417
 3442TIP3    H231742   3.295   0.595   1.169  0.8112 -0.7080  0.6959
 3443TIP3   OH231743   0.963   6.369  13.111  0.1596 -0.1104 -0.0559
 3443TIP3    H131744   0.988   6.459  13.133 -0.6951 -0.3614  2.2340
 3443TIP3    H231745   1.017   6.314  13.168 -0.9207 -0.9215  0.2275
 3444TIP3   OH231746   6.548   4.056   0.611 -0.3332  0.0803 -0.5276
 3444TIP3    H131747   6.496   4.121   0.658  0.1395 -1.7487  2.8048
 3444TIP3    H231748   6.499   4.041   0.530 -1.5405  2.9905 -0.4626
 3445TIP3   OH231749   5.422   4.047   4.727  0.2640 -0.1098 -0.1245
 3445TIP3    H131750   5.349   4.010   4.678  0.9607  0.3860 -1.6125
 3445TIP3    H231751   5.450   3.977   4.786 -0.5869 -0.7478 -0.4700
 3446TIP3   OH231752   6.315   1.808  12.587 -0.3416 -0.5637  0.4668
 3446TIP3    H131753   6.347   1.736  12.533  1.6443  0.1369  0.6141
 3446TIP3    H231754   6.305   1.881  12.526 -0.6082 -0.4764  0.6155
 3447TIP3   OH231755   3.059   3.215   0.254 -0.3065  0.6292 -0.7579
 3447TIP3    H131756   3.003   3.283   0.292 -0.2042 -0.4261  1.4851
 3447TIP3    H231757   3.068   3.150   0.324  0.1241 -1.3921 -2.5802
 3448TIP3   OH231758   4.903   5.091  12.279  0.2390 -0.7278 -0.2020
 3448TIP3    H131759   4.821   5.140  12.281 -0.6485 -2.0957 -1.3197
 3448TIP3    H231760   4.900   5.041  12.197  1.5958 -1.7876  0.3408
 3449TIP3   OH231761   3.336   0.383  11.789  0.2899  0.3839 -0.1092
 3449TIP3    H131762   3.255   0.422  11.756  1.1025  0.1504 -2.5509
 3449TIP3    H231763   3.404   0.414  11.729  2.2165  1.2193  2.3054
 3450TIP3   OH231764   2.112   4.693  11.213 -0.5681  0.0594 -0.2169
 3450TIP3    H131765   2.200   4.724  11.236  0.4962 -1.7910 -1.5199
 3450TIP3    H231766   2.080   4.759  11.150  0.0503  0.5336 -0.0500
 3451TIP3   OH231767   6.418   5.645   2.779 -0.0079 -0.8088  0.4262
 3451TIP3    H131768   6.513   5.640   2.770  0.1915  1.4011  0.7400
 3451TIP3    H231769   6.387   5.671   2.692 -0.0094  1.1734  0.9717
 3452TIP3   OH231770   3.291   3.796  13.875  0.0389  0.0820  0.0490
 3452TIP3    H131771   3.232   3.809  13.950 -0.4281 -3.6055  0.4843
 3452TIP3    H231772   3.266   3.711  13.839  2.0149  0.5474 -2.7277
 3453TIP3   OH231773   6.658   2.688   0.897  0.4143 -0.3153  0.0997
 3453TIP3    H131774   6.610   2.721   0.972  1.0252 -0.4375  0.5558
 3453TIP3    H231775   6.727   2.753   0.882  0.1565 -0.1724 -0.5039
 3454TIP3   OH231776   1.129   1.123  16.760 -0.1582 -0.0402 -0.0361
 3454TIP3    H131777   1.223   1.132  16.745  0.0279  0.6919  1.4485
 3454TIP3    H231778   1.119   1.119  16.855 -1.3902 -3.3084 -0.1749
 3455TIP3   OH231779   2.510   6.512   2.131 -0.4489 -0.2710  0.4758
 3455TIP3    H131780   2.470   6.434   2.170 -1.2161  0.2345  0.7431
 3455TIP3    H231781   2.595   6.520   2.174  1.1610 -2.8001 -1.8775
 3456TIP3   OH231782   0.552   2.704   5.034  0.3176 -0.0637  0.4652
 3456TIP3    H131783   0.637   2.705   4.990 -0.0913  2.4203 -0.3958
 3456TIP3    H231784   0.561   2.765   5.107 -0.3870 -0.7085  1.1132
 3457TIP3   OH231785   3.014   4.353   5.847 -0.7250 -0.1488  0.1213
 3457TIP3    H131786   3.082   4.410   5.883 -0.6306  0.4352 -0.9210
 3457TIP3    H231787   2.943   4.413   5.823 -0.3861 -0.3522 -1.5392
 3458TIP3   OH231788   0.099   3.119  12.971 -0.5035 -0.3682 -0.3340
 3458TIP3    H131789   0.188   3.152  12.956 -1.0029  1.0899 -0.2520
 3458TIP3    H231790   0.073   3.159  13.054 -0.2204 -3.0480  1.1554
 3459TIP3   OH231791   1.684   6.483   0.634 -0.3915  0.6730  0.1798
 3459TIP3    H131792   1.716   6.562   0.591  0.8868 -0.5147 -1.1609
 3459TIP3    H231793   1.756   6.420   0.626 -1.9019 -1.1076 -0.1378
 3460TIP3   OH231794   6.760   4.603  11.991 -0.0543  0.5080  0.5048
 3460TIP3    H131795   6.799   4.529  12.038 -1.7703 -1.3065 -0.7960
 3460TIP3    H231796   6.743   4.668  12.059  0.9765 -0.5037  1.7856
 3461TIP3   OH231797   5.334   1.864   4.897  0.0219  0.0600 -0.2169
 3461TIP3    H131798   5.312   1.922   4.824 -0.0550 -0.1033 -0.3223
 3461TIP3    H231799   5.333   1.776   4.860  0.9197  0.0478 -0.2375
 3462TIP3   OH231800   4.871   0.253  16.406  0.4362 -0.4145 -0.0361
 3462TIP3    H131801   4.781   0.242  16.374  0.8929 -1.2685 -1.0992
 3462TIP3    H231802   4.908   0.320  16.348  0.8995 -1.0779 -0.5162
 3463TIP3   OH231803   4.971   4.285  12.738  0.0353  0.3565  0.0551
 3463TIP3    H131804   4.940   4.335  12.662  1.5118 -0.8830 -1.4480
 3463TIP3    H231805   5.025   4.347  12.786 -1.0154  1.1987  0.2025
 3464TIP3   OH231806   2.916   0.750  15.075 -0.6526 -0.0422  0.5789
 3464TIP3    H131807   2.982   0.808  15.036 -0.3170 -0.9176 -0.1887
 3464TIP3    H231808   2.843   0.752  15.014 -0.0103 -1.6424 -0.3015
 3465TIP3   OH231809   1.068   2.072  14.658 -0.2858 -0.2535 -0.3072
 3465TIP3    H131810   1.017   2.013  14.603 -1.5175 -0.1725  0.7023
 3465TIP3    H231811   1.143   2.098  14.603 -1.8816  0.4806 -2.2632
 3466TIP3   OH231812   3.106   0.189   3.451 -0.0377 -0.7196  0.0527
 3466TIP3    H131813   3.074   0.102   3.428  0.0203 -1.1484  1.4651
 3466TIP3    H231814   3.162   0.214   3.378 -1.0489 -1.3249 -0.9632
 3467TIP3   OH231815   1.132   4.760  13.991 -0.0815  0.2333 -0.1835
 3467TIP3    H131816   1.223   4.748  14.021  0.2499  1.1002 -0.8183
 3467TIP3    H231817   1.079   4.717  14.059  0.8156 -0.6707 -0.0267
 3468TIP3   OH231818   0.631   5.750  13.894 -0.9059  0.8139  0.7248
 3468TIP3    H131819   0.549   5.699  13.889  0.1477 -0.8958 -0.5945
 3468TIP3    H231820   0.633   5.799  13.812 -0.0506 -0.1593  0.1293
 3469TIP3   OH231821   2.324   3.690  13.055  0.3035 -0.0969  0.8305
 3469TIP3    H131822   2.327   3.613  13.112  1.6291 -2.1310 -1.7405
 3469TIP3    H231823   2.416   3.713  13.042  0.3358 -1.5396 -2.5635
 3470TIP3   OH231824   6.239   3.434   4.348 -0.4993  1.0962  0.0883
 3470TIP3    H131825   6.182   3.431   4.271 -0.8414  0.4381  0.3538
 3470TIP3    H231826   6.182   3.409   4.421  0.3468 -0.6197  0.2224
 3471TIP3   OH231827   4.478   2.811  12.436 -0.4011 -0.5269 -0.1181
 3471TIP3    H131828   4.426   2.870  12.492  1.6205 -1.0336  2.5418
 3471TIP3    H231829   4.511   2.745  12.497 -0.5298 -2.9739 -2.5734
 3472TIP3   OH231830   1.642   1.250  16.174  0.7820  0.1050  0.2165
 3472TIP3    H131831   1.719   1.302  16.198  2.6769 -0.3714 -3.9654
 3472TIP3    H231832   1.585   1.313  16.129  0.1543 -0.1673  0.6321
 3473TIP3   OH231833   5.217   4.176   4.069 -0.0688 -0.5366  0.1571
 3473TIP3    H131834   5.307   4.206   4.082 -0.1127 -0.6081  0.6435
 3473TIP3    H231835   5.175   4.188   4.154 -0.3783 -0.9770  0.0716
 3474TIP3   OH231836   6.286   2.079   1.993  0.1150  0.6035 -0.3577
 3474TIP3    H131837   6.319   2.143   1.929 -1.6587 -0.6765 -2.7312
 3474TIP3    H231838   6.195   2.104   2.007  0.1634  0.1761  0.8289
 3475TIP3   OH231839   4.206   5.815  13.844 -0.5816  0.2709 -0.3823
 3475TIP3    H131840   4.207   5.788  13.936 -1.1267 -0.0247 -0.4621
 3475TIP3    H231841   4.234   5.738  13.796 -0.1378  0.4754 -0.4566
 3476TIP3   OH231842   4.590   0.436   2.675 -0.1692 -0.2459 -0.4256
 3476TIP3    H131843   4.554   0.508   2.623  0.8590 -1.6050 -3.1775
 3476TIP3    H231844   4.684   0.454   2.679 -0.1997 -0.2913  0.8320
 3477TIP3   OH231845   4.509   2.553  15.701  0.1197 -0.3112  0.1638
 3477TIP3    H131846   4.506   2.545  15.796  2.1157 -2.2768  0.1290
 3477TIP3    H231847   4.552   2.473  15.671  0.6962  0.8318 -2.3040
 3478TIP3   OH231848   5.642   4.731  10.874  0.0930  0.1958 -0.2395
 3478TIP3    H131849   5.688   4.701  10.952 -0.7020 -0.9420 -0.1885
 3478TIP3    H231850   5.711   4.741  10.808  0.5081 -0.8547  0.0148
 3479TIP3   OH231851   0.795   2.513  11.469  0.9780  0.1485 -0.7282
 3479TIP3    H131852   0.759   2.425  11.482 -0.0858  0.4627 -1.5140
 3479TIP3    H231853   0.731   2.558  11.414  1.5219  1.4168 -0.3569
 3480TIP3   OH231854   4.670   0.837   0.797  0.2212  0.0695  0.1899
 3480TIP3    H131855   4.662   0.932   0.794  1.6021  0.2146  0.4972
 3480TIP3    H231856   4.614   0.810   0.870 -0.2336  0.6416  0.0535
 3481TIP3   OH231857   3.238   5.301   2.228  0.0054 -0.0339  0.2059
 3481TIP3    H131858   3.161   5.264   2.271 -1.5212  0.9617 -1.5191
 3481TIP3    H231859   3.266   5.233   2.167 -1.4285  0.6906 -1.3452
 3482TIP3   OH231860   2.897   3.606   5.978 -0.2987  0.3271  0.4545
 3482TIP3    H131861   2.922   3.606   5.885  1.8392 -0.9199  0.9403
 3482TIP3    H231862   2.862   3.693   5.994 -0.5432  0.6304 -1.4655
 3483TIP3   OH231863   0.609   6.489   5.229  0.4293  0.6512 -0.0336
 3483TIP3    H131864   0.656   6.473   5.148  1.0814 -0.1029  0.4732
 3483TIP3    H231865   0.653   6.433   5.294 -0.7984  0.3572  0.5808
 3484TIP3   OH231866   1.017   1.265  13.721  0.7071 -0.0879  0.1104
 3484TIP3    H131867   1.071   1.290  13.645 -0.0343 -0.0655 -0.4193
 3484TIP3    H231868   1.073   1.206  13.771  1.2118 -0.1024 -0.4547
 3485TIP3   OH231869   6.136   0.534   4.510 -0.0597 -0.4834  0.3500
 3485TIP3    H131870   6.155   0.626   4.530 -0.7532 -0.5989  1.6715
 3485TIP3    H231871   6.054   0.516   4.556  0.2350 -1.8509  0.3867
 3486TIP3   OH231872   1.072   2.592   1.281  0.0166  0.7468  0.2070
 3486TIP3    H131873   0.993   2.614   1.331  1.4690  0.6726  2.7125
 3486TIP3    H231874   1.048   2.515   1.231 -1.0610 -0.3906  2.3161
 3487TIP3   OH231875   0.187   2.630   5.926 -0.0902  0.2143 -0.1233
 3487TIP3    H131876   0.102   2.615   5.885 -1.0966  1.3635  1.4067
 3487TIP3    H231877   0.249   2.634   5.853 -1.5266  0.4948 -1.3716
 3488TIP3   OH231878   6.329   1.137  13.824 -0.6925 -0.2974 -0.3662
 3488TIP3    H131879   6.290   1.050  13.822 -0.4193 -0.4702  0.8567
 3488TIP3    H231880   6.254   1.197  13.824 -0.8714 -0.4714 -2.2127
 3489TIP3   OH231881   0.602   5.953  13.703  0.5110  0.1027 -0.2510
 3489TIP3    H131882   0.594   6.029  13.761  1.1718  1.3082 -1.6602
 3489TIP3    H231883   0.526   5.960  13.645  2.1346  1.5359 -2.3739
 3490TIP3   OH231884   2.002   6.496   0.106 -0.1002  0.2346 -0.0089
 3490TIP3    H131885   2.037   6.505   0.195 -1.9834  2.5342  0.6195
 3490TIP3    H231886   1.940   6.424   0.112  0.3895 -0.1760  0.2906
 3491TIP3   OH231887   5.836   4.189   5.552 -0.6709  0.1545  0.8080
 3491TIP3    H131888   5.922   4.214   5.585 -1.1649  1.3701  1.2778
 3491TIP3    H231889   5.841   4.204   5.458 -0.0260 -0.8960  0.6637
 3492TIP3   OH231890   2.376   5.522   3.130 -0.7783 -0.3746  0.1732
 3492TIP3    H131891   2.303   5.466   3.159 -1.7850  1.2889  0.9869
 3492TIP3    H231892   2.334   5.603   3.103  0.8207  0.8921  1.3296
 3493TIP3   OH231893   0.739   4.568  12.024  0.4370 -0.1782  0.4428
 3493TIP3    H131894   0.711   4.659  12.018  1.0163 -0.0357 -0.1676
 3493TIP3    H231895   0.834   4.572  12.031  0.4943 -0.7503  0.0993
 3494TIP3   OH231896   5.127   0.890   3.970  0.3377 -0.5999  0.1481
 3494TIP3    H131897   5.166   0.909   3.885  1.2897 -1.5248  0.3577
 3494TIP3    H231898   5.044   0.938   3.970 -0.2664 -1.5434 -1.7759
 3495TIP3   OH231899   1.105   2.607   0.616 -0.1103 -0.3368 -0.0197
 3495TIP3    H131900   1.128   2.601   0.709  1.0860 -0.3299 -0.2958
 3495TIP3    H231901   1.011   2.590   0.613 -0.4045  0.8428  1.3161
 3496TIP3   OH231902   3.144   2.080  15.178 -0.4477 -0.0950 -0.3531
 3496TIP3    H131903   3.184   2.136  15.112 -2.8188 -1.9205 -3.6111
 3496TIP3    H231904   3.055   2.065  15.147 -1.5888 -1.5192  3.0784
 3497TIP3   OH231905   6.423   3.769   2.109 -0.6432 -0.4306 -0.0471
 3497TIP3    H131906   6.488   3.723   2.163  0.0613 -0.3141 -0.7830
 3497TIP3    H231907   6.429   3.728   2.024 -1.1465 -0.0388 -0.2770
 3498TIP3   OH231908   4.418   5.015  12.102 -0.1736 -0.4019 -0.0997
 3498TIP3    H131909   4.335   5.053  12.128  0.2019  0.2346  0.2048
 3498TIP3    H231910   4.416   5.016  12.006 -0.2499  0.2181 -0.0957
 3499TIP3   OH231911   5.487   2.757   5.656  0.1235 -0.0217  0.1234
 3499TIP3    H131912   5.470   2.843   5.618  0.0614 -0.8206 -1.7348
 3499TIP3    H231913   5.531   2.776   5.739  3.4767  1.7681 -1.8654
 3500TIP3   OH231914   4.532   0.830  13.601  0.0198  0.3804 -0.6967
 3500TIP3    H131915   4.511   0.913  13.559 -0.8441 -0.2411 -1.5447
 3500TIP3    H231916   4.468   0.768  13.566  1.4343 -0.9441 -1.0519
 3501TIP3   OH231917   4.602   3.130  14.280 -0.1966 -0.0673  0.6224
 3501TIP3    H131918   4.537   3.084  14.228  0.2269 -1.0998  0.9677
 3501TIP3    H231919   4.682   3.079  14.268 -0.0938 -0.3437  2.2664
 3502TIP3   OH231920   1.738   2.664  16.889  0.6028 -0.0992 -0.0186
 3502TIP3    H131921   1.731   2.569  16.884 -0.3992  0.0265 -2.7487
 3502TIP3    H231922   1.648   2.694  16.899  0.9713  0.5866  1.4854
 3503TIP3   OH231923   2.126   1.700  16.368  0.8293  0.6651  0.3356
 3503TIP3    H131924   2.083   1.631  16.419 -0.8651  0.6507 -1.0363
 3503TIP3    H231925   2.188   1.653  16.312  1.3206  0.5015  1.0012
 3504TIP3   OH231926   1.727   5.587  14.907 -0.3522 -0.6114  0.3740
 3504TIP3    H131927   1.721   5.576  15.002  0.6371 -0.3750  0.4778
 3504TIP3    H231928   1.791   5.657  14.895 -2.5395  1.4021 -0.4100
 3505TIP3   OH231929   2.735   5.960  16.731 -0.8203 -0.2948 -0.4630
 3505TIP3    H131930   2.684   5.881  16.718 -0.1259 -0.8084 -0.1667
 3505TIP3    H231931   2.751   5.963  16.826  0.1215 -0.4264 -0.6050
 3506TIP3   OH231932   4.439   2.617  12.043  0.1726  0.8279 -0.2011
 3506TIP3    H131933   4.506   2.632  11.977  1.8478  1.1413  1.4857
 3506TIP3    H231934   4.452   2.526  12.071 -0.0235  0.9208  0.2067
 3507TIP3   OH231935   2.873   4.145  13.103  0.6285 -0.0209 -0.3649
 3507TIP3    H131936   2.808   4.202  13.062 -0.6929 -1.2278 -0.0054
 3507TIP3    H231937   2.957   4.176  13.067 -0.2345  0.7657 -1.8058
 3508TIP3   OH231938   2.180   2.224   5.738  0.0992 -0.0534 -0.0036
 3508TIP3    H131939   2.265   2.262   5.719 -0.1673  0.7921  0.4400
 3508TIP3    H231940   2.143   2.281   5.806 -0.2100 -1.2574  0.8574
 3509TIP3   OH231941   5.286   6.406  12.221 -0.0294  0.2864  0.1641
 3509TIP3    H131942   5.235   6.367  12.291 -1.6142  1.4910 -0.2475
 3509TIP3    H231943   5.224   6.414  12.148  0.5830  2.2483 -0.2079
 3510TIP3   OH231944   5.139   2.585   0.746  0.1831  0.2446 -0.0200
 3510TIP3    H131945   5.043   2.583   0.750  0.1991 -0.4662  0.2219
 3510TIP3    H231946   5.158   2.594   0.653 -0.1163  1.1645 -0.0043
 3511TIP3   OH231947   0.370   1.746  16.370 -0.4347  0.7803 -0.3729
 3511TIP3    H131948   0.283   1.713  16.345  0.4556 -0.5871 -1.8760
 3511TIP3    H231949   0.357   1.786  16.456 -2.4081 -0.0089 -0.2504
 3512TIP3   OH231950   2.930   4.568   4.549 -0.2330  0.0172 -0.2258
 3512TIP3    H131951   2.842   4.558   4.513 -0.4607  1.5001 -0.1364
 3512TIP3    H231952   2.922   4.636   4.615  0.3135 -2.1679  2.2620
 3513TIP3   OH231953   1.046   0.456   4.768  0.1475  0.6646  0.4940
 3513TIP3    H131954   1.034   0.453   4.674 -1.9013  0.1369  0.7393
 3513TIP3    H231955   0.961   0.484   4.803  0.3460 -0.7721  2.2726
 3514TIP3   OH231956   3.805   4.787  11.586 -0.1233  0.7131 -0.4151
 3514TIP3    H131957   3.716   4.818  11.605 -1.1786  0.1881 -3.8513
 3514TIP3    H231958   3.835   4.841  11.513  1.6047 -0.4093 -0.6161
 3515TIP3   OH231959   4.921   5.652   6.154  0.1067 -0.0673  0.2162
 3515TIP3    H131960   4.989   5.711   6.121 -1.0574  1.4500  0.4110
 3515TIP3    H231961   4.840   5.684   6.114 -0.4383 -2.2363 -0.5336
 3516TIP3   OH231962   1.935   1.692  15.609 -0.2014 -0.6768 -0.3192
 3516TIP3    H131963   1.979   1.617  15.649 -0.7534 -0.2395  1.1688
 3516TIP3    H231964   1.931   1.757  15.679 -1.9449 -0.1934 -0.8270
 3517TIP3   OH231965   4.202   1.943  11.758  0.1165  0.8338 -0.6687
 3517TIP3    H131966   4.151   1.883  11.812 -0.0754 -0.1474 -1.9005
 3517TIP3    H231967   4.145   2.019  11.746 -0.2539  0.6055 -0.3708
 3518TIP3   OH231968   3.934   5.213  13.926  0.5298  0.0182  0.7423
 3518TIP3    H131969   4.027   5.194  13.929  0.6096 -1.4649 -3.8796
 3518TIP3    H231970   3.892   5.130  13.904 -1.2154  1.4584 -2.0567
 3519TIP3   OH231971   2.455   1.479  16.553  0.2286 -0.0703 -0.0093
 3519TIP3    H131972   2.378   1.423  16.546  0.4424 -0.3307 -0.2453
 3519TIP3    H231973   2.452   1.512  16.643 -2.3181  2.9992 -1.0037
 3520TIP3   OH231974   1.635   3.741   5.423 -0.3924  0.2955  0.5984
 3520TIP3    H131975   1.725   3.722   5.450 -0.4149 -0.3643  0.2377
 3520TIP3    H231976   1.645   3.799   5.348 -0.1893 -1.0290 -0.4496
 3521TIP3   OH231977   3.590   6.509   2.456  0.6730  0.5740  0.1690
 3521TIP3    H131978   3.530   6.511   2.381  1.1065 -2.5553 -0.3882
 3521TIP3    H231979   3.677   6.510   2.417  0.9042 -1.0807  0.5857
 3522TIP3   OH231980   3.379   4.059   0.463  0.4286  0.6326  0.2105
 3522TIP3    H131981   3.289   4.045   0.436 -0.2376  0.3728  2.3728
 3522TIP3    H231982   3.431   4.033   0.387 -1.1856 -2.4124 -0.0285
 3523TIP3   OH231983   1.596   4.349  11.537  0.1085 -0.5026  0.3002
 3523TIP3    H131984   1.526   4.347  11.603 -0.5587 -1.5579 -0.4184
 3523TIP3    H231985   1.618   4.257  11.522 -0.0896 -0.3111 -1.3107
 3524TIP3   OH231986   5.016   4.169  17.211  0.3543 -0.3474  0.3700
 3524TIP3    H131987   5.023   4.075  17.191 -1.8614 -0.6169  0.6207
 3524TIP3    H231988   5.008   4.211  17.126  1.2644 -0.3609  0.2616
 3525TIP3   OH231989   5.878   1.106   3.684  0.0122  0.1456 -0.1975
 3525TIP3    H131990   5.918   1.050   3.750  0.4015 -0.1840 -0.7152
 3525TIP3    H231991   5.945   1.117   3.617 -0.9531 -0.9332 -1.3863
 3526TIP3   OH231992   0.274   5.157   2.741 -0.2397 -0.8916  0.1504
 3526TIP3    H131993   0.322   5.074   2.740  1.1226 -0.1917  2.1563
 3526TIP3    H231994   0.328   5.216   2.793 -2.4063  0.4951  0.9786
 3527TIP3   OH231995   3.309   3.953  11.319  0.3873 -0.2837 -0.2078
 3527TIP3    H131996   3.233   3.911  11.361  1.1322  0.5422  2.1440
 3527TIP3    H231997   3.280   3.972  11.230 -1.6963 -1.1982  0.2122
 3528TIP3   OH231998   6.244   4.516   4.197 -0.6684  0.9494  0.5839
 3528TIP3    H131999   6.176   4.483   4.137 -1.2303  0.3724  1.5225
 3528TIP3    H232000   6.195   4.559   4.267 -0.0946  0.0282  1.5711
 3529TIP3   OH232001   1.452   5.194  15.809  0.3794 -0.1501 -0.2424
 3529TIP3    H132002   1.381   5.220  15.749  0.5691  0.2755 -0.2878
 3529TIP3    H232003   1.506   5.134  15.758 -0.2664 -0.9456 -0.0232
 3530TIP3   OH232004   2.897   1.752  16.742 -0.0099  0.5407  0.2396
 3530TIP3    H132005   2.970   1.810  16.722  0.5282 -0.4413 -0.6891
 3530TIP3    H232006   2.826   1.780  16.684  0.4421 -0.0972 -0.6322
 3531TIP3   OH232007   6.229   2.321  15.365 -0.4974  0.0819  0.1524
 3531TIP3    H132008   6.311   2.344  15.410 -0.3164  0.2974 -0.2753
 3531TIP3    H232009   6.212   2.397  15.309  0.3294 -0.9849 -1.6131
 3532TIP3   OH232010   3.014   2.737  13.923  0.0954  0.0413  0.4192
 3532TIP3    H132011   2.978   2.648  13.914  1.1648 -0.3000 -0.8891
 3532TIP3    H232012   2.938   2.794  13.928 -0.6142 -0.9665  1.5593
 3533TIP3   OH232013   2.033   2.428   3.017 -0.1197  0.1829  0.1861
 3533TIP3    H132014   2.002   2.340   2.995 -0.8712  0.6848 -0.8714
 3533TIP3    H232015   2.109   2.442   2.961  0.4226 -0.0366  0.8507
 3534TIP3   OH232016   2.233   4.641   3.006 -0.0837 -0.5525  0.1877
 3534TIP3    H132017   2.321   4.628   2.971  0.2261 -0.7040  1.0088
 3534TIP3    H232018   2.246   4.659   3.099 -0.9558 -1.2197  0.4503
 3535TIP3   OH232019   4.047   4.686  13.127 -0.1848  0.2202 -0.1524
 3535TIP3    H132020   3.979   4.710  13.065 -1.5095 -1.6806  0.4686
 3535TIP3    H232021   4.121   4.744  13.106 -1.0489  0.5635 -2.5726
 3536TIP3   OH232022   0.893   1.250   0.179  0.2655 -0.5621  0.5118
 3536TIP3    H132023   0.948   1.283   0.250 -0.0466  1.3318 -0.0721
 3536TIP3    H232024   0.818   1.211   0.223  1.4500 -2.0829  1.2736
 3537TIP3   OH232025   3.928   2.292   4.640 -0.7058  0.5879 -0.2701
 3537TIP3    H132026   3.959   2.227   4.578 -1.4965  1.2774 -1.4514
 3537TIP3    H232027   3.970   2.374   4.612  0.6166  0.5459  1.4491
 3538TIP3   OH232028   4.093   5.975  12.479 -0.1623 -0.1384 -0.2507
 3538TIP3    H132029   4.179   5.981  12.521 -0.2863  1.2578 -0.1600
 3538TIP3    H232030   4.111   5.941  12.391  0.8489  2.4952 -1.1678
 3539TIP3   OH232031   1.035   1.168  10.912  0.2184 -0.2032  0.4579
 3539TIP3    H132032   0.992   1.139  10.992 -0.6819  2.9366  1.2408
 3539TIP3    H232033   1.116   1.209  10.941  1.0785 -1.1346 -0.5177
 3540TIP3   OH232034   4.683   3.666  12.862 -0.0442 -0.6859 -0.0253
 3540TIP3    H132035   4.671   3.662  12.767 -1.7101 -0.0786  0.1299
 3540TIP3    H232036   4.666   3.757  12.885 -0.4654 -0.9958  0.9514
 3541TIP3   OH232037   1.844   5.070  11.927 -0.1694  0.7705  0.4212
 3541TIP3    H132038   1.778   5.020  11.975 -0.8700  0.9343 -0.3550
 3541TIP3    H232039   1.797   5.107  11.852  0.9124  0.4575 -0.4486
 3542TIP3   OH232040   5.882   2.737   1.514 -0.0016  0.5855  0.2624
 3542TIP3    H132041   5.835   2.820   1.509  1.7561  1.6435  0.7162
 3542TIP3    H232042   5.932   2.741   1.595  0.1122 -0.9301  0.3074
 3543TIP3   OH232043   0.154   4.637  14.984  0.3102 -0.7490 -0.5422
 3543TIP3    H132044   0.067   4.678  14.981  0.8233  0.3711 -0.5900
 3543TIP3    H232045   0.215   4.710  14.988  1.2716 -1.5202 -0.6725
 3544TIP3   OH232046   0.933   3.141  12.098 -0.0688  0.0627 -0.5052
 3544TIP3    H132047   0.922   3.207  12.167 -0.2212  0.0030 -0.4723
 3544TIP3    H232048   1.028   3.132  12.089 -0.0184  1.1400 -1.3243
 3545TIP3   OH232049   5.463   0.561   1.183 -0.0415 -0.0945  0.6619
 3545TIP3    H132050   5.499   0.542   1.097 -1.3847 -0.0643  0.0575
 3545TIP3    H232051   5.486   0.485   1.236 -0.7808 -0.9972 -0.2572
 3546TIP3   OH232052   3.830   4.778   4.257  0.4503 -0.1494 -0.7070
 3546TIP3    H132053   3.823   4.788   4.352 -0.0249  1.1057 -0.8526
 3546TIP3    H232054   3.921   4.753   4.242  0.6457  0.0990  0.0490
 3547TIP3   OH232055   5.074   0.477   0.742 -0.7760  0.3659 -0.2433
 3547TIP3    H132056   5.102   0.554   0.693  0.8244 -0.0978 -0.1040
 3547TIP3    H232057   5.054   0.412   0.675 -0.6811  0.4278 -0.3318
 3548TIP3   OH232058   2.674   1.384  12.456  0.4061  0.1901 -0.1224
 3548TIP3    H132059   2.630   1.468  12.439 -1.9564 -0.9895 -0.3513
 3548TIP3    H232060   2.704   1.356  12.370  1.2999  0.8325 -0.0297
 3549TIP3   OH232061   6.392   1.857   4.765  0.1547  0.7337  0.0934
 3549TIP3    H132062   6.392   1.926   4.832  2.6109  1.2867 -0.3924
 3549TIP3    H232063   6.386   1.776   4.815  1.3219  1.1623  0.9560
 3550TIP3   OH232064   5.551   4.573  13.196 -0.0839  0.1850 -0.4363
 3550TIP3    H132065   5.558   4.643  13.261  0.0907  0.5037 -0.7934
 3550TIP3    H232066   5.459   4.546  13.199 -0.4695  1.3203 -1.2105
 3551TIP3   OH232067   6.285   6.547   0.575  0.1174  0.6336 -0.1696
 3551TIP3    H132068   6.287   6.531   0.480  2.1328  0.7413 -0.1974
 3551TIP3    H232069   6.212   6.494   0.607  0.0221 -0.1917 -1.6422
 3552TIP3   OH232070   6.569   6.669   5.247 -0.4903 -0.1610  0.5438
 3552TIP3    H132071   6.523   6.640   5.325 -0.7938 -2.4313 -0.4053
 3552TIP3    H232072   6.620   6.593   5.219  0.4337  0.9200 -0.8816
 3553TIP3   OH232073   6.552   2.774  15.187  0.0478 -0.0460 -0.1577
 3553TIP3    H132074   6.577   2.721  15.112  1.2517  0.5661 -0.2230
 3553TIP3    H232075   6.561   2.864  15.157  1.4339  0.2221  0.9585
 3554TIP3   OH232076   0.516   1.890  17.080 -0.1038 -0.0094 -0.2540
 3554TIP3    H132077   0.598   1.843  17.095  0.0735  0.0178 -1.1217
 3554TIP3    H232078   0.471   1.839  17.013 -0.1383  0.7736 -0.8334
 3555TIP3   OH232079   6.292   6.570   6.259  0.2103  0.0789  0.4879
 3555TIP3    H132080   6.326   6.501   6.203  0.7637  0.3170  0.5222
 3555TIP3    H232081   6.198   6.573   6.240  0.2023 -0.5982  0.4014
 3556TIP3   OH232082   1.736   0.721  11.661  0.6546 -0.2520 -0.3955
 3556TIP3    H132083   1.697   0.645  11.703 -0.1017  0.7518  0.7719
 3556TIP3    H232084   1.664   0.784  11.654  1.7741  1.2248  0.7937
 3557TIP3   OH232085   4.982   4.202   0.517 -0.3984 -0.2389 -0.4737
 3557TIP3    H132086   4.961   4.136   0.451  0.5940 -1.2761  0.2035
 3557TIP3    H232087   4.942   4.283   0.484  1.0066 -0.4447 -2.8871
 3558TIP3   OH232088   3.426   1.477  13.970  0.1139 -0.1365 -0.2943
 3558TIP3    H132089   3.372   1.551  13.945  0.1280  0.0134  0.1131
 3558TIP3    H232090   3.488   1.512  14.034  0.2668 -0.4485 -0.2650
 3559TIP3   OH232091   4.777   5.969  14.913  0.1707 -0.5417  0.2648
 3559TIP3    H132092   4.736   6.022  14.981  0.9324 -0.9155  1.0449
 3559TIP3    H232093   4.718   5.895  14.900  0.1628 -0.6166  0.7333
 3560TIP3   OH232094   1.832   0.190  12.102 -0.3983 -0.3177  0.3735
 3560TIP3    H132095   1.923   0.160  12.109  0.2461  1.3587 -0.2593
 3560TIP3    H232096   1.794   0.136  12.034  0.9845  0.7717 -1.3473
 3561TIP3   OH232097   5.636   2.668  14.355 -0.2259  0.4805 -0.0821
 3561TIP3    H132098   5.707   2.664  14.290  0.6595 -1.2445  0.9099
 3561TIP3    H232099   5.623   2.761  14.371  0.8544  0.8750 -1.3148
 3562TIP3   OH232100   5.638   0.601  14.957 -0.0899  0.3985 -0.9631
 3562TIP3    H132101   5.725   0.636  14.974 -0.0632 -0.5896  1.2645
 3562TIP3    H232102   5.604   0.578  15.043 -1.2804 -2.2249 -2.0207
 3563TIP3   OH232103   0.261   2.872   6.433  0.1199  0.2022  0.6496
 3563TIP3    H132104   0.224   2.828   6.509 -1.3352  0.4728  0.1250
 3563TIP3    H232105   0.260   2.965   6.456 -0.8532  0.3424  0.1165
 3564TIP3   OH232106   0.445   1.924   3.689  0.2508 -0.1005  0.5313
 3564TIP3    H132107   0.463   1.839   3.650 -1.4925  0.0227 -0.6442
 3564TIP3    H232108   0.420   1.980   3.615 -0.2738  0.9703  1.4740
 3565TIP3   OH232109   0.408   1.335   0.056  0.2526 -0.2357 -0.4103
 3565TIP3    H132110   0.438   1.298   0.139 -2.0131  0.5991  0.8540
 3565TIP3    H232111   0.378   1.423   0.078  0.8960  0.5528 -2.4178
 3566TIP3   OH232112   4.266   3.229   5.361 -0.5828  0.0225 -0.3985
 3566TIP3    H132113   4.267   3.295   5.430 -0.7111 -1.0802  0.6909
 3566TIP3    H232114   4.173   3.221   5.337 -0.7739 -0.7458  0.4902
 3567TIP3   OH232115   5.376   0.064  14.415 -0.3801  0.9287  0.3544
 3567TIP3    H132116   5.333  -0.005  14.365 -1.4221  1.2122  0.8234
 3567TIP3    H232117   5.411   0.123  14.348 -0.0053  0.2673 -0.0428
 3568TIP3   OH232118   1.791   0.139   3.335 -0.2105 -0.1885 -0.1271
 3568TIP3    H132119   1.698   0.118   3.344 -0.1470 -1.2445 -1.7284
 3568TIP3    H232120   1.810   0.126   3.243  2.0339 -2.1024  0.5346
 3569TIP3   OH232121   0.812   6.396  16.052 -0.2413  0.0049  0.4447
 3569TIP3    H132122   0.897   6.433  16.078 -0.3063  0.5533 -0.1179
 3569TIP3    H232123   0.825   6.302  16.059  1.1769 -0.0549 -1.8628
 3570TIP3   OH232124   2.598   3.449  16.957  0.0935  0.7427  0.6435
 3570TIP3    H132125   2.576   3.387  16.888 -0.4346  1.2179  0.3682
 3570TIP3    H232126   2.672   3.410  17.003 -0.0380  0.0616  0.2846
 3571TIP3   OH232127   4.722   1.710  14.619 -0.0518 -0.0369 -0.2769
 3571TIP3    H132128   4.807   1.750  14.598  0.3266 -1.2366 -1.1489
 3571TIP3    H232129   4.658   1.777  14.595  0.6309  0.8596  0.3122
 3572TIP3   OH232130   2.725   4.490   3.464  0.9656  0.0364  0.1870
 3572TIP3    H132131   2.693   4.575   3.434 -0.0485 -0.4210 -0.0716
 3572TIP3    H232132   2.808   4.509   3.506  0.0755  1.3757  1.4256
 3573TIP3   OH232133   1.234   4.518  16.838 -0.5822  0.2733 -0.4443
 3573TIP3    H132134   1.145   4.553  16.833 -0.9664 -0.8410 -2.2037
 3573TIP3    H232135   1.284   4.585  16.884 -2.0884  1.4000 -0.3930
 3574TIP3   OH232136   0.988   1.284  17.012 -0.1759 -0.0595  0.0100
 3574TIP3    H132137   1.031   1.324  16.937 -1.2325  0.9143 -0.1003
 3574TIP3    H232138   1.019   1.333  17.088 -0.0974 -0.2047  0.0729
 3575TIP3   OH232139   0.334   5.190   2.113 -0.5258 -0.6706  0.5737
 3575TIP3    H132140   0.398   5.253   2.148 -1.2891  0.1290  0.5714
 3575TIP3    H232141   0.268   5.182   2.182  0.0007 -2.1618  0.9402
 3576TIP3   OH232142   0.909   0.242   0.306  0.2210 -0.1240  0.2382
 3576TIP3    H132143   0.838   0.290   0.263 -1.1446 -1.6665  0.6692
 3576TIP3    H232144   0.949   0.306   0.364 -1.6275  0.5141  0.8878
 3577TIP3   OH232145   0.761   4.551  13.339  0.4098  0.0064  0.0923
 3577TIP3    H132146   0.757   4.592  13.425 -1.5364  0.5270 -0.1812
 3577TIP3    H232147   0.690   4.593  13.290  0.3436 -1.5192 -1.1958
 3578TIP3   OH232148   3.614   0.429   5.295  0.4530 -0.0531 -0.4892
 3578TIP3    H132149   3.550   0.364   5.268  0.9317 -0.3743 -0.8752
 3578TIP3    H232150   3.618   0.421   5.391  1.0919 -1.1571 -0.5963
 3579TIP3   OH232151   4.734   5.908  12.103 -0.2903 -0.0702 -0.0971
 3579TIP3    H132152   4.782   5.991  12.103  0.8271 -0.6105 -2.7470
 3579TIP3    H232153   4.643   5.934  12.084 -0.4476  0.6966  1.5716
 3580TIP3   OH232154   1.658   2.551  15.209 -0.1431  0.3146  0.7814
 3580TIP3    H132155   1.724   2.481  15.205  0.5108  0.8201  2.0818
 3580TIP3    H232156   1.652   2.583  15.119 -0.9091 -1.7986  0.0265
 3581TIP3   OH232157   1.828   5.369   4.172  0.3896 -0.1974  0.1442
 3581TIP3    H132158   1.739   5.403   4.166  0.2859 -0.7629 -2.6227
 3581TIP3    H232159   1.872   5.404   4.095  2.0139 -1.4958  0.4396
 3582TIP3   OH232160   0.594   0.279  15.710 -0.2045 -0.2100  0.2153
 3582TIP3    H132161   0.618   0.227  15.786 -1.5419  0.2002  0.9472
 3582TIP3    H232162   0.666   0.266  15.648  0.7736 -0.7669  1.4308
 3583TIP3   OH232163   5.266   4.962   0.767  0.0844  0.0372  1.0798
 3583TIP3    H132164   5.332   5.031   0.757 -0.2156  0.2641  0.6490
 3583TIP3    H232165   5.284   4.901   0.695 -2.5478  2.0552 -1.5234
 3584TIP3   OH232166   1.174   0.145   3.258 -0.6562  0.3893  0.7873
 3584TIP3    H132167   1.213   0.226   3.224  0.1403  0.3538  1.5663
 3584TIP3    H232168   1.179   0.084   3.185  0.0574  0.6228  0.6296
 3585TIP3   OH232169   5.142   2.182  13.261 -1.0260 -0.8994  0.2389
 3585TIP3    H132170   5.174   2.179  13.351 -1.3592  0.1106  0.4061
 3585TIP3    H232171   5.218   2.155  13.208  0.9826  3.4141  0.4730
 3586TIP3   OH232172   5.556   0.065  13.577  0.0977  0.5414 -0.4770
 3586TIP3    H132173   5.507   0.010  13.515  0.0924  1.6165 -1.4667
 3586TIP3    H232174   5.508   0.148  13.578  1.0869  1.1257 -0.3481
 3587TIP3   OH232175   2.927   5.200   0.002 -0.4401  0.3276  0.3472
 3587TIP3    H132176   2.930   5.272   0.066 -1.1656 -0.8170  1.7038
 3587TIP3    H232177   3.010   5.208  -0.045  0.3460  0.9327  1.7513
 3588TIP3   OH232178   3.021   0.166   3.057 -0.6739 -0.1456  0.4526
 3588TIP3    H132179   2.969   0.093   3.093 -1.7116 -0.9276 -2.3260
 3588TIP3    H232180   2.969   0.244   3.077 -1.1500 -0.5324  0.7623
 3589TIP3   OH232181   4.252   0.624  15.848  0.1858 -0.2112 -0.1925
 3589TIP3    H132182   4.322   0.648  15.909  1.1540  1.3281 -1.8366
 3589TIP3    H232183   4.204   0.705  15.833  1.3067  0.0214 -3.0958
 3590TIP3   OH232184   3.866   4.895  15.749 -0.6213  0.3524 -0.1583
 3590TIP3    H132185   3.905   4.897  15.661 -1.9410 -1.5888 -0.8664
 3590TIP3    H232186   3.939   4.912  15.808  0.6740 -0.0872 -1.5562
 3591TIP3   OH232187   2.160   6.255   5.840  0.1531  0.0754  0.5130
 3591TIP3    H132188   2.209   6.294   5.913  0.4841 -1.9776  1.4751
 3591TIP3    H232189   2.068   6.268   5.864  0.2154 -2.2335  2.3720
 3592TIP3   OH232190   4.182   0.650   2.242  0.1148  0.5470 -0.1132
 3592TIP3    H132191   4.270   0.613   2.241 -0.7808 -1.7512  0.1652
 3592TIP3    H232192   4.173   0.693   2.157  1.7106  1.4066  0.1240
 3593TIP3   OH232193   3.449   5.895  16.445 -0.4766 -0.5232 -0.5873
 3593TIP3    H132194   3.399   5.830  16.394  1.4955 -0.4163 -2.8379
 3593TIP3    H232195   3.430   5.978  16.401  0.1519 -0.1935 -0.2329
 3594TIP3   OH232196   0.025   4.658   4.614 -0.1005  0.6016  0.3821
 3594TIP3    H132197   0.091   4.599   4.651 -1.4072 -1.5042 -0.5014
 3594TIP3    H232198   0.071   4.742   4.606  2.8535 -0.9962 -1.1655
 3595TIP3   OH232199   1.118   2.380   0.087  0.0689 -0.7871 -0.1873
 3595TIP3    H132200   1.045   2.370   0.026 -0.5927 -0.1959  0.4905
 3595TIP3    H232201   1.077   2.407   0.169  0.9946 -1.0671  0.3824
 3596TIP3   OH232202   0.798   5.158   0.070 -0.6825 -0.1388  0.4073
 3596TIP3    H132203   0.762   5.240   0.034  0.4315  0.9999  1.7643
 3596TIP3    H232204   0.736   5.134   0.139  0.6467  1.4382  2.2649
 3597TIP3   OH232205   1.187   0.820  11.860  0.1767  0.2596 -0.4344
 3597TIP3    H132206   1.252   0.774  11.807  1.4450  1.4518  0.0253
 3597TIP3    H232207   1.132   0.751  11.896 -1.0918 -0.6029 -3.6556
 3598TIP3   OH232208   3.812   2.713   2.027  0.1783  0.0432  0.1423
 3598TIP3    H132209   3.735   2.658   2.021  2.2241 -2.9200 -1.5298
 3598TIP3    H232210   3.849   2.693   2.114  0.2205 -0.2380  0.0607
 3599TIP3   OH232211   1.565   3.174  14.974  0.0479 -0.8309 -0.1219
 3599TIP3    H132212   1.641   3.214  14.933 -0.3550 -1.2279 -1.2958
 3599TIP3    H232213   1.556   3.089  14.931 -1.4113 -0.5407 -0.4608
 3600TIP3   OH232214   6.452   5.139  13.137 -0.4773 -0.4370 -0.2666
 3600TIP3    H132215   6.369   5.128  13.182 -0.8347  2.3334 -0.0812
 3600TIP3    H232216   6.447   5.079  13.063 -2.0210 -1.3524  0.5240
 3601TIP3   OH232217   0.545   3.406  13.785  0.1702  0.0123 -0.1613
 3601TIP3    H132218   0.451   3.420  13.770 -0.1525 -0.0440  1.5342
 3601TIP3    H232219   0.588   3.480  13.742 -0.4360 -0.9850 -2.6813
 3602TIP3   OH232220   5.718   2.451   1.470  0.1423 -0.3016  0.2932
 3602TIP3    H132221   5.704   2.368   1.517  0.7816 -0.9406 -0.6235
 3602TIP3    H232222   5.796   2.489   1.511  2.3712 -2.1683 -1.9393
 3603TIP3   OH232223   4.300   0.868  16.183  0.0478  0.4398  0.7178
 3603TIP3    H132224   4.208   0.896  16.184 -0.5277 -1.2237 -0.2623
 3603TIP3    H232225   4.331   0.893  16.096 -0.4173 -1.6129 -0.0963
 3604TIP3   OH232226   0.179   5.146   3.312  0.2080 -0.2614 -0.0066
 3604TIP3    H132227   0.084   5.157   3.319  0.2712  0.0292  0.4046
 3604TIP3    H232228   0.208   5.129   3.401  0.7834  1.5642  0.1743
 3605TIP3   OH232229   1.849   5.668  13.304 -0.2688 -0.1075  0.0987
 3605TIP3    H132230   1.810   5.744  13.261  1.8396  0.0528 -1.6805
 3605TIP3    H232231   1.783   5.600  13.298 -1.7383  1.2220  0.6584
 3606TIP3   OH232232   0.568   6.719   5.404 -0.7791 -0.4852 -0.7414
 3606TIP3    H132233   0.530   6.778   5.339 -0.2431 -1.5921 -2.1127
 3606TIP3    H232234   0.589   6.640   5.355  1.7928 -0.5292  0.2559
 3607TIP3   OH232235   3.626   5.773   4.007  0.2979  0.0809  0.5705
 3607TIP3    H132236   3.586   5.714   3.943  0.4091 -0.5835  1.0930
 3607TIP3    H232237   3.653   5.849   3.957 -0.8615  0.1770  0.0619
 3608TIP3   OH232238   6.176   5.120  13.319  0.6328  0.6540  0.0974
 3608TIP3    H132239   6.126   5.065  13.258  0.4358  2.6827 -1.7154
 3608TIP3    H232240   6.147   5.092  13.406 -0.4831 -1.1113 -0.7814
 3609TIP3   OH232241   2.144   1.325  14.625 -0.1802  0.0710  0.0233
 3609TIP3    H132242   2.141   1.419  14.643  0.2306 -0.1302  1.2285
 3609TIP3    H232243   2.214   1.292  14.682  1.0662 -0.6712 -1.8329
 3610TIP3   OH232244   2.495   4.676  11.283  0.3843  0.1470  0.1460
 3610TIP3    H132245   2.447   4.713  11.209  0.5873  0.3501  0.1135
 3610TIP3    H232246   2.574   4.730  11.288  1.0587 -0.7676 -0.3855
 3611TIP3   OH232247   0.556   4.386   5.018 -0.0365  0.0093  0.1955
 3611TIP3    H132248   0.473   4.428   4.996  0.1552  0.8363  0.9681
 3611TIP3    H232249   0.536   4.293   5.025 -0.7491  0.1234 -0.3143
 3612TIP3   OH232250   2.014   5.416   5.655 -0.1688 -0.0534 -0.3269
 3612TIP3    H132251   1.932   5.464   5.661  0.0213  0.7618 -3.1076
 3612TIP3    H232252   2.080   5.477   5.688 -0.7152 -1.4190  3.9436
 3613TIP3   OH232253   6.265   2.665   4.419  0.1062  0.2374 -0.2153
 3613TIP3    H132254   6.225   2.612   4.488  0.1498  0.4602 -0.0200
 3613TIP3    H232255   6.190   2.695   4.366 -0.1059  1.5462  0.7729
 3614TIP3   OH232256   5.774   4.596  11.089 -0.4729  0.1718  0.3520
 3614TIP3    H132257   5.732   4.517  11.055  0.0523  0.6953 -1.6685
 3614TIP3    H232258   5.864   4.590  11.056 -0.0310  0.9368  1.3793
 3615TIP3   OH232259   0.756   5.584  12.591 -0.1321  0.3374 -0.4532
 3615TIP3    H132260   0.697   5.539  12.651 -0.2127 -3.0655 -2.7649
 3615TIP3    H232261   0.699   5.635  12.534 -0.3965  0.6369  0.0777
 3616TIP3   OH232262   4.058   0.760   6.211 -0.1183  0.5335  0.0736
 3616TIP3    H132263   3.984   0.809   6.247  1.0663  0.4440  2.9020
 3616TIP3    H232264   4.027   0.670   6.208 -0.7064  0.7475 -0.5031
 3617TIP3   OH232265   3.818   6.757   0.256 -0.3028 -0.0733 -0.6432
 3617TIP3    H132266   3.845   6.666   0.260 -1.2132 -0.3536 -0.6033
 3617TIP3    H232267   3.729   6.754   0.220 -0.4114  0.7791 -0.4714
 3618TIP3   OH232268   1.876   3.595  11.410 -0.8236  0.2623 -0.1925
 3618TIP3    H132269   1.953   3.542  11.430 -1.4636 -0.1665  1.3455
 3618TIP3    H232270   1.883   3.671  11.468 -1.3380  0.4407 -0.3576
 3619TIP3   OH232271   0.562   6.702   4.069 -0.0188 -0.1284 -0.1744
 3619TIP3    H132272   0.530   6.669   3.985 -1.5450 -0.9075  0.6576
 3619TIP3    H232273   0.657   6.702   4.061 -0.1260 -0.3699 -1.8187
 3620TIP3   OH232274   1.690   5.261   1.003 -0.2725  0.3271  0.3505
 3620TIP3    H132275   1.695   5.314   0.923 -0.8142 -0.1765 -0.0255
 3620TIP3    H232276   1.599   5.271   1.031 -0.5899 -0.9958 -0.1389
 3621TIP3   OH232277   4.567   5.916  12.892  0.3260 -0.0568  0.4508
 3621TIP3    H132278   4.527   5.832  12.868  2.0229 -0.8200  0.1257
 3621TIP3    H232279   4.661   5.903  12.875  0.5213  2.2097 -0.4812
 3622TIP3   OH232280   4.615   4.175  13.342  0.4921  0.2591  0.2649
 3622TIP3    H132281   4.614   4.098  13.398 -0.9276 -0.0261 -0.1209
 3622TIP3    H232282   4.661   4.242  13.393 -3.3705  1.0311  3.2005
 3623TIP3   OH232283   6.365   3.349   5.553  0.1550 -0.2294 -0.2843
 3623TIP3    H132284   6.272   3.366   5.561  0.1989  0.1947 -0.6425
 3623TIP3    H232285   6.407   3.430   5.581  0.4316 -0.5478  0.2555
 3624TIP3   OH232286   5.496   0.414  12.794  0.1734  0.0987  0.0446
 3624TIP3    H132287   5.575   0.365  12.773 -0.7530 -1.4980  0.1211
 3624TIP3    H232288   5.486   0.404  12.889  0.2943  0.9671  0.1598
 3625TIP3   OH232289   4.964   0.866  13.825  0.5375 -0.3393  0.1219
 3625TIP3    H132290   4.912   0.793  13.790 -0.9608  0.1047  1.3047
 3625TIP3    H232291   4.958   0.856  13.920  2.5018 -0.1439  0.3202
 3626TIP3   OH232292   0.371   6.636   5.059 -0.6279 -0.2330  0.1550
 3626TIP3    H132293   0.382   6.670   4.970 -1.6717  0.5825  0.3150
 3626TIP3    H232294   0.459   6.608   5.085  0.0948  1.3690 -0.4164
 3627TIP3   OH232295   0.302   3.530  12.595  0.4958  0.3429  0.2093
 3627TIP3    H132296   0.377   3.485  12.555 -0.1126 -0.0118 -0.5392
 3627TIP3    H232297   0.226   3.481  12.566 -0.1098  1.2839  0.1785
 3628TIP3   OH232298   3.259   3.562   1.570  0.5529 -0.3327  0.2412
 3628TIP3    H132299   3.245   3.592   1.660 -3.3563 -2.4269  0.5424
 3628TIP3    H232300   3.207   3.622   1.516  1.0352 -0.4573 -0.3763
 3629TIP3   OH232301   5.359   5.783  16.493 -0.1247 -0.1406 -0.0633
 3629TIP3    H132302   5.427   5.755  16.554  1.2549 -0.6534 -1.7305
 3629TIP3    H232303   5.394   5.865  16.455 -2.0109  1.4574  1.4394
 3630TIP3   OH232304   2.765   3.806  16.352 -0.3654  0.1087  0.0445
 3630TIP3    H132305   2.775   3.885  16.404  0.4825  0.0923 -0.0871
 3630TIP3    H232306   2.681   3.769  16.380 -0.8997  1.1875 -0.0814
 3631TIP3   OH232307   6.490   0.293   4.397  0.1304  0.2101  0.2807
 3631TIP3    H132308   6.496   0.323   4.487  1.1609 -0.3921  0.4343
 3631TIP3    H232309   6.428   0.353   4.355 -0.1045  0.6962  1.2966
 3632TIP3   OH232310   2.467   6.169   0.623 -0.1792  0.2137  0.2228
 3632TIP3    H132311   2.426   6.098   0.672  0.1451 -1.0348 -1.2413
 3632TIP3    H232312   2.555   6.175   0.660  0.3946 -1.3774 -0.7927
 3633TIP3   OH232313   1.826   1.414  12.180 -0.4933 -0.0654 -0.5987
 3633TIP3    H132314   1.892   1.431  12.113 -0.3077  0.4174 -0.3034
 3633TIP3    H232315   1.865   1.346  12.236 -0.3983 -0.0428 -0.6375
 3634TIP3   OH232316   3.473   6.159   2.200 -0.1052  0.3190 -0.0584
 3634TIP3    H132317   3.410   6.229   2.218 -0.4584 -0.1503  0.6231
 3634TIP3    H232318   3.520   6.148   2.283  2.8118  2.4972 -1.2869
 3635TIP3   OH232319   2.549   5.600   5.104  0.1486  0.0332 -0.4411
 3635TIP3    H132320   2.567   5.507   5.086  3.7894  0.2749  1.1459
 3635TIP3    H232321   2.529   5.603   5.197 -2.2833  0.6776 -0.9094
 3636TIP3   OH232322   1.727   2.996  17.112 -0.4009  0.6981 -0.2035
 3636TIP3    H132323   1.675   2.926  17.150 -0.6085 -0.0519 -1.8077
 3636TIP3    H232324   1.797   2.952  17.065 -0.3226  1.5731 -0.9377
 3637TIP3   OH232325   3.036   1.126  14.340 -0.0892  0.2601  0.1573
 3637TIP3    H132326   3.115   1.137  14.394 -0.3844  1.1272  0.4329
 3637TIP3    H232327   3.009   1.036  14.355 -0.8352  0.8030  2.4046
 3638TIP3   OH232328   4.398   6.073   2.269  0.0505  0.1458 -0.3039
 3638TIP3    H132329   4.426   6.156   2.308 -0.6383 -0.6175  1.9282
 3638TIP3    H232330   4.480   6.028   2.249  0.4527  0.2844  0.9347
 3639TIP3   OH232331   3.521   4.758   3.306  1.1305 -0.0761  0.1071
 3639TIP3    H132332   3.494   4.668   3.284 -1.3111  0.3097  1.1630
 3639TIP3    H232333   3.474   4.777   3.387  0.6448  2.5619 -0.7101
 3640TIP3   OH232334   0.919   6.023  13.124 -0.0694 -0.3215  0.1163
 3640TIP3    H132335   0.963   5.995  13.204  1.5724  1.4750 -0.0864
 3640TIP3    H232336   0.826   6.027  13.148  0.4524  0.7844  2.1326
 3641TIP3   OH232337   1.096   0.376  14.321 -0.2575  0.1531 -0.0239
 3641TIP3    H132338   1.021   0.383  14.380  0.6670  1.0327  1.1129
 3641TIP3    H232339   1.170   0.356  14.379  0.9596  2.5411 -0.6231
 3642TIP3   OH232340   5.153   5.290  14.766 -0.6078 -0.0905 -0.0907
 3642TIP3    H132341   5.095   5.354  14.807 -0.6994  0.1830 -0.6477
 3642TIP3    H232342   5.183   5.332  14.686  0.1782 -0.3231  0.0691
 3643TIP3   OH232343   5.626   4.861   5.503  0.4543  0.3085 -0.1199
 3643TIP3    H132344   5.710   4.882   5.543 -0.3906  0.6852  1.5536
 3643TIP3    H232345   5.645   4.788   5.444  2.1943  1.3483 -0.9213
 3644TIP3   OH232346   4.688   0.923   1.548  0.2231  0.2563  0.2832
 3644TIP3    H132347   4.750   0.852   1.559  0.4208  0.3816 -0.0045
 3644TIP3    H232348   4.651   0.910   1.460 -1.3173 -0.7232  1.0437
 3645TIP3   OH232349   0.237   5.884   4.618  0.0108  0.2520 -0.0659
 3645TIP3    H132350   0.213   5.951   4.554 -0.0025  0.2427 -0.0706
 3645TIP3    H232351   0.258   5.933   4.697 -1.0045  0.2138  0.2447
 3646TIP3   OH232352   3.904   4.362  11.455 -0.5476 -0.1093 -0.4086
 3646TIP3    H132353   3.972   4.383  11.520 -0.3410  1.8737 -1.1937
 3646TIP3    H232354   3.913   4.268  11.441  0.4409 -0.3119  1.2802
 3647TIP3   OH232355   4.167   0.194  11.540  0.2712 -0.4535 -0.2377
 3647TIP3    H132356   4.172   0.272  11.484 -1.4585 -1.6748 -2.2577
 3647TIP3    H232357   4.080   0.159  11.524 -0.8207 -0.3203  4.1826
 3648TIP3   OH232358   6.164   6.167   5.196  0.3994 -0.3023  0.4727
 3648TIP3    H132359   6.106   6.240   5.219  0.0924  0.1095 -1.4004
 3648TIP3    H232360   6.142   6.098   5.258 -0.8716  0.4453  0.9006
 3649TIP3   OH232361   4.008   1.429   6.556 -0.0426  0.1647  0.2068
 3649TIP3    H132362   4.018   1.488   6.630 -2.0771 -0.4109  1.0033
 3649TIP3    H232363   4.065   1.355   6.576 -0.7263 -0.0836  1.3444
 3650TIP3   OH232364   4.966   2.002   1.046 -0.4036  0.4769  0.3905
 3650TIP3    H132365   5.002   1.997   1.134 -0.3182 -0.4250  0.3084
 3650TIP3    H232366   4.897   2.069   1.052  1.0070  1.9763  0.6225
 3651TIP3   OH232367   0.792   5.370  14.558 -0.5674  0.2193  0.0897
 3651TIP3    H132368   0.787   5.441  14.622  0.6225  0.2768  0.1391
 3651TIP3    H232369   0.749   5.405  14.480 -1.3953  0.4062  0.6196
 3652TIP3   OH232370   6.074   3.158  14.946 -0.5756  0.2394 -0.7221
 3652TIP3    H132371   6.011   3.155  14.874 -1.2135 -0.3563 -0.1468
 3652TIP3    H232372   6.098   3.250  14.952 -0.2414  0.2497 -1.9248
 3653TIP3   OH232373   0.788   1.539   5.407  0.0740 -0.1462 -0.2275
 3653TIP3    H132374   0.821   1.559   5.320  1.6098 -1.2662  0.0459
 3653TIP3    H232375   0.766   1.446   5.404 -1.5399  0.1941  0.1010
 3654TIP3   OH232376   3.778   1.789  12.863  0.1011  0.1914 -0.0134
 3654TIP3    H132377   3.708   1.745  12.912  0.6124 -0.4773  0.1270
 3654TIP3    H232378   3.854   1.784  12.921  0.2653  0.9101 -0.1682
 3655TIP3   OH232379   1.241   2.458   5.056 -0.1907  0.0586  0.1563
 3655TIP3    H132380   1.161   2.410   5.077 -0.1331 -0.6258 -1.1064
 3655TIP3    H232381   1.255   2.515   5.131 -1.4124 -0.4044  0.7603
 3656TIP3   OH232382   0.765   1.152   4.590 -0.0005 -0.4112  0.5782
 3656TIP3    H132383   0.770   1.198   4.507  1.0364 -0.9977  0.3056
 3656TIP3    H232384   0.845   1.178   4.637  0.3912 -1.5867  0.5861
 3657TIP3   OH232385   3.019   5.058  16.257  0.4770 -0.2581 -0.6202
 3657TIP3    H132386   3.093   5.023  16.306 -1.2972  0.1166  2.6330
 3657TIP3    H232387   2.945   5.002  16.281 -0.7898  0.8592 -1.7273
 3658TIP3   OH232388   4.405   1.661   0.859  0.0093 -0.0400 -0.3323
 3658TIP3    H132389   4.356   1.686   0.781  0.7970  1.2795 -0.4416
 3658TIP3    H232390   4.451   1.741   0.885  2.1640 -1.2050 -0.2890
 3659TIP3   OH232391   0.805   2.254   0.950  0.4661  0.1738  0.0953
 3659TIP3    H132392   0.771   2.168   0.927  2.3501 -0.1640 -1.7682
 3659TIP3    H232393   0.727   2.308   0.961 -0.7309 -1.4015 -0.2242
 3660TIP3   OH232394   0.620   0.126   0.545 -0.3690  0.5886 -0.1204
 3660TIP3    H132395   0.620   0.067   0.470  2.4851 -0.8230  0.8736
 3660TIP3    H232396   0.611   0.213   0.506  1.6183 -0.0512 -2.2168
 3661TIP3   OH232397   1.842   1.875  15.795  0.3051 -0.0470 -0.1637
 3661TIP3    H132398   1.747   1.879  15.792  0.1954 -1.7074  0.2082
 3661TIP3    H232399   1.870   1.964  15.773 -1.2871  0.1799 -1.5194
 3662TIP3   OH232400   0.808   0.366   1.365  0.1975 -0.2387  0.0425
 3662TIP3    H132401   0.826   0.456   1.337 -2.1473  0.2129 -0.1933
 3662TIP3    H232402   0.787   0.320   1.284 -0.7655 -0.4299  0.3889
 3663TIP3   OH232403   5.609   3.285   4.562  0.0726 -0.2526 -0.1642
 3663TIP3    H132404   5.693   3.244   4.538 -0.2346 -0.1656 -1.4148
 3663TIP3    H232405   5.561   3.292   4.480 -1.0073  0.0852  0.4781
 3664TIP3   OH232406   3.060   1.633   0.876 -0.6568  0.0925 -0.2048
 3664TIP3    H132407   3.019   1.573   0.938 -0.8247  1.2467  0.8163
 3664TIP3    H232408   2.999   1.706   0.867  0.6153  1.2846  0.4496
 3665TIP3   OH232409   6.664   0.977  15.102  0.3181  0.9340 -0.5128
 3665TIP3    H132410   6.737   1.031  15.073 -0.5102  2.5094  0.2069
 3665TIP3    H232411   6.703   0.891  15.121  1.9989  1.7671 -0.0384
 3666TIP3   OH232412   1.390   5.900   2.649  0.2885 -0.5237 -0.3864
 3666TIP3    H132413   1.345   5.834   2.702 -2.9078  0.7426 -1.2689
 3666TIP3    H232414   1.409   5.971   2.711  0.1638 -0.6755 -0.1699
 3667TIP3   OH232415   3.264   2.004   1.272 -0.2299 -0.4850  0.1964
 3667TIP3    H132416   3.183   2.018   1.322 -0.0030 -2.4212  1.2144
 3667TIP3    H232417   3.287   2.091   1.239 -2.2782  0.2525  0.5638
 3668TIP3   OH232418   2.228   3.271   5.144 -1.6883  0.1470  0.0751
 3668TIP3    H132419   2.279   3.190   5.134  0.1319  1.1278  1.0396
 3668TIP3    H232420   2.159   3.248   5.206 -1.9587 -0.9873 -0.6110
 3669TIP3   OH232421   5.234   0.520   3.635  0.0553 -0.6683  0.0755
 3669TIP3    H132422   5.220   0.561   3.550 -0.0115  0.9434  0.8245
 3669TIP3    H232423   5.301   0.454   3.620 -0.9351 -1.3698 -1.4926
 3670TIP3   OH232424   6.602   6.570  13.214  0.1115 -0.9859 -0.2317
 3670TIP3    H132425   6.629   6.488  13.256 -0.4495 -0.3939  1.3867
 3670TIP3    H232426   6.543   6.611  13.278  0.7674  0.9167 -0.7603
 3671TIP3   OH232427   0.978   5.942   2.131 -0.2129 -0.2820  0.0313
 3671TIP3    H132428   0.981   5.859   2.082  1.2635 -0.3746  0.2295
 3671TIP3    H232429   1.070   5.963   2.148 -0.5462  1.6262 -0.3590
 3672TIP3   OH232430   5.164   2.617   1.769 -0.2112 -0.1605 -0.4055
 3672TIP3    H132431   5.202   2.703   1.783  1.1707 -0.9904  1.3246
 3672TIP3    H232432   5.125   2.594   1.853  0.8066 -1.8377 -0.3483
 3673TIP3   OH232433   1.495   4.994  13.841 -0.0394  0.6076  0.3430
 3673TIP3    H132434   1.416   5.002  13.895 -0.5748 -0.6428 -0.2152
 3673TIP3    H232435   1.543   4.921  13.879  0.5805  1.0085  0.3408
 3674TIP3   OH232436   3.831   3.301  13.292 -0.1577 -0.4012  0.1651
 3674TIP3    H132437   3.761   3.236  13.283 -0.0525 -0.5465  0.3929
 3674TIP3    H232438   3.800   3.376  13.242  0.0959 -0.9281 -0.7916
 3675TIP3   OH232439   3.289   2.714  15.806 -0.2689 -0.0205 -0.0828
 3675TIP3    H132440   3.272   2.654  15.879  2.4282  0.9073  1.4480
 3675TIP3    H232441   3.342   2.662  15.745  0.8975  0.3321  0.5929
 3676TIP3   OH232442   4.741   0.603   3.477  0.2842 -0.4067  1.0314
 3676TIP3    H132443   4.736   0.518   3.433  0.1595 -0.7528  1.7024
 3676TIP3    H232444   4.653   0.640   3.468  0.1596 -0.6358  1.2988
 3677TIP3   OH232445   4.328   3.734  11.820 -0.3883 -0.4846 -0.5804
 3677TIP3    H132446   4.284   3.816  11.844  1.5279  0.4034  0.0932
 3677TIP3    H232447   4.421   3.752  11.832  0.0674 -2.9892  0.2413
 3678TIP3   OH232448   3.119   2.120  12.763 -0.6714 -0.0452 -0.0046
 3678TIP3    H132449   3.136   2.069  12.684  0.1356 -1.2547  0.9131
 3678TIP3    H232450   3.151   2.065  12.834 -2.6197  0.4195  1.2999
 3679TIP3   OH232451   0.725   0.869   2.105 -0.6274 -0.3477 -0.0221
 3679TIP3    H132452   0.673   0.867   2.025  0.1650  0.6326 -0.5836
 3679TIP3    H232453   0.735   0.962   2.124  0.5979 -0.5247  0.2792
 3680TIP3   OH232454   4.312   0.634   5.486 -0.0939 -0.3581 -0.7862
 3680TIP3    H132455   4.269   0.575   5.424 -0.6150  0.0669 -0.8324
 3680TIP3    H232456   4.310   0.719   5.444  2.3697 -0.6198 -1.5666
 3681TIP3   OH232457   4.460   2.868   6.250 -0.2036 -0.6374 -0.0121
 3681TIP3    H132458   4.553   2.871   6.227  0.6780 -0.4854  3.0595
 3681TIP3    H232459   4.450   2.937   6.316 -2.3174 -1.2411  0.3746
 3682TIP3   OH232460   4.595   3.211   2.843  0.0879  0.2976  0.1483
 3682TIP3    H132461   4.507   3.191   2.812  0.3253 -0.6539  0.0722
 3682TIP3    H232462   4.600   3.307   2.839 -1.3347  0.4617  1.2335
 3683TIP3   OH232463   4.488   1.825  12.744  0.1614 -0.2656  0.0628
 3683TIP3    H132464   4.460   1.851  12.656 -1.4330 -0.1438  0.5709
 3683TIP3    H232465   4.406   1.811  12.792  0.9990 -0.6161  1.4487
 3684TIP3   OH232466   0.640   0.214  11.026 -0.2168 -0.5370 -0.8674
 3684TIP3    H132467   0.734   0.210  11.009  0.5513 -0.3817  2.6009
 3684TIP3    H232468   0.611   0.123  11.019  0.6890 -0.9292  0.1648
 3685TIP3   OH232469   0.193   5.625   1.010 -0.1654 -0.4256 -0.4893
 3685TIP3    H132470   0.132   5.575   0.954 -1.7571  0.9770 -0.0690
 3685TIP3    H232471   0.165   5.606   1.099  0.3654 -0.1859 -0.2674
 3686TIP3   OH232472   6.703   2.198   5.470  0.2661  0.2609  0.0293
 3686TIP3    H132473   6.777   2.227   5.416  0.0965  2.2342  0.7617
 3686TIP3    H232474   6.627   2.211   5.414  0.1185  2.0514  0.5668
 3687TIP3   OH232475   6.349   3.659  14.047  0.1850  0.0501 -0.7497
 3687TIP3    H132476   6.419   3.647  14.112 -0.7940 -1.4036  0.1068
 3687TIP3    H232477   6.344   3.575  14.002 -0.5282  0.3826 -1.3039
 3688TIP3   OH232478   2.110   0.476  15.131  0.4499  0.2682 -0.5068
 3688TIP3    H132479   2.189   0.495  15.079  1.0955 -0.5792  0.1321
 3688TIP3    H232480   2.116   0.383  15.150  0.5012  0.6417  1.5116
 3689TIP3   OH232481   5.726   1.059   3.325  0.0511 -0.4182 -0.2285
 3689TIP3    H132482   5.689   1.047   3.238 -0.2777  0.5003 -0.2329
 3689TIP3    H232483   5.815   1.091   3.309  0.1607 -0.7209 -0.2246
 3690TIP3   OH232484   2.212   5.799   5.545  0.4160 -0.6400  0.4199
 3690TIP3    H132485   2.217   5.894   5.556 -0.9241 -0.6643  1.4643
 3690TIP3    H232486   2.238   5.784   5.454 -0.4576  0.8200 -0.1068
 3691TIP3   OH232487   4.744   5.342   4.700  0.4837 -0.5360 -0.1589
 3691TIP3    H132488   4.664   5.295   4.722 -0.3854  0.0858 -1.8623
 3691TIP3    H232489   4.814   5.279   4.718 -0.3089 -0.9287  1.7956
 3692TIP3   OH232490   2.808   3.468  14.400  0.5594  0.4123  0.1553
 3692TIP3    H132491   2.839   3.497  14.315  0.9907 -1.1868 -0.2726
 3692TIP3    H232492   2.822   3.373  14.400 -1.9399 -0.0379  0.9414
 3693TIP3   OH232493   6.101   2.676   4.175  0.2901 -0.2590 -0.6455
 3693TIP3    H132494   6.010   2.664   4.199  0.3304 -0.5320 -0.6327
 3693TIP3    H232495   6.098   2.728   4.094  0.1712  1.3002  0.3237
 3694TIP3   OH232496   2.887   6.000   3.768  0.2749 -0.0842 -0.4300
 3694TIP3    H132497   2.879   5.908   3.743 -1.9926  0.3470 -1.5910
 3694TIP3    H232498   2.970   6.029   3.730  0.6152 -1.4305 -0.7424
 3695TIP3   OH232499   3.615   4.753  10.636 -0.0612  0.6282 -0.4593
 3695TIP3    H132500   3.584   4.840  10.663  0.2417  0.3592  0.8151
 3695TIP3    H232501   3.708   4.767  10.617  0.6359  0.1489  2.1566
 3696TIP3   OH232502   1.208   5.170   3.520 -0.0199  0.3372  0.3620
 3696TIP3    H132503   1.150   5.132   3.454 -1.2040  0.3674  1.3294
 3696TIP3    H232504   1.150   5.189   3.594  1.4167 -0.7632  1.8517
 3697TIP3   OH232505   4.635   4.617   2.198 -0.0213 -0.3064 -0.4434
 3697TIP3    H132506   4.651   4.574   2.283 -0.7871 -0.7307 -0.5080
 3697TIP3    H232507   4.574   4.687   2.219 -1.7525 -1.5973 -0.9171
 3698TIP3   OH232508   4.744   3.997   2.743 -0.0777 -0.3279  0.4654
 3698TIP3    H132509   4.819   3.962   2.791  1.3174  0.4591 -1.0310
 3698TIP3    H232510   4.718   4.075   2.793  0.8710  0.0653  0.3556
 3699TIP3   OH232511   0.371   1.002   4.274  0.4998 -0.4375  0.2354
 3699TIP3    H132512   0.454   0.956   4.260  0.1083 -0.7922 -1.0856
 3699TIP3    H232513   0.396   1.092   4.293  1.2233 -0.8239  1.1943
 3700TIP3   OH232514   3.933   6.059   1.488 -0.2246 -0.7564  0.1593
 3700TIP3    H132515   3.958   6.123   1.554 -0.6769  1.3221 -1.5639
 3700TIP3    H232516   3.875   6.107   1.428 -0.6903 -2.8194 -1.1597
 3701TIP3   OH232517   3.730   4.514  15.173  0.0724  0.3215 -0.7030
 3701TIP3    H132518   3.798   4.581  15.162  0.5044 -0.3102 -2.1207
 3701TIP3    H232519   3.662   4.538  15.111 -1.5081  1.4733  1.3523
 3702TIP3   OH232520   2.878   5.813  10.800 -0.4724 -0.3920 -0.3358
 3702TIP3    H132521   2.861   5.810  10.894 -1.9214 -1.4851 -0.5970
 3702TIP3    H232522   2.934   5.890  10.788  0.1647 -0.5239  1.4655
 3703TIP3   OH232523   0.301   5.016  17.003  0.2501  0.0429  0.2798
 3703TIP3    H132524   0.393   4.999  17.025  0.3318  0.8023  0.5829
 3703TIP3    H232525   0.301   5.027  16.908  0.3778 -0.5144  0.2146
 3704TIP3   OH232526   0.028   2.242   0.589  0.1346  0.1010 -0.0981
 3704TIP3    H132527   0.046   2.226   0.497  1.5927 -1.1446  0.3651
 3704TIP3    H232528  -0.065   2.221   0.599 -0.6205  2.2945 -1.6597
 3705TIP3   OH232529   3.497   0.514   3.006 -0.0209  0.2563 -0.1876
 3705TIP3    H132530   3.433   0.446   3.028 -0.3485  0.7502  0.4084
 3705TIP3    H232531   3.581   0.469   3.011 -0.1736  0.0449  0.9229
 3706TIP3   OH232532   1.714   3.487   2.035  0.3735  0.0258 -0.2129
 3706TIP3    H132533   1.724   3.451   2.123  0.1425  0.1906 -0.1159
 3706TIP3    H232534   1.620   3.484   2.019  0.2397  1.4215  0.1686
 3707TIP3   OH232535   0.883   6.090   0.302  0.2841  0.2188  0.7037
 3707TIP3    H132536   0.920   6.159   0.357  0.1324  0.0988  0.9562
 3707TIP3    H232537   0.954   6.027   0.291  0.8780  1.0745 -0.6719
 3708TIP3   OH232538   2.136   4.595   3.998  0.2748 -0.7388  0.0851
 3708TIP3    H132539   2.083   4.539   3.941 -0.2182 -0.0035 -0.2004
 3708TIP3    H232540   2.174   4.659   3.938  0.5807 -0.5837  0.4451
 3709TIP3   OH232541   6.020   4.924  14.878  0.2913  0.1604  0.2796
 3709TIP3    H132542   5.959   4.968  14.937  0.1218 -0.2502  0.4143
 3709TIP3    H232543   6.047   4.992  14.816  0.2543  0.5225  0.6597
 3710TIP3   OH232544   2.694   2.923  15.780 -0.7175 -0.1086  0.0693
 3710TIP3    H132545   2.604   2.955  15.773 -0.3394  0.9019 -0.2414
 3710TIP3    H232546   2.696   2.845  15.723 -1.1380  0.4336 -0.7031
 3711TIP3   OH232547   0.050   0.874  11.272  0.7110  0.2299 -0.0879
 3711TIP3    H132548   0.030   0.878  11.366 -1.6807  1.1754 -0.5525
 3711TIP3    H232549   0.105   0.951  11.257  1.3476 -0.0813  0.5703
 3712TIP3   OH232550   2.557   3.745   3.409 -0.2499 -0.3854 -0.5434
 3712TIP3    H132551   2.564   3.831   3.367  0.9395  0.0545  0.4805
 3712TIP3    H232552   2.529   3.764   3.498 -2.0792 -1.2558 -0.8915
 3713TIP3   OH232553   1.280   3.777   5.628 -0.3428 -0.8535  0.8957
 3713TIP3    H132554   1.281   3.870   5.604 -2.0915 -0.6482  1.4993
 3713TIP3    H232555   1.352   3.767   5.690 -0.0612  0.0585  0.7285
 3714TIP3   OH232556   1.355   3.576  12.149 -0.7307 -0.1067 -0.2049
 3714TIP3    H132557   1.319   3.497  12.109 -0.2629 -0.7151  0.5212
 3714TIP3    H232558   1.363   3.553  12.242 -0.4231  0.7345 -0.0185
 3715TIP3   OH232559   2.126   5.698  11.404  0.5158 -0.0287  0.1267
 3715TIP3    H132560   2.117   5.699  11.309  2.0497  1.7179 -0.0597
 3715TIP3    H232561   2.043   5.663  11.436  0.7098 -2.6041 -1.8759
 3716TIP3   OH232562   2.478   2.730   5.378  0.5408  0.9471 -0.5286
 3716TIP3    H132563   2.385   2.721   5.360  0.1551  2.1790  0.7330
 3716TIP3    H232564   2.510   2.640   5.384 -0.6723  0.5099 -0.4003
 3717TIP3   OH232565   2.991   4.358   5.568 -0.0824 -0.1020 -0.5285
 3717TIP3    H132566   3.035   4.407   5.498 -0.3837  0.3345 -0.4157
 3717TIP3    H232567   3.046   4.372   5.645 -0.0336 -0.1476 -0.5546
 3718TIP3   OH232568   0.463   1.516  10.728  0.0656 -0.6045 -0.4303
 3718TIP3    H132569   0.409   1.444  10.696 -2.9201  0.5426  1.5902
 3718TIP3    H232570   0.403   1.590  10.735  2.2754  1.2304  0.5723
 3719TIP3   OH232571   4.024   5.560   3.204  0.5693  0.5898 -0.0210
 3719TIP3    H132572   4.045   5.652   3.187  1.0902  0.5281  0.2463
 3719TIP3    H232573   3.930   5.560   3.222  0.3043  0.8724 -1.3078
 3720TIP3   OH232574   3.209   1.738  13.247 -0.0583 -0.6115  0.3898
 3720TIP3    H132575   3.148   1.806  13.274  1.1432  0.5781  0.2316
 3720TIP3    H232576   3.167   1.697  13.172 -0.6012  0.2846  0.1821
 3721TIP3   OH232577   4.435   3.773   0.770 -0.4301  0.2054 -0.0243
 3721TIP3    H132578   4.384   3.773   0.689  0.9342  2.6600 -1.0026
 3721TIP3    H232579   4.472   3.685   0.775  1.3181  0.5527 -3.4187
 3722TIP3   OH232580   6.249   2.814  12.180 -1.0614  0.3587  0.6402
 3722TIP3    H132581   6.304   2.881  12.219 -1.2984  1.1570 -0.3643
 3722TIP3    H232582   6.258   2.827  12.086 -2.0639 -0.2385  0.4473
 3723TIP3   OH232583   5.279   6.189   0.038  0.4925 -0.1922 -0.0547
 3723TIP3    H132584   5.199   6.139   0.054  0.0767  0.2181 -0.7820
 3723TIP3    H232585   5.310   6.158  -0.047  0.2248  0.7895 -0.5170
 3724TIP3   OH232586   5.439   4.038   0.693 -0.4108  0.2180  0.0482
 3724TIP3    H132587   5.506   4.087   0.644 -0.4543  0.3708  0.1405
 3724TIP3    H232588   5.356   4.077   0.665 -0.3393  2.4519  2.4947
 3725TIP3   OH232589   5.345   6.295  16.402  0.4527  0.2194 -0.0062
 3725TIP3    H132590   5.438   6.320  16.403 -0.0179  2.0854  0.1340
 3725TIP3    H232591   5.301   6.367  16.356 -1.1800  0.3599  1.6697
 3726TIP3   OH232592   1.623   6.654  16.975  0.0763  0.0197 -0.0331
 3726TIP3    H132593   1.592   6.582  17.030 -0.6038  0.4425  0.1510
 3726TIP3    H232594   1.566   6.651  16.898 -0.7631  1.1100  0.5308
 3727TIP3   OH232595   1.270   2.315   4.693 -0.1570  0.3698 -0.0075
 3727TIP3    H132596   1.196   2.375   4.699  0.5551  1.3004 -0.3962
 3727TIP3    H232597   1.339   2.355   4.747  0.5060  0.1744 -0.6889
 3728TIP3   OH232598   0.645   2.415  15.061  0.4357 -0.1176  0.1096
 3728TIP3    H132599   0.635   2.406  15.156  0.8031 -1.2212  0.0663
 3728TIP3    H232600   0.663   2.508  15.047 -0.3922  0.1967  1.0437
 3729TIP3   OH232601   6.752   3.544   4.086  0.3584  0.0091  0.0416
 3729TIP3    H132602   6.803   3.496   4.151 -0.4462 -3.0556 -1.4342
 3729TIP3    H232603   6.671   3.567   4.131  0.6067 -0.3083  0.6632
 3730TIP3   OH232604   1.265   6.252  16.452 -0.0203  0.6713  0.4241
 3730TIP3    H132605   1.359   6.261  16.441  0.3336 -0.7517  1.9541
 3730TIP3    H232606   1.236   6.339  16.478  0.9155  1.0489  0.2456
 3731TIP3   OH232607   3.991   4.060  14.472  0.4022 -0.3924  0.4354
 3731TIP3    H132608   3.975   4.141  14.422 -1.0012 -0.1294  1.2533
 3731TIP3    H232609   4.006   3.993  14.405  1.1596  0.4435 -0.2662
 3732TIP3   OH232610   1.191   6.241   6.287 -0.3717  0.5022 -0.0911
 3732TIP3    H132611   1.127   6.310   6.307 -1.4596  0.3756 -2.7824
 3732TIP3    H232612   1.140   6.162   6.277  0.6068 -0.2490  0.5595
 3733TIP3   OH232613   2.378   1.766  12.324  0.6012 -0.1313  0.0226
 3733TIP3    H132614   2.326   1.844  12.342 -1.0766 -1.0948 -0.4525
 3733TIP3    H232615   2.389   1.766  12.229  0.2004 -0.7072 -0.0253
 3734TIP3   OH232616   6.583   2.830  10.873  0.0405 -0.2146  0.2224
 3734TIP3    H132617   6.642   2.877  10.813  0.2459  0.0174  0.6040
 3734TIP3    H232618   6.615   2.852  10.960 -0.9004  0.2871  0.4551
 3735TIP3   OH232619   4.385   3.638  15.452 -0.0731 -0.0471  0.4910
 3735TIP3    H132620   4.402   3.725  15.415  1.9722 -0.3666  0.5484
 3735TIP3    H232621   4.292   3.639  15.475 -0.4833  1.5291 -1.0424
 3736TIP3   OH232622   1.277   0.808   0.457  0.0153 -0.5425  0.2035
 3736TIP3    H132623   1.295   0.852   0.540 -0.8527  1.0128 -0.3931
 3736TIP3    H232624   1.357   0.759   0.438  0.5435 -0.2429  1.5114
 3737TIP3   OH232625   5.102   4.318  15.557 -0.1078  0.1283 -0.1468
 3737TIP3    H132626   5.184   4.354  15.592  0.9132 -1.1930 -1.0510
 3737TIP3    H232627   5.073   4.382  15.493  0.4404  0.4259 -0.1069
 3738TIP3   OH232628   1.356   2.986   0.439  0.5044 -0.4395 -0.0977
 3738TIP3    H132629   1.338   2.963   0.347  0.8169  0.6220 -0.4303
 3738TIP3    H232630   1.269   2.988   0.480  0.4913 -3.1558  0.2144
 3739TIP3   OH232631   5.555   2.000   0.923 -0.3046 -0.3135  0.3829
 3739TIP3    H132632   5.464   2.027   0.912 -0.8222 -2.3420 -0.8222
 3739TIP3    H232633   5.568   1.999   1.018 -1.8817 -0.9827  0.6218
 3740TIP3   OH232634   2.202   0.011  16.042  0.3015  0.0463 -0.1018
 3740TIP3    H132635   2.167   0.013  15.953  0.7851  1.5130 -0.2809
 3740TIP3    H232636   2.231  -0.079  16.054  0.0743 -0.2164 -1.3670
 3741TIP3   OH232637   1.919   5.200   1.937  0.3916 -0.2538 -0.7605
 3741TIP3    H132638   1.884   5.164   1.856 -0.1976 -2.5231  0.4174
 3741TIP3    H232639   2.013   5.180   1.933  0.7350  1.3362 -1.6637
 3742TIP3   OH232640   3.227   2.583   1.976  0.0004  0.1011  0.3293
 3742TIP3    H132641   3.274   2.658   2.013 -0.9966  0.5819  0.6504
 3742TIP3    H232642   3.225   2.599   1.882 -0.4709  0.6323  0.4288
 3743TIP3   OH232643   6.495   0.810  16.145 -0.1922  0.1853 -0.4069
 3743TIP3    H132644   6.570   0.806  16.086 -0.9693  1.1374 -1.5077
 3743TIP3    H232645   6.506   0.893  16.193  0.6487 -0.7686  1.1300
 3744TIP3   OH232646   5.450   3.835  13.543  0.3414 -0.0334  0.2820
 3744TIP3    H132647   5.376   3.808  13.597  0.4927  0.0562  0.5394
 3744TIP3    H232648   5.526   3.826  13.601  0.3655  1.1791  0.4738
 3745TIP3   OH232649   4.752   2.193   4.830  0.3346 -0.4496 -0.3725
 3745TIP3    H132650   4.827   2.194   4.771  0.2024  0.4484 -0.5457
 3745TIP3    H232651   4.783   2.239   4.908  0.3918 -1.3033  0.1176
 3746TIP3   OH232652   6.667   6.313   5.390 -0.3997 -0.4598 -0.1466
 3746TIP3    H132653   6.634   6.294   5.478 -1.7814  1.3012 -0.2437
 3746TIP3    H232654   6.589   6.313   5.335 -0.0431  1.8477 -0.7335
 3747TIP3   OH232655   4.288   0.993  15.336  0.2781  0.1891  0.3461
 3747TIP3    H132656   4.315   1.080  15.365 -1.7741  0.6030  1.1662
 3747TIP3    H232657   4.299   0.937  15.412 -0.0769  0.1189  0.3474
 3748TIP3   OH232658   6.118   3.237  12.356  0.1411  0.2228 -0.2520
 3748TIP3    H132659   6.091   3.302  12.422  2.0309 -0.2259  1.0526
 3748TIP3    H232660   6.093   3.153  12.394  0.0866  0.0244 -0.7216
 3749TIP3   OH232661   6.154   6.668  14.232  0.9197 -0.6644 -0.0706
 3749TIP3    H132662   6.227   6.708  14.185  1.3027  0.3860  1.3475
 3749TIP3    H232663   6.172   6.686  14.324  0.5690 -3.2479  0.5842
 3750TIP3   OH232664   5.268   5.729  11.696  0.1655  0.0960  0.0371
 3750TIP3    H132665   5.302   5.818  11.707  1.0627 -0.1569 -0.6266
 3750TIP3    H232666   5.187   5.741  11.646 -0.9652  0.7318  1.9056
 3751TIP3   OH232667   3.840   5.948  10.825  0.0628 -0.5977  0.5223
 3751TIP3    H132668   3.830   5.957  10.731  0.4422  0.2218  0.5535
 3751TIP3    H232669   3.751   5.954  10.860  0.0573  0.6611  0.3347
 3752TIP3   OH232670   4.686   3.380  16.349 -0.2956 -0.6937  0.0191
 3752TIP3    H132671   4.777   3.408  16.337  0.2642  0.0400  4.2311
 3752TIP3    H232672   4.649   3.444  16.411 -3.0200 -2.1779  0.0988
 3753TIP3   OH232673   5.614   0.345  12.051  0.0672 -0.1074 -0.1245
 3753TIP3    H132674   5.599   0.293  11.972  1.8308 -0.6284 -0.1645
 3753TIP3    H232675   5.614   0.435  12.021  1.1587 -0.3230 -0.8389
 3754TIP3   OH232676   4.009   0.597  16.200  0.6105 -0.2412  0.1891
 3754TIP3    H132677   4.016   0.693  16.192 -0.3854 -0.2415 -1.1922
 3754TIP3    H232678   4.099   0.567  16.213  1.1046  0.8019 -0.6687
 3755TIP3   OH232679   5.320   1.912   2.249 -0.5071 -0.3717 -0.3168
 3755TIP3    H132680   5.407   1.890   2.283  0.5958  2.9570 -0.6763
 3755TIP3    H232681   5.268   1.933   2.326 -0.3563 -0.2968 -0.2359
 3756TIP3   OH232682   0.448   1.844   5.585 -0.3104 -0.8126 -0.4331
 3756TIP3    H132683   0.431   1.923   5.637 -0.2641 -1.3287  0.3864
 3756TIP3    H232684   0.392   1.853   5.509 -2.0324 -1.0470  0.7497
 3757TIP3   OH232685   6.772   4.150  12.587  0.3796  0.6844  0.1066
 3757TIP3    H132686   6.807   4.235  12.560 -2.0209  2.6953  2.7170
 3757TIP3    H232687   6.692   4.140  12.536  0.8582 -0.2555 -0.4808
 3758TIP3   OH232688   3.212   3.170  14.207 -0.0683  0.1888 -0.4145
 3758TIP3    H132689   3.227   3.244  14.265  1.1355 -1.4073  1.4368
 3758TIP3    H232690   3.297   3.153  14.166  0.1185 -1.0951  0.4193
 3759TIP3   OH232691   5.444   1.502   6.614  0.6143 -0.0546  0.0931
 3759TIP3    H132692   5.351   1.477   6.620  0.9370 -1.4901 -0.3107
 3759TIP3    H232693   5.443   1.593   6.587 -0.6763  0.6847  2.3858
 3760TIP3   OH232694   3.593   2.638  10.858  0.3347 -0.0617 -0.7286
 3760TIP3    H132695   3.685   2.649  10.833  0.8274 -1.2949  0.4316
 3760TIP3    H232696   3.579   2.544  10.860 -0.8478  0.0987 -0.4867
 3761TIP3   OH232697   4.859   5.575   4.884 -0.1152  0.0471  0.2544
 3761TIP3    H132698   4.909   5.544   4.808 -1.4181 -0.5199 -0.4067
 3761TIP3    H232699   4.800   5.503   4.904 -0.3992  0.5546  1.2617
 3762TIP3   OH232700   0.144   0.702   0.201 -0.0726 -0.2388 -0.1341
 3762TIP3    H132701   0.194   0.667   0.275  0.2009 -0.2913 -0.3449
 3762TIP3    H232702   0.053   0.703   0.232 -0.5057 -3.4174 -0.9221
 3763TIP3   OH232703   4.520   6.424   2.220  0.0956  0.5265 -0.1571
 3763TIP3    H132704   4.442   6.478   2.207 -1.0911 -1.0746 -0.0263
 3763TIP3    H232705   4.544   6.394   2.132 -0.6868 -0.5854 -0.0249
 3764TIP3   OH232706   0.666   1.658  11.629  0.6442 -0.3788  0.2682
 3764TIP3    H132707   0.725   1.734  11.628  0.0632  0.0769 -0.7731
 3764TIP3    H232708   0.685   1.612  11.547 -0.8788  0.1342 -0.4071
 3765TIP3   OH232709   3.324   5.419   0.045  0.0780 -0.0673  0.5065
 3765TIP3    H132710   3.333   5.324   0.048  0.2386 -0.0214  2.6921
 3765TIP3    H232711   3.364   5.450   0.126 -0.3017  1.8481  0.0139
 3766TIP3   OH232712   0.933   4.912   1.169 -0.0253  0.2663  0.1844
 3766TIP3    H132713   0.958   4.947   1.254 -0.4236  0.2256  0.3196
 3766TIP3    H232714   0.941   4.986   1.109 -1.7042  0.8546  0.6162
 3767TIP3   OH232715   4.673   1.771  17.062  0.1029  0.1585  0.5245
 3767TIP3    H132716   4.676   1.675  17.059  1.1735  0.0571  2.5782
 3767TIP3    H232717   4.765   1.797  17.058 -0.1724  1.1022  0.2369
 3768TIP3   OH232718   0.268   3.399  13.703  0.0112  0.0052 -0.2958
 3768TIP3    H132719   0.211   3.368  13.774 -1.0186 -0.7632 -1.4219
 3768TIP3    H232720   0.237   3.487  13.684  0.6630  0.4353  0.5703
 3769TIP3   OH232721   4.479   2.480  14.343  0.1763  0.5137  0.1049
 3769TIP3    H132722   4.513   2.474  14.253  1.6672 -0.0850  0.6818
 3769TIP3    H232723   4.397   2.430  14.340 -0.3603  1.4091 -1.1627
 3770TIP3   OH232724   4.036   1.773  14.386  0.0701 -0.0187 -0.2395
 3770TIP3    H132725   3.958   1.724  14.411  0.7706 -0.3972  1.3377
 3770TIP3    H232726   4.003   1.856  14.353 -1.0073  0.5627  2.0843
 3771TIP3   OH232727   3.442   1.251  17.253  0.2086 -0.0165 -0.1953
 3771TIP3    H132728   3.351   1.277  17.267  0.3683  0.3666  0.1547
 3771TIP3    H232729   3.492   1.306  17.314  0.6974 -0.0415 -0.5706
 3772TIP3   OH232730   0.652   0.444   1.718  0.0048 -0.1730  0.2545
 3772TIP3    H132731   0.636   0.412   1.629 -0.4210  0.7562 -0.0107
 3772TIP3    H232732   0.572   0.491   1.741  1.5973  3.1077 -0.4162
 3773TIP3   OH232733   1.571   1.159   4.844 -0.0961  0.1670 -0.4691
 3773TIP3    H132734   1.508   1.134   4.776 -0.0058 -0.8538 -0.1850
 3773TIP3    H232735   1.634   1.087   4.847  0.7167  0.8681 -0.2817
 3774TIP3   OH232736   1.311   5.357   5.545 -0.1834 -0.4892  0.0637
 3774TIP3    H132737   1.339   5.448   5.541 -0.5027 -0.3542  0.8389
 3774TIP3    H232738   1.216   5.359   5.533 -0.0532 -0.8397 -1.2239
 3775TIP3   OH232739   2.656   1.273   5.438  0.3640  0.2583 -0.1888
 3775TIP3    H132740   2.745   1.305   5.455  0.7098 -0.7968  0.1358
 3775TIP3    H232741   2.602   1.314   5.505  0.9575 -0.5055  0.7950
 3776TIP3   OH232742   2.441   3.866  15.189 -0.3592 -0.1424 -0.0327
 3776TIP3    H132743   2.441   3.781  15.145 -1.3821  0.4132 -1.1794
 3776TIP3    H232744   2.354   3.903  15.170 -0.1441  0.9120  0.9248
 3777TIP3   OH232745   2.539   2.027   4.643  0.1628 -1.2440 -0.1740
 3777TIP3    H132746   2.574   1.971   4.574 -1.5665 -2.7142  0.0661
 3777TIP3    H232747   2.448   2.044   4.616  0.0787 -0.1283  0.7310
 3778TIP3   OH232748   0.816   3.265   4.993  0.3567 -0.5926  0.5770
 3778TIP3    H132749   0.748   3.253   4.926 -0.3006  1.5198  0.7832
 3778TIP3    H232750   0.896   3.279   4.942  0.0297  0.0699  0.2181
 3779TIP3   OH232751   1.606   2.728  11.240 -0.6997  0.0570  0.3666
 3779TIP3    H132752   1.536   2.759  11.298  0.2595  1.8709  0.6378
 3779TIP3    H232753   1.597   2.782  11.162  0.8073  0.8213  0.6923
 3780TIP3   OH232754   0.450   0.589   4.990  0.5304  0.5338 -0.1708
 3780TIP3    H132755   0.430   0.522   4.926  2.6229 -2.0110  1.6420
 3780TIP3    H232756   0.504   0.653   4.943 -1.2900  0.9140 -1.8606
 3781TIP3   OH232757   1.755   6.305  13.180  0.2780  0.0568 -0.4909
 3781TIP3    H132758   1.848   6.299  13.200  0.0565 -3.0196  0.0762
 3781TIP3    H232759   1.751   6.355  13.098  2.2843  1.2890  0.0965
 3782TIP3   OH232760   1.163   3.056  13.209  0.1080  0.0315  0.0746
 3782TIP3    H132761   1.142   3.109  13.132 -0.6944  1.2600  1.0989
 3782TIP3    H232762   1.216   3.113  13.264  0.2580 -0.6568  0.6549
 3783TIP3   OH232763   3.340   2.258   1.277  0.6067  0.3325  0.3923
 3783TIP3    H132764   3.371   2.306   1.353 -0.9596  0.1505  1.1907
 3783TIP3    H232765   3.279   2.318   1.233  1.6958  0.5445 -0.9205
 3784TIP3   OH232766   2.695   4.855  11.662 -0.3457 -0.3330  0.9516
 3784TIP3    H132767   2.639   4.932  11.652 -1.9338 -1.6224 -0.9433
 3784TIP3    H232768   2.651   4.802  11.728  0.0678 -0.2053  1.3374
 3785TIP3   OH232769   2.633   5.993   4.166 -0.2290  0.4480  0.6940
 3785TIP3    H132770   2.569   5.939   4.211 -0.7279  1.4986  1.2852
 3785TIP3    H232771   2.667   5.938   4.096 -1.3028 -0.3442  0.7876
 3786TIP3   OH232772   4.364   5.047  10.900  0.2668 -0.7686  0.0056
 3786TIP3    H132773   4.292   5.109  10.886 -0.6890 -1.9158 -0.3980
 3786TIP3    H232774   4.443   5.096  10.879 -0.6505 -0.6570 -3.9016
 3787TIP3   OH232775   3.465   6.314  11.306 -0.3905  0.9745 -0.2183
 3787TIP3    H132776   3.532   6.373  11.272 -0.2017  0.2083 -1.2379
 3787TIP3    H232777   3.430   6.358  11.383  1.2838  1.4030  0.3420
 3788TIP3   OH232778   5.555   2.090  11.925 -0.5035 -0.0579 -0.1634
 3788TIP3    H132779   5.644   2.092  11.962 -0.6398 -0.0843  0.1655
 3788TIP3    H232780   5.564   2.133  11.840  0.1545 -1.4113 -0.8305
 3789TIP3   OH232781   3.401   6.046   0.003 -0.2870  1.1814  0.2385
 3789TIP3    H132782   3.431   6.086  -0.079  2.7763  0.4787  0.8841
 3789TIP3    H232783   3.439   6.101   0.071  0.4821 -0.3992  1.1356
 3790TIP3   OH232784   5.616   2.970   3.574  0.2723  0.6613  0.2905
 3790TIP3    H132785   5.699   2.924   3.564 -0.5485 -0.7718 -0.2349
 3790TIP3    H232786   5.633   3.058   3.540  1.6321  0.4787  0.4419
 3791TIP3   OH232787   1.888   4.349  16.084 -0.2817 -0.6826  0.0992
 3791TIP3    H132788   1.860   4.418  16.024 -0.2597 -0.2966  0.5295
 3791TIP3    H232789   1.939   4.394  16.150 -0.7756 -1.0215  0.7244
 3792TIP3   OH232790   2.456   2.499  14.382 -0.4925 -0.0922 -0.1506
 3792TIP3    H132791   2.435   2.406  14.383  2.9086 -1.0117  1.2525
 3792TIP3    H232792   2.418   2.534  14.463 -1.8882 -0.1802 -0.7452
 3793TIP3   OH232793   2.726   3.803   5.394  0.2158 -0.6849  0.3962
 3793TIP3    H132794   2.738   3.889   5.435  0.7253 -0.0320 -1.0190
 3793TIP3    H232795   2.662   3.820   5.324 -1.3323 -1.9486  1.4439
 3794TIP3   OH232796   6.671   1.404  15.039  0.4172 -0.0860  0.1864
 3794TIP3    H132797   6.616   1.388  14.963 -0.2396 -0.9942  0.8238
 3794TIP3    H232798   6.636   1.484  15.078  1.1722  0.7521 -0.8072
 3795TIP3   OH232799   5.985   0.789  13.656 -0.1556  0.0367 -0.1004
 3795TIP3    H132800   5.949   0.766  13.571  0.0296  0.0823 -0.1909
 3795TIP3    H232801   6.033   0.711  13.684  0.7142  0.4036 -0.5379
 3796TIP3   OH232802   0.575   2.673   1.756  0.4549 -0.1467 -0.2609
 3796TIP3    H132803   0.632   2.750   1.761 -0.9243  0.9411 -0.3260
 3796TIP3    H232804   0.541   2.675   1.666 -1.2306  0.4502  0.3497
 3797TIP3   OH232805   5.312   3.728   2.980  0.5203 -0.0864  0.1632
 3797TIP3    H132806   5.401   3.744   3.011  0.8347  0.9130 -1.1333
 3797TIP3    H232807   5.261   3.802   3.014 -0.2164 -1.4912  2.2649
 3798TIP3   OH232808   4.316   4.004  14.009  0.0892  0.6288  0.0190
 3798TIP3    H132809   4.244   4.064  13.991 -1.0607 -0.9017 -0.6273
 3798TIP3    H232810   4.381   4.023  13.942 -0.8046  0.3259 -0.9520
 3799TIP3   OH232811   5.251   5.661   0.592 -0.1167 -0.3930  0.1707
 3799TIP3    H132812   5.246   5.621   0.505  0.4629  1.1008 -0.5897
 3799TIP3    H232813   5.259   5.755   0.574 -1.4424  0.0945  1.8622
 3800TIP3   OH232814   2.610   4.016  10.984 -0.0807 -0.2220 -0.8468
 3800TIP3    H132815   2.623   3.982  11.073  2.4120 -1.7125 -1.6888
 3800TIP3    H232816   2.516   4.004  10.967 -0.6296  0.1548  1.5494
 3801TIP3   OH232817   4.190   1.581  10.516 -0.1162 -0.4881  0.2207
 3801TIP3    H132818   4.098   1.588  10.542  0.3035 -0.2727  1.7230
 3801TIP3    H232819   4.231   1.660  10.552  0.1738  0.9206 -2.8198
 3802TIP3   OH232820   3.993   5.695   0.680 -0.0503 -0.1278  0.6847
 3802TIP3    H132821   3.902   5.706   0.706 -0.3072  0.2013 -0.3041
 3802TIP3    H232822   4.010   5.601   0.691 -1.0789 -0.5294 -0.8400
 3803TIP3   OH232823   4.825   5.715  11.904  0.2308 -0.5409 -0.0253
 3803TIP3    H132824   4.808   5.751  11.991 -1.6384  0.4662 -0.7477
 3803TIP3    H232825   4.885   5.778  11.864  0.0251 -0.2841  0.0683
 3804TIP3   OH232826   5.863   5.568   0.633  0.4006  0.4928  0.1403
 3804TIP3    H132827   5.873   5.524   0.549  1.1421  1.1624 -0.1331
 3804TIP3    H232828   5.931   5.528   0.689 -0.4826 -0.3845  0.6245
 3805TIP3   OH232829   5.663   3.799  17.194 -0.0794 -0.0188 -0.2686
 3805TIP3    H132830   5.586   3.773  17.142 -1.2075  1.4858  0.5701
 3805TIP3    H232831   5.654   3.752  17.276 -0.3920  0.5385  0.0232
 3806TIP3   OH232832   6.453   3.035  15.633  0.5101  0.0429  0.3024
 3806TIP3    H132833   6.515   2.963  15.619  1.1260  0.8094 -1.1315
 3806TIP3    H232834   6.377   3.012  15.580  0.2581 -0.0499  0.6944
 3807TIP3   OH232835   4.268   4.544  17.209 -0.0449  0.3044  0.5539
 3807TIP3    H132836   4.245   4.600  17.134  1.6099  0.7659  0.3593
 3807TIP3    H232837   4.216   4.579  17.282 -1.6892 -0.1553 -0.3368
 3808TIP3   OH232838   1.420   2.557  16.557 -0.0922 -0.1910 -0.0988
 3808TIP3    H132839   1.448   2.614  16.629 -0.2311 -0.4203  0.1391
 3808TIP3    H232840   1.456   2.598  16.479 -1.8575  1.3562 -0.1728
 3809TIP3   OH232841   2.422   5.167   5.532 -1.1510 -0.1471 -0.3540
 3809TIP3    H132842   2.400   5.178   5.625 -0.4457 -0.1529 -0.1831
 3809TIP3    H232843   2.352   5.111   5.498 -1.5040 -0.0150  0.1337
 3810TIP3   OH232844   2.624   0.788   0.843  0.7267  0.3657  0.3986
 3810TIP3    H132845   2.596   0.728   0.774  2.3277  1.3048 -1.1564
 3810TIP3    H232846   2.711   0.757   0.869  1.0236  1.2307  0.4987
 3811TIP3   OH232847   6.363   1.845  14.361  0.3445  0.1055 -0.6883
 3811TIP3    H132848   6.400   1.838  14.449 -0.6049  1.6869 -0.1340
 3811TIP3    H232849   6.412   1.915  14.319  0.4512 -0.3018 -1.2658
 3812TIP3   OH232850   4.003   4.923   0.334 -0.6337  0.6528  0.0892
 3812TIP3    H132851   3.933   4.986   0.352  0.1948  1.5600  0.2127
 3812TIP3    H232852   4.044   4.907   0.419  0.3928  1.4648 -0.2293
 3813TIP3   OH232853   0.076   3.161   3.760  0.3148  0.6887  0.6659
 3813TIP3    H132854   0.096   3.250   3.788  0.7202  0.6765  0.4166
 3813TIP3    H232855   0.049   3.116   3.841  0.7979  0.8435  0.9182
 3814TIP3   OH232856   0.375   4.079  11.526 -0.1518 -0.6349  0.3395
 3814TIP3    H132857   0.303   4.053  11.583 -0.0468 -2.5989 -0.3283
 3814TIP3    H232858   0.454   4.056  11.575 -0.0536 -1.3061 -0.1043
 3815TIP3   OH232859   3.227   5.451  13.014 -0.4023 -0.2124 -0.1922
 3815TIP3    H132860   3.242   5.492  13.099 -1.0314 -1.5896  0.6030
 3815TIP3    H232861   3.175   5.516  12.966  3.1665  2.3411 -1.0816
 3816TIP3   OH232862   2.125   0.249  12.523  1.1009  0.2183  0.3291
 3816TIP3    H132863   2.049   0.274  12.472  0.6857 -1.2802  0.1510
 3816TIP3    H232864   2.185   0.210  12.460  1.4298  0.1478  0.6790
 3817TIP3   OH232865   1.104   0.449  16.498 -0.1067  0.7962  0.8358
 3817TIP3    H132866   1.099   0.367  16.450  0.9664  1.7660 -1.0479
 3817TIP3    H232867   1.147   0.426  16.581 -0.2454 -0.6055  0.5440
 3818TIP3   OH232868   0.512   3.230   3.061  0.0375 -0.2531 -0.3902
 3818TIP3    H132869   0.505   3.228   2.965  0.5093  2.1339 -0.5291
 3818TIP3    H232870   0.464   3.309   3.086 -0.8142 -1.3034  1.4481
 3819TIP3   OH232871   6.256   6.395  12.280 -0.1404  0.6261 -0.5025
 3819TIP3    H132872   6.173   6.411  12.325 -0.4570  2.0580 -1.5243
 3819TIP3    H232873   6.249   6.444  12.198  1.6401  0.6281 -0.6991
 3820TIP3   OH232874   2.909   0.932   2.525 -0.2171  0.1525 -0.3895
 3820TIP3    H132875   2.959   1.007   2.556 -2.9224  2.2398 -0.7761
 3820TIP3    H232876   2.953   0.905   2.444  2.1506 -0.2669  0.9329
 3821TIP3   OH232877   4.436   4.082  16.414 -0.4871 -0.3124  0.3944
 3821TIP3    H132878   4.399   4.143  16.351  1.0284 -2.5037 -2.9348
 3821TIP3    H232879   4.522   4.119  16.435 -0.4455 -0.2224  0.0762
 3822TIP3   OH232880   5.827   4.590  14.763  0.1660 -0.1455  0.2663
 3822TIP3    H132881   5.852   4.614  14.853  3.7644  2.9838 -1.2963
 3822TIP3    H232882   5.741   4.632  14.752 -0.6782 -1.1470  2.3501
 3823TIP3   OH232883   1.352   2.341  13.539 -0.0406 -0.3056 -0.4913
 3823TIP3    H132884   1.423   2.404  13.526 -1.0742  1.4837  1.8318
 3823TIP3    H232885   1.393   2.267  13.583  0.3584  0.9611  1.3756
 3824TIP3   OH232886   5.222   3.877   5.414  0.2815 -0.2516  0.4270
 3824TIP3    H132887   5.154   3.845   5.473  1.7475 -2.6051  0.9401
 3824TIP3    H232888   5.287   3.918   5.472  0.2712  0.2086  0.1220
 3825TIP3   OH232889   3.057   2.391  14.637 -0.1441  0.1029 -0.0160
 3825TIP3    H132890   2.968   2.414  14.612 -0.0763 -0.6381 -1.0064
 3825TIP3    H232891   3.047   2.332  14.712 -0.4118  1.0488  0.7243
 3826TIP3   OH232892   0.863   2.392   2.598 -0.2580  0.5459  0.1892
 3826TIP3    H132893   0.929   2.453   2.630 -0.3872  0.5407  0.4673
 3826TIP3    H232894   0.913   2.317   2.567 -0.1516  0.3408  0.8387
 3827TIP3   OH232895   1.759   4.640   1.600  0.5449 -0.3113  0.0129
 3827TIP3    H132896   1.809   4.589   1.663  0.2680  0.5040  0.9103
 3827TIP3    H232897   1.682   4.585   1.581  0.5675 -0.5086  0.4804
 3828TIP3   OH232898   4.508   3.820  14.833 -0.6047 -0.6087 -0.0940
 3828TIP3    H132899   4.528   3.807  14.741 -0.9346  2.0308 -0.6186
 3828TIP3    H232900   4.444   3.752  14.854  0.5279 -2.1406 -1.3813
 3829TIP3   OH232901   3.716   6.524   6.221 -0.0840  0.3100  0.3667
 3829TIP3    H132902   3.720   6.555   6.311 -0.1493  0.2060  0.4054
 3829TIP3    H232903   3.652   6.453   6.223  2.2195 -1.9308  0.9108
 3830TIP3   OH232904   6.390   3.973   4.354 -0.8061 -0.3444 -0.0822
 3830TIP3    H132905   6.429   3.888   4.376 -1.5684 -0.6940 -0.0681
 3830TIP3    H232906   6.452   4.011   4.291 -0.0500 -0.5566  0.5212
 3831TIP3   OH232907   5.504   2.211  14.675  0.5068 -0.2949  0.3240
 3831TIP3    H132908   5.548   2.270  14.736 -0.1287 -0.8254  1.3111
 3831TIP3    H232909   5.457   2.270  14.616 -0.9404  0.2134  1.9093
 3832TIP3   OH232910   4.643   0.077   3.495  0.6967 -0.2579 -0.2697
 3832TIP3    H132911   4.584   0.149   3.472 -1.9375 -1.8976  0.9073
 3832TIP3    H232912   4.686   0.105   3.575 -1.5429 -0.5446  1.1137
 3833TIP3   OH232913   3.593   5.901   1.106 -0.2669  0.6882  0.2590
 3833TIP3    H132914   3.666   5.844   1.129 -2.1669 -1.1385  2.1927
 3833TIP3    H232915   3.589   5.898   1.011  2.1335  0.9075  0.0714
 3834TIP3   OH232916   3.355   4.500   4.142 -0.0615 -0.0203 -0.0217
 3834TIP3    H132917   3.383   4.480   4.053  0.2075 -1.4786  0.3660
 3834TIP3    H232918   3.259   4.490   4.139  0.0280 -1.0865  0.0623
 3835TIP3   OH232919   1.148   2.116   5.321 -0.2898 -0.9993  0.3717
 3835TIP3    H132920   1.058   2.121   5.289  0.2742  0.0959 -1.2160
 3835TIP3    H232921   1.173   2.025   5.308 -0.3885 -0.7885 -1.6334
 3836TIP3   OH232922   3.731   4.464  15.859  0.4026  0.1373 -0.4574
 3836TIP3    H132923   3.742   4.432  15.770  1.2353  0.5832 -0.5245
 3836TIP3    H232924   3.729   4.559  15.850 -0.8432  0.1563 -0.1348
 3837TIP3   OH232925   4.012   4.744  16.036 -0.3267  0.4647 -0.5486
 3837TIP3    H132926   4.094   4.711  15.999 -0.2228  1.4917 -1.2800
 3837TIP3    H232927   4.038   4.786  16.118 -0.4975 -1.4429  0.5308
 3838TIP3   OH232928   3.749   2.114   0.486  0.1095 -0.1792  0.2558
 3838TIP3    H132929   3.823   2.174   0.488 -0.2299  0.2212  0.6784
 3838TIP3    H232930   3.764   2.054   0.559 -0.7118  0.7776  1.2417
 3839TIP3   OH232931   3.161   2.465  12.620  0.1389 -0.0107  0.5313
 3839TIP3    H132932   3.094   2.399  12.604  0.6846 -0.5929  0.6190
 3839TIP3    H232933   3.131   2.541  12.569  0.1219 -0.7213 -0.5659
 3840TIP3   OH232934   5.259   6.654   4.694 -0.9735  0.1117 -0.2556
 3840TIP3    H132935   5.225   6.673   4.607  2.6870 -0.6265 -2.0583
 3840TIP3    H232936   5.321   6.582   4.680 -0.0301  0.1547  2.9235
 3841TIP3   OH232937   2.784   0.302   4.859 -0.3501  0.1599 -0.6813
 3841TIP3    H132938   2.763   0.253   4.939  0.5481  0.3515 -0.3074
 3841TIP3    H232939   2.724   0.268   4.793 -1.1036 -0.0094  0.0741
 3842TIP3   OH232940   5.495   0.668  16.234  0.8767 -0.2800  0.3996
 3842TIP3    H132941   5.480   0.762  16.223 -0.5247 -0.5969 -0.5583
 3842TIP3    H232942   5.573   0.650  16.181  0.0744  0.0447 -0.9496
 3843TIP3   OH232943   1.367   6.742  14.932 -0.6343  0.5003  0.9340
 3843TIP3    H132944   1.383   6.654  14.897  1.6693  0.8317  0.9469
 3843TIP3    H232945   1.296   6.777  14.879  0.0067 -0.5407 -0.6830
 3844TIP3   OH232946   0.394   5.950  12.198  0.2394  0.1520 -0.0997
 3844TIP3    H132947   0.383   5.992  12.284  1.2043 -1.4950  0.8839
 3844TIP3    H232948   0.326   5.988  12.144  0.3730  2.1583  1.0400
 3845TIP3   OH232949   5.554   4.318   2.340  0.2369  0.0490 -0.0257
 3845TIP3    H132950   5.635   4.357   2.306 -1.3322  2.1449 -1.6357
 3845TIP3    H232951   5.519   4.268   2.266 -0.0321 -0.7107  0.6095
 3846TIP3   OH232952   1.352   1.473  14.118 -0.1155 -0.5222  0.2399
 3846TIP3    H132953   1.384   1.423  14.192  3.3075 -0.8378 -1.2426
 3846TIP3    H232954   1.285   1.418  14.078  0.0673 -1.6400  1.4358
 3847TIP3   OH232955   5.983   4.040  14.641  0.3574 -0.4719  0.1950
 3847TIP3    H132956   5.892   4.036  14.670  0.4524 -0.7039  0.4689
 3847TIP3    H232957   5.999   4.132  14.623 -0.2670 -0.5556 -0.9280
 3848TIP3   OH232958   1.725   2.834   6.016 -0.7382 -0.4582 -0.0887
 3848TIP3    H132959   1.747   2.871   6.102  0.9348 -1.8283  0.1462
 3848TIP3    H232960   1.679   2.753   6.036  0.0116 -0.9873 -0.4533
 3849TIP3   OH232961   3.382   3.348   4.393  0.0516 -0.0725  0.7972
 3849TIP3    H132962   3.314   3.292   4.354 -0.2327  0.6982  0.1779
 3849TIP3    H232963   3.410   3.405   4.322  0.9269  0.0241  1.2156
 3850TIP3   OH232964   1.218   1.892  11.844 -0.6639 -0.2750  0.4308
 3850TIP3    H132965   1.303   1.929  11.818 -0.9887  0.3876  0.2960
 3850TIP3    H232966   1.238   1.838  11.920 -0.0903 -0.2557  0.3016
 3851TIP3   OH232967   6.092   5.513   5.234 -0.8734  0.2216  0.2162
 3851TIP3    H132968   6.029   5.524   5.305 -3.2851  3.0975 -2.1282
 3851TIP3    H232969   6.064   5.433   5.189 -0.7659 -0.3191  1.0879
 3852TIP3   OH232970   0.930   0.635  16.920  0.2510 -0.1639  0.5135
 3852TIP3    H132971   1.009   0.680  16.890 -1.2619  0.8470 -2.3012
 3852TIP3    H232972   0.886   0.699  16.975  1.0076 -0.5068  1.5682
 3853TIP3   OH232973   0.018   2.690   0.225 -0.0447 -0.1409 -0.0217
 3853TIP3    H132974  -0.039   2.746   0.278  1.2811  1.1839  0.0937
 3853TIP3    H232975  -0.014   2.602   0.239 -0.7846  0.3635  1.6446
 3854TIP3   OH232976   0.057   6.152  13.678 -0.5840  0.1329  0.2080
 3854TIP3    H132977   0.046   6.160  13.772  0.8270  1.5362  0.2809
 3854TIP3    H232978  -0.030   6.127  13.646 -1.4748  1.1520  1.7071
 3855TIP3   OH232979   0.651   3.285  11.896  0.0153  0.4099 -0.6254
 3855TIP3    H132980   0.579   3.348  11.910 -0.7228 -0.4077 -0.6722
 3855TIP3    H232981   0.729   3.340  11.890 -0.3957  1.2324  0.9002
 3856TIP3   OH232982   2.775   6.286  13.999 -0.4430 -0.1744 -0.1503
 3856TIP3    H132983   2.731   6.207  14.030 -1.6847 -0.0805 -1.5408
 3856TIP3    H232984   2.751   6.292  13.906 -0.4341  1.8627 -0.0778
 3857TIP3   OH232985   6.723   6.227   6.334  0.5707  0.1751  0.1944
 3857TIP3    H132986   6.743   6.143   6.376  1.9222  0.9584  1.1744
 3857TIP3    H232987   6.801   6.246   6.282  0.5699  1.1796  0.5555
 3858TIP3   OH232988   3.461   5.915  15.327  0.2426  0.3336 -0.3994
 3858TIP3    H132989   3.511   5.980  15.276 -2.5457  1.5820 -1.7752
 3858TIP3    H232990   3.374   5.953  15.334 -1.0196 -2.4812  0.3711
 3859TIP3   OH232991   0.879   0.437   0.693  0.0610  0.0636  0.4971
 3859TIP3    H132992   0.960   0.485   0.673 -0.2538 -0.6689 -3.2113
 3859TIP3    H232993   0.908   0.356   0.734  1.4277 -0.7443 -1.8853
 3860TIP3   OH232994   1.500   2.780  14.150 -0.9285  0.0197 -0.0699
 3860TIP3    H132995   1.488   2.839  14.075 -1.7627  2.1901  1.6274
 3860TIP3    H232996   1.589   2.748  14.142 -0.6351  1.0857 -1.4188
 3861TIP3   OH232997   0.621   5.666  10.622  0.7954  0.0213  0.4788
 3861TIP3    H132998   0.701   5.628  10.585  0.1790  0.7360 -1.6841
 3861TIP3    H232999   0.591   5.600  10.685  1.3310 -1.7591 -1.0376
 3862TIP3   OH233000   2.739   1.261  13.602 -0.6154 -0.2308  0.2237
 3862TIP3    H133001   2.745   1.234  13.510  0.4035  0.9002 -0.0708
 3862TIP3    H233002   2.815   1.221  13.644 -0.1790  0.5615  0.2089
 3863TIP3   OH233003   3.829   0.824  15.367  0.6159 -0.4794  0.3966
 3863TIP3    H133004   3.766   0.891  15.391 -0.6551 -1.3821 -0.2830
 3863TIP3    H233005   3.795   0.786  15.286  1.9289 -1.1393  0.1140
 3864TIP3   OH233006   0.526   1.458   4.079  0.0941  0.1509  0.6500
 3864TIP3    H133007   0.466   1.502   4.018 -0.0510 -1.6876 -0.6283
 3864TIP3    H233008   0.612   1.497   4.060 -0.3395  1.2939  0.9859
 3865TIP3   OH233009   2.945   2.921   4.019  0.2139 -0.5650  0.6751
 3865TIP3    H133010   2.941   2.869   3.939  2.5971  0.7102 -0.3916
 3865TIP3    H233011   2.893   2.873   4.083 -1.3273 -1.8945 -1.4863
 3866TIP3   OH233012   4.498   4.299   6.190 -0.0238 -0.4136 -0.4643
 3866TIP3    H133013   4.508   4.327   6.281  0.5889  0.9048 -0.9230
 3866TIP3    H233014   4.416   4.250   6.189 -0.8703  0.9206  0.4834
 3867TIP3   OH233015   2.626   2.719   0.563  0.1200  0.0927 -0.0019
 3867TIP3    H133016   2.602   2.682   0.478 -2.4111 -0.0921  0.7325
 3867TIP3    H233017   2.684   2.653   0.602  0.4057 -0.3302 -1.0897
 3868TIP3   OH233018   3.918   2.305  13.990  0.2138  0.4380 -0.2623
 3868TIP3    H133019   3.908   2.330  14.082  0.8662 -1.5378  0.3934
 3868TIP3    H233020   3.996   2.352  13.961 -0.3364  1.5390 -0.0045
 3869TIP3   OH233021   1.908   0.821   1.398  0.2438  0.0447 -0.0050
 3869TIP3    H133022   1.969   0.761   1.356 -1.0687 -0.3437 -1.4775
 3869TIP3    H233023   1.832   0.766   1.420 -1.5817  1.2719 -2.6519
 3870TIP3   OH233024   0.618   2.871  13.849 -0.1549  0.4087  0.7108
 3870TIP3    H133025   0.663   2.790  13.875 -1.3900 -0.4032  0.4308
 3870TIP3    H233026   0.655   2.938  13.906  0.8218 -0.3732  1.0352
 3871TIP3   OH233027   4.416   5.756   0.902  0.5567  0.3847  0.3587
 3871TIP3    H133028   4.419   5.678   0.958  1.6767  1.9533  2.6668
 3871TIP3    H233029   4.507   5.784   0.896  0.1305  1.7570 -0.0372
 3872TIP3   OH233030   3.104   3.176   1.688 -0.0141  0.3757  0.9919
 3872TIP3    H133031   3.149   3.215   1.613 -0.5662  0.6708  0.8167
 3872TIP3    H233032   3.164   3.190   1.761  0.9660 -0.7292  0.4554
 3873TIP3   OH233033   4.023   3.747  10.445 -0.2625  0.1419  0.2092
 3873TIP3    H133034   3.956   3.778  10.506 -0.2814  0.9216 -0.1951
 3873TIP3    H233035   3.990   3.771  10.359  0.3662  0.2135 -0.0193
 3874TIP3   OH233036   1.178   0.408   1.427  0.0296 -0.2831  0.0865
 3874TIP3    H133037   1.260   0.383   1.468  0.1483  0.5272  0.3619
 3874TIP3    H233038   1.129   0.452   1.496 -1.3164 -2.1333  0.3896
 3875TIP3   OH233039   5.399   5.041   2.950  0.4323  0.2544  0.0303
 3875TIP3    H133040   5.449   5.109   2.995  1.6933 -0.1030 -0.7675
 3875TIP3    H233041   5.330   5.016   3.012 -0.4311  2.6238  0.1273
 3876TIP3   OH233042   6.005   1.703  15.490 -0.2102  0.0037 -0.4816
 3876TIP3    H133043   5.961   1.785  15.470 -1.5480 -1.2203 -3.0554
 3876TIP3    H233044   6.045   1.717  15.576 -1.7995  2.7289 -0.0822
 3877TIP3   OH233045   4.244   4.645   1.654  0.3514 -0.2720  0.9997
 3877TIP3    H133046   4.241   4.612   1.744 -0.7920 -2.4569  0.2264
 3877TIP3    H233047   4.210   4.573   1.601  1.5747  0.7267 -1.2695
 3878TIP3   OH233048   3.471   0.919   2.439 -0.1692 -0.3989 -0.4174
 3878TIP3    H133049   3.558   0.935   2.402 -0.9992  0.8518 -1.9439
 3878TIP3    H233050   3.484   0.924   2.534  1.1950  1.2851 -0.6380
 3879TIP3   OH233051   3.863   5.140  10.987 -0.2623  1.0841  0.4095
 3879TIP3    H133052   3.921   5.215  10.997  0.9245  0.2903 -0.3047
 3879TIP3    H233053   3.922   5.066  10.970 -1.5069  0.4212 -1.3563
 3880TIP3   OH233054   4.259   2.326  13.344 -0.4326 -0.3606 -0.1795
 3880TIP3    H133055   4.203   2.383  13.291 -1.6876 -0.7140  0.7283
 3880TIP3    H233056   4.302   2.385  13.405 -0.3699 -0.1676 -0.4099
 3881TIP3   OH233057   1.347   3.395  12.406 -0.1223 -0.7325  0.0636
 3881TIP3    H133058   1.380   3.444  12.481  0.3400  0.7431 -1.0375
 3881TIP3    H233059   1.261   3.364  12.432 -0.1599  0.1571  1.0362
 3882TIP3   OH233060   1.450   6.557   6.491 -0.1155  0.4024  0.5715
 3882TIP3    H133061   1.455   6.544   6.586  2.1562 -0.6511  0.3800
 3882TIP3    H233062   1.357   6.570   6.474 -0.3262  4.8501  3.4149
 3883TIP3   OH233063   4.472   3.842   0.314  0.1354 -0.4528 -0.1738
 3883TIP3    H133064   4.393   3.865   0.265 -0.5200 -0.2410  0.9335
 3883TIP3    H233065   4.472   3.746   0.315  0.6975 -0.4780 -1.4094
 3884TIP3   OH233066   0.749   6.608   0.226 -0.4351 -0.2714 -0.2765
 3884TIP3    H133067   0.811   6.576   0.292 -0.6954  0.2306  0.2222
 3884TIP3    H233068   0.726   6.696   0.256  2.0658  1.4366 -2.8150
 3885TIP3   OH233069   5.302   1.155   5.190  0.2679  0.1838 -0.3129
 3885TIP3    H133070   5.325   1.160   5.098 -0.4318  1.4929 -0.4496
 3885TIP3    H233071   5.271   1.066   5.203 -1.7691  0.5954 -1.8920
 3886TIP3   OH233072   3.277   4.727  11.183  0.1012  0.4731  0.0097
 3886TIP3    H133073   3.321   4.645  11.160  2.6592  2.0038 -1.0446
 3886TIP3    H233074   3.302   4.743  11.274  0.1984  0.4400 -0.0110
 3887TIP3   OH233075   0.604   5.426   5.478  0.1727 -0.0309  0.1226
 3887TIP3    H133076   0.643   5.385   5.401 -2.0397 -1.7546 -0.1788
 3887TIP3    H233077   0.666   5.408   5.549  0.9872 -0.7251 -0.7428
 3888TIP3   OH233078   1.121   0.750   5.795 -0.1133 -0.0034  0.2842
 3888TIP3    H133079   1.053   0.781   5.736  0.1117  0.3748  0.2210
 3888TIP3    H233080   1.074   0.696   5.859 -0.6336  1.0795  0.8507
 3889TIP3   OH233081   4.270   0.757  11.115 -0.4065 -0.3162  0.5860
 3889TIP3    H133082   4.351   0.805  11.131 -0.4011 -0.2480  0.3693
 3889TIP3    H233083   4.295   0.689  11.052 -0.4772 -0.4095  0.6598
 3890TIP3   OH233084   5.113   4.859  10.710 -0.5642  0.5232  0.3940
 3890TIP3    H133085   5.131   4.770  10.742 -1.1230  0.2459 -0.0381
 3890TIP3    H233086   5.021   4.856  10.683 -0.3587  1.0055 -0.3897
 3891TIP3   OH233087   1.258   4.194   2.869  0.3680 -0.1242  0.3845
 3891TIP3    H133088   1.339   4.144   2.859  0.1762 -0.0346 -2.3844
 3891TIP3    H233089   1.270   4.270   2.812 -1.3049  0.3910  0.6795
 3892TIP3   OH233090   5.233   4.235  15.164 -0.6026  0.1021 -0.3794
 3892TIP3    H133091   5.313   4.288  15.166 -0.3630 -0.1887 -1.5581
 3892TIP3    H233092   5.230   4.193  15.249  0.8107 -0.3240 -0.5152
 3893TIP3   OH233093   0.566   0.533  13.855 -0.3444  0.0206 -0.3445
 3893TIP3    H133094   0.623   0.547  13.931 -0.8654  5.0349 -0.5383
 3893TIP3    H233095   0.478   0.552  13.888 -1.0977 -1.3775 -1.4623
 3894TIP3   OH233096   1.371   2.317   0.770  0.3234 -0.0628  0.5366
 3894TIP3    H133097   1.401   2.241   0.820  0.0135 -0.6135 -0.1107
 3894TIP3    H233098   1.276   2.312   0.773  0.3025 -0.0933 -0.1017
 3895TIP3   OH233099   0.134   0.020  13.652  0.0962 -0.5001 -0.4894
 3895TIP3    H133100   0.044   0.050  13.662  0.5088  0.0608  2.5031
 3895TIP3    H233101   0.127  -0.065  13.608 -1.8165 -0.1964 -0.8300
 3896TIP3   OH233102   0.928   4.362  16.831  0.3072 -0.0634 -0.1383
 3896TIP3    H133103   0.939   4.422  16.758  1.7444 -1.3834 -1.0643
 3896TIP3    H233104   1.014   4.357  16.872  0.3762 -1.8798 -0.4234
 3897TIP3   OH233105   2.115   4.919  16.502  0.2096 -1.2130 -0.1054
 3897TIP3    H133106   2.122   4.858  16.576 -3.7787 -4.3088 -1.8350
 3897TIP3    H233107   2.064   4.992  16.536 -0.9911 -2.2824  0.5226
 3898TIP3   OH233108   5.217   5.990  13.897  0.1104  0.2035 -0.5616
 3898TIP3    H133109   5.132   5.993  13.855  0.0844 -0.1659 -0.5364
 3898TIP3    H233110   5.278   6.021  13.830  0.1021 -0.6073 -0.9601
 3899TIP3   OH233111   5.766   2.309   3.554  0.0204 -0.3422 -0.1374
 3899TIP3    H133112   5.843   2.264   3.519  1.2259  1.3221  0.2570
 3899TIP3    H233113   5.802   2.375   3.614 -1.8006 -0.4786  1.1742
 3900TIP3   OH233114   2.692   5.842  15.795  0.0347 -0.2404 -0.3944
 3900TIP3    H133115   2.697   5.749  15.818 -0.9918 -0.0805  0.5589
 3900TIP3    H233116   2.691   5.887  15.879  2.3709  0.7786 -0.8468
 3901TIP3   OH233117   6.224   0.659   0.777  0.4487 -0.0975  0.5882
 3901TIP3    H133118   6.151   0.719   0.791 -0.0077 -1.0604  2.5747
 3901TIP3    H233119   6.253   0.634   0.864  2.5068 -0.5581 -0.1598
 3902TIP3   OH233120   4.832   1.425  16.483  0.1177  0.5595 -0.9042
 3902TIP3    H133121   4.784   1.369  16.544  0.9288 -0.8492 -1.5224
 3902TIP3    H233122   4.915   1.443  16.527 -0.6253  2.4152 -0.1395
 3903TIP3   OH233123   4.509   5.128  14.134  0.2580  0.2317  0.5878
 3903TIP3    H133124   4.480   5.122  14.043 -1.6903 -0.0114  1.1785
 3903TIP3    H233125   4.597   5.165  14.129  0.0978  0.4481 -1.3684
 3904TIP3   OH233126   3.488   1.811  17.057  0.3697 -0.5126  0.1041
 3904TIP3    H133127   3.421   1.879  17.061  0.8842  0.0846 -0.9203
 3904TIP3    H233128   3.456   1.741  17.115 -0.5856  0.2279  0.4833
 3905TIP3   OH233129   1.943   5.580   0.336 -0.2476  0.3175  0.2747
 3905TIP3    H133130   1.852   5.603   0.358  0.3728  3.0057  0.4495
 3905TIP3    H233131   1.959   5.625   0.253  1.5003  1.7075  1.2978
 3906TIP3   OH233132   0.155   2.658  11.328  0.3765  0.3763  0.5077
 3906TIP3    H133133   0.193   2.741  11.301  2.6498 -0.4093  1.0483
 3906TIP3    H233134   0.175   2.650  11.421 -1.0805 -0.1593  0.8117
 3907TIP3   OH233135   4.337   6.326  14.386 -0.1358 -0.3248 -0.2617
 3907TIP3    H133136   4.413   6.283  14.347  0.6535 -0.0468  0.9202
 3907TIP3    H233137   4.372   6.406  14.425 -1.2296  0.3581 -0.6429
 3908TIP3   OH233138   1.808   4.287  16.423 -0.2203  0.0517  0.2837
 3908TIP3    H133139   1.765   4.293  16.509 -0.1593  0.6843  0.2763
 3908TIP3    H233140   1.900   4.308  16.441 -0.5012  1.9053 -0.1660
 3909TIP3   OH233141   0.347   2.594  16.724  0.1077  0.5237  0.1491
 3909TIP3    H133142   0.342   2.675  16.775  0.1643  0.1534  0.7481
 3909TIP3    H233143   0.282   2.606  16.655 -0.6642  0.6362  0.8819
 3910TIP3   OH233144   0.306   5.965   6.215  0.2974 -0.1717  0.1011
 3910TIP3    H133145   0.231   5.908   6.233  1.7938 -2.2022  0.3326
 3910TIP3    H233146   0.339   5.990   6.302  0.6588 -0.3817  0.0271
 3911TIP3   OH233147   3.547   2.800   5.865  0.3399  0.3693 -0.0163
 3911TIP3    H133148   3.493   2.828   5.939  1.8253  0.2076  1.1794
 3911TIP3    H233149   3.588   2.880   5.834  0.0827  0.3654 -0.3715
 3912TIP3   OH233150   1.923   3.472  16.241 -0.3093  0.7123 -0.4101
 3912TIP3    H133151   1.868   3.513  16.307 -1.4775 -0.9556 -0.2931
 3912TIP3    H233152   1.887   3.502  16.157  0.1652  1.5598 -0.3176
 3913TIP3   OH233153   1.513   6.104   2.794 -0.0085 -0.7599  0.2383
 3913TIP3    H133154   1.597   6.147   2.815 -0.2285 -0.3520  0.2951
 3913TIP3    H233155   1.482   6.149   2.716  0.9792 -2.5205 -1.2579
 3914TIP3   OH233156   6.360   1.748   2.363  0.2788 -0.2159 -0.7048
 3914TIP3    H133157   6.373   1.820   2.300  1.1989  0.3047  0.0526
 3914TIP3    H233158   6.369   1.669   2.310  1.1773  0.2076 -1.2098
 3915TIP3   OH233159   0.028   4.173   1.776 -0.1786 -0.4721  0.1610
 3915TIP3    H133160   0.054   4.265   1.782 -0.1541 -0.4237 -0.6760
 3915TIP3    H233161  -0.061   4.176   1.742  0.0329 -0.7752 -0.4265
 3916TIP3   OH233162   6.351   0.792  14.594 -0.2455  0.7235  0.4378
 3916TIP3    H133163   6.433   0.744  14.607 -0.6773 -0.2818 -0.4436
 3916TIP3    H233164   6.338   0.793  14.499 -2.7545 -1.7714  0.6172
 3917TIP3   OH233165   5.558   0.533   4.895  0.5048  0.1408  0.8590
 3917TIP3    H133166   5.475   0.500   4.861  0.9307 -1.0381  0.9099
 3917TIP3    H233167   5.612   0.454   4.905  0.7464  0.5342  3.2840
 3918TIP3   OH233168   5.900   0.936   5.960 -0.4241 -0.6738 -0.1229
 3918TIP3    H133169   5.881   0.892   6.043 -0.8349 -0.8574 -0.3104
 3918TIP3    H233170   5.989   0.909   5.938 -0.9497 -2.0743 -0.6424
 3919TIP3   OH233171   0.064   2.022   1.337  0.4320 -0.0954 -0.2449
 3919TIP3    H133172   0.132   2.030   1.404 -0.4818  0.3669  0.6590
 3919TIP3    H233173   0.023   1.938   1.355 -1.0187  0.8228  0.9865
 3920TIP3   OH233174   1.656   5.515  12.260 -0.1456  0.1248 -0.2093
 3920TIP3    H133175   1.629   5.518  12.352 -0.0307 -1.7146 -0.0764
 3920TIP3    H233176   1.588   5.463  12.217 -0.6277  1.6418 -1.3572
 3921TIP3   OH233177   6.602   4.076  16.110 -0.4031 -0.5297 -0.1617
 3921TIP3    H133178   6.693   4.100  16.130 -0.5445 -0.8461  0.9375
 3921TIP3    H233179   6.550   4.148  16.146 -0.5720 -0.0146 -1.3853
 3922TIP3   OH233180   1.894   4.075  16.197  0.4545 -0.0125  0.2412
 3922TIP3    H133181   1.872   4.156  16.151 -0.0746  0.3761  1.1430
 3922TIP3    H233182   1.869   4.092  16.288 -2.2566 -2.1323  0.0332
 3923TIP3   OH233183   0.965   0.838  13.794 -0.0818 -0.1677 -0.6458
 3923TIP3    H133184   0.906   0.763  13.786  0.0602 -0.2765 -0.6990
 3923TIP3    H233185   0.910   0.914  13.781 -0.0196 -0.3068 -1.8684
 3924TIP3   OH233186   6.457   0.128  14.433 -0.1020 -0.4448 -0.7420
 3924TIP3    H133187   6.483   0.036  14.438 -0.2710 -0.6130 -2.3330
 3924TIP3    H233188   6.501   0.170  14.506  1.1869 -1.5222 -0.8668
 3925TIP3   OH233189   0.736   6.409   5.738 -0.0559  0.5899 -0.0073
 3925TIP3    H133190   0.657   6.363   5.710  0.9966 -1.3367  0.0535
 3925TIP3    H233191   0.704   6.484   5.789 -1.8408 -1.0395  1.3916
 3926TIP3   OH233192   6.572   1.638   1.640 -0.1781 -0.1412  0.2496
 3926TIP3    H133193   6.554   1.723   1.680 -0.5570 -0.5965  1.0709
 3926TIP3    H233194   6.652   1.606   1.683  1.6875  1.0409 -2.0764
 3927TIP3   OH233195   2.764   0.478  11.310  0.1599  0.3672 -0.5126
 3927TIP3    H133196   2.706   0.552  11.327 -0.7363 -0.1515 -1.2140
 3927TIP3    H233197   2.852   0.513  11.322 -0.1801  1.9473 -2.2315
 3928TIP3   OH233198   6.376   5.079  13.630  0.3213  0.2859 -0.0682
 3928TIP3    H133199   6.329   4.996  13.630 -0.2910  0.4807  3.3823
 3928TIP3    H233200   6.308   5.146  13.638  0.9462  0.7478  2.0899
 3929TIP3   OH233201   1.776   4.195  15.029  0.2443 -0.4578  0.4149
 3929TIP3    H133202   1.847   4.228  14.973 -0.2675 -1.6673 -1.0326
 3929TIP3    H233203   1.753   4.268  15.085  2.2396  0.1437  0.5151
 3930TIP3   OH233204   5.730   4.666   1.273 -0.2173  0.5707 -0.3900
 3930TIP3    H133205   5.824   4.651   1.259 -0.5393 -0.0660 -2.1455
 3930TIP3    H233206   5.691   4.579   1.271 -0.7220  0.7087  1.7150
 3931TIP3   OH233207   6.740   2.498  16.872 -0.2867  0.3664 -0.2284
 3931TIP3    H133208   6.761   2.587  16.901 -2.0101  0.8573 -0.3208
 3931TIP3    H233209   6.644   2.494  16.875 -0.2620 -1.4186 -0.4648
 3932TIP3   OH233210   0.506   4.284  15.275  0.2371  0.0782  0.0180
 3932TIP3    H133211   0.470   4.367  15.307 -2.0653 -0.5362 -0.7240
 3932TIP3    H233212   0.468   4.218  15.333 -1.1873 -0.7398 -1.7368
 3933TIP3   OH233213   5.648   3.479  15.203  0.2491  0.3991 -0.3997
 3933TIP3    H133214   5.660   3.539  15.130 -0.6514  1.7189  0.4978
 3933TIP3    H233215   5.737   3.455  15.230  0.5933 -0.1804 -1.9466
 3934TIP3   OH233216   5.517   3.371  13.602 -0.0509 -0.7248 -0.1303
 3934TIP3    H133217   5.469   3.294  13.633 -0.4707 -1.1065 -1.6763
 3934TIP3    H233218   5.559   3.343  13.522 -0.0474  0.6009 -0.6173
 3935TIP3   OH233219   6.467   2.186  14.536  0.0454  0.1163 -0.3424
 3935TIP3    H133220   6.476   2.110  14.593 -0.3204  0.5153  0.2603
 3935TIP3    H233221   6.509   2.257  14.585 -2.9418  1.1830  0.8656
 3936TIP3   OH233222   6.045   3.206  16.049  0.1508  0.9525 -0.3080
 3936TIP3    H133223   5.986   3.137  16.078 -0.0749  1.2097 -0.1497
 3936TIP3    H233224   5.987   3.272  16.011  0.4709  0.3292 -1.9748
 3937TIP3   OH233225   5.303   4.379  13.933  0.4075  0.2577 -0.1319
 3937TIP3    H133226   5.247   4.409  14.004 -0.2453 -1.3654  0.0771
 3937TIP3    H233227   5.377   4.337  13.977  1.0027  0.9832 -0.4182
 3938TIP3   OH233228   0.205   1.987   5.546 -0.6446  0.1579  0.3383
 3938TIP3    H133229   0.192   2.028   5.631 -1.1520  0.1971  0.2430
 3938TIP3    H233230   0.133   1.924   5.538 -0.8928  0.5126 -0.2802
 3939TIP3   OH233231   2.269   1.443   2.418 -0.0684  0.0384 -0.0850
 3939TIP3    H133232   2.260   1.371   2.355  0.1838 -0.2953  0.2573
 3939TIP3    H233233   2.344   1.493   2.388  1.1776 -1.1466  0.9409
 3940TIP3   OH233234   0.022   0.446  16.179 -0.7259 -0.3258  0.4712
 3940TIP3    H133235   0.092   0.386  16.154 -0.8374 -0.5439  0.6748
 3940TIP3    H233236   0.031   0.455  16.274 -0.3788  0.4044  0.3801
 3941TIP3   OH233237   3.335   6.185  12.511 -0.0276 -0.2078 -0.2822
 3941TIP3    H133238   3.273   6.241  12.557 -0.3664  1.3116 -2.3986
 3941TIP3    H233239   3.313   6.197  12.418  1.1347 -2.4210 -0.9156
 3942TIP3   OH233240   3.019   1.606   5.432 -0.1666  0.5566 -0.1318
 3942TIP3    H133241   2.992   1.697   5.418 -0.2337  0.5769  0.1318
 3942TIP3    H233242   3.114   1.611   5.439 -0.2254  0.7088  0.6415
 3943TIP3   OH233243   6.437   2.240   1.108  0.5013 -0.0333 -0.7498
 3943TIP3    H133244   6.414   2.274   1.022 -1.4107 -0.0749 -0.3098
 3943TIP3    H233245   6.388   2.157   1.115 -2.0262  1.4819  1.5382
 3944TIP3   OH233246   6.434   3.392   5.026 -0.4677 -0.3361  0.5024
 3944TIP3    H133247   6.457   3.466   5.083  0.2809 -0.7721  0.7804
 3944TIP3    H233248   6.415   3.320   5.086 -1.1883 -0.3821  0.2313
 3945TIP3   OH233249   0.514   1.804  15.790  0.2164  0.4907  0.2781
 3945TIP3    H133250   0.560   1.786  15.872 -1.3877  1.0650  1.3608
 3945TIP3    H233251   0.477   1.719  15.764  1.4336  0.1259 -0.3502
 3946TIP3   OH233252   5.822   0.021  15.864  0.5915 -0.0506  0.1203
 3946TIP3    H133253   5.805  -0.000  15.772  0.5680 -0.8279  0.2931
 3946TIP3    H233254   5.899   0.077  15.862  1.9408 -1.8246 -0.2660
 3947TIP3   OH233255   6.090   3.238  15.350 -0.0682 -0.1435  0.4438
 3947TIP3    H133256   6.041   3.299  15.405 -2.8156  0.3308 -2.3070
 3947TIP3    H233257   6.163   3.289  15.316 -2.1168  1.6326 -1.5216
 3948TIP3   OH233258   4.359   2.728   1.740 -0.1743  0.4058  0.2970
 3948TIP3    H133259   4.315   2.811   1.725  0.2362  0.4232 -0.9114
 3948TIP3    H233260   4.320   2.668   1.677  0.9034  0.2018 -0.1942
 3949TIP3   OH233261   1.411   1.595  17.135  0.2575  0.1942 -0.3520
 3949TIP3    H133262   1.316   1.598  17.127 -0.0592 -2.3570  1.2749
 3949TIP3    H233263   1.439   1.542  17.060  0.2813  0.1057 -0.2806
 3950TIP3   OH233264   5.878   0.197  13.216  0.4036  0.1534 -0.1770
 3950TIP3    H133265   5.793   0.227  13.184 -0.2799 -0.7912  0.7125
 3950TIP3    H233266   5.877   0.215  13.310  0.3619 -1.7055  0.2105
 3951TIP3   OH233267   0.735   5.924  13.453 -0.0104 -0.1260 -0.4063
 3951TIP3    H133268   0.821   5.881  13.457 -0.8047 -1.8234 -0.5636
 3951TIP3    H233269   0.709   5.933  13.545  0.2434  0.2214 -0.3654
 3952TIP3   OH233270   6.628   1.803  13.435 -0.1732 -1.0011 -0.6636
 3952TIP3    H133271   6.721   1.814  13.416 -0.0750  0.0418  0.2536
 3952TIP3    H233272   6.584   1.855  13.368 -0.0553 -0.9042 -0.6667
 3953TIP3   OH233273   4.731   0.744  14.736  0.4418 -0.3434 -0.1273
 3953TIP3    H133274   4.825   0.737  14.752  0.3300 -2.4705 -0.1736
 3953TIP3    H233275   4.717   0.695  14.655 -0.6381  0.5542 -0.5164
 3954TIP3   OH233276   2.892   5.118  13.024 -0.4039 -0.6179 -0.6624
 3954TIP3    H133277   2.962   5.128  12.959 -1.1811 -2.4461 -1.8578
 3954TIP3    H233278   2.825   5.181  12.997 -0.3028 -0.6609 -1.0191
 3955TIP3   OH233279   0.451   4.046  17.156 -0.0361  0.0726  0.5747
 3955TIP3    H133280   0.491   4.129  17.129  2.3660 -1.1074  0.1745
 3955TIP3    H233281   0.460   4.045  17.251  3.0055 -1.0160  0.4039
 3956TIP3   OH233282   4.603   0.083   6.174  0.8408 -0.0887  0.0023
 3956TIP3    H133283   4.599   0.135   6.254 -0.4563  0.6910 -0.5143
 3956TIP3    H233284   4.618  -0.007   6.203  1.9816  0.3955  0.9976
 3957TIP3   OH233285   0.853   6.494  12.786 -0.2156 -0.0422  0.2779
 3957TIP3    H133286   0.934   6.538  12.812 -0.8671  1.5453 -0.2270
 3957TIP3    H233287   0.791   6.566  12.771 -1.0091 -1.0750 -1.7108
 3958TIP3   OH233288   3.985   2.028   5.450  0.1529 -0.1645 -0.0168
 3958TIP3    H133289   3.895   1.997   5.460 -0.0411  0.3300 -0.2198
 3958TIP3    H233290   4.031   1.993   5.526 -0.0315 -1.0545 -0.3018
 3959TIP3   OH233291   4.139   0.004  16.792  0.2090 -0.7552 -0.6365
 3959TIP3    H133292   4.212   0.003  16.730  1.6040  2.0710  0.8022
 3959TIP3    H233293   4.080   0.071  16.758  0.6324  0.3016  0.6589
 3960TIP3   OH233294   1.066   4.187   2.157 -0.1015  0.2088 -0.1366
 3960TIP3    H133295   1.047   4.095   2.172  0.7187  0.1829  0.8866
 3960TIP3    H233296   0.983   4.225   2.127 -0.9668 -0.4722  1.3135
 3961TIP3   OH233297   5.787   5.859  12.038 -0.2106  0.1750 -0.2118
 3961TIP3    H133298   5.757   5.779  12.083  1.3337 -0.2093  0.2243
 3961TIP3    H233299   5.861   5.829  11.985  0.5700  1.3498  0.1792
 3962TIP3   OH233300   2.339   3.679   5.882  0.6229  0.1195  0.0820
 3962TIP3    H133301   2.285   3.643   5.812 -0.9002  0.1900  1.1619
 3962TIP3    H233302   2.351   3.605   5.942 -0.4382  0.7294  1.0864
 3963TIP3   OH233303   2.262   5.911  11.965  0.3803  0.6789  0.6379
 3963TIP3    H133304   2.208   5.989  11.957  0.0617  0.5042  1.0213
 3963TIP3    H233305   2.302   5.900  11.879 -1.1509  0.1201 -0.0564
 3964TIP3   OH233306   5.269   1.838   0.280  0.2998  0.2503  0.2633
 3964TIP3    H133307   5.219   1.779   0.223  0.3199  0.1657  0.3319
 3964TIP3    H233308   5.273   1.792   0.364  0.6155  0.1876  0.2167
 3965TIP3   OH233309   2.358   6.410  12.347 -0.2455  0.2699 -0.9708
 3965TIP3    H133310   2.417   6.476  12.310 -0.3348  0.8519 -0.1295
 3965TIP3    H233311   2.312   6.457  12.417 -0.2611 -0.7072 -0.3065
 3966TIP3   OH233312   2.648   2.881   2.997 -0.3302 -0.8157  0.1149
 3966TIP3    H133313   2.639   2.964   2.949 -0.6491 -0.9100  0.0101
 3966TIP3    H233314   2.731   2.845   2.967  0.8112  0.4215  1.6345
 3967TIP3   OH233315   4.392   5.387   5.373  0.2465  0.0351  0.1184
 3967TIP3    H133316   4.382   5.292   5.372  0.6527 -0.0075 -0.6931
 3967TIP3    H233317   4.486   5.403   5.364  0.0416  0.5053 -1.6525
 3968TIP3   OH233318   2.529   1.068  12.304  0.3688 -0.2996 -0.5186
 3968TIP3    H133319   2.536   0.977  12.335  0.9881 -0.0410  0.0994
 3968TIP3    H233320   2.618   1.092  12.279  0.3939  0.5008  0.3239
 3969TIP3   OH233321   0.096   2.079   2.049 -0.3389 -0.3015 -0.3165
 3969TIP3    H133322   0.102   2.036   2.134 -0.0544 -0.5448 -0.4586
 3969TIP3    H233323   0.006   2.111   2.045  0.0518  1.0022  0.6972
 3970TIP3   OH233324   2.224   6.605   5.307 -0.6823 -0.3822 -0.3623
 3970TIP3    H133325   2.201   6.651   5.226  1.4517 -0.6547 -1.1978
 3970TIP3    H233326   2.186   6.518   5.296  1.5183 -1.2313 -2.2553
 3971TIP3   OH233327   1.564   5.568  14.687 -0.1381  0.7353 -0.2076
 3971TIP3    H133328   1.489   5.515  14.715  0.1036  0.2537 -0.4523
 3971TIP3    H233329   1.622   5.570  14.763 -0.4674  1.2310  0.0298
 3972TIP3   OH233330   2.845   0.057   3.515  0.2780 -0.0785 -0.2753
 3972TIP3    H133331   2.876  -0.022   3.472 -1.4007  0.0858 -1.8991
 3972TIP3    H233332   2.872   0.128   3.457  3.0401  0.7642  1.8692
 3973TIP3   OH233333   1.668   3.435  16.994  0.0238 -0.1177 -0.2742
 3973TIP3    H133334   1.749   3.417  16.947 -1.7031 -0.9338 -3.2249
 3973TIP3    H233335   1.617   3.354  16.986 -2.4026  1.4179 -1.5649
 3974TIP3   OH233336   5.115   4.586  11.324 -0.2218 -0.2602 -0.0607
 3974TIP3    H133337   5.089   4.678  11.324  1.0862  0.1322 -0.0775
 3974TIP3    H233338   5.065   4.547  11.395 -0.8469  0.4472 -0.1006
 3975TIP3   OH233339   5.767   1.525  13.101 -0.5048 -0.1550  0.1578
 3975TIP3    H133340   5.707   1.464  13.143  0.9563 -1.2574  0.7319
 3975TIP3    H233341   5.801   1.478  13.025  0.2196  0.1448  0.2848
 3976TIP3   OH233342   4.488   6.059  15.298 -0.0818 -0.2664 -0.1260
 3976TIP3    H133343   4.403   6.081  15.259  0.4402  0.5088 -0.8624
 3976TIP3    H233344   4.517   6.141  15.339  0.0307 -0.7003  0.6778
 3977TIP3   OH233345   6.377   3.282  15.543  0.4718 -0.3565 -0.1135
 3977TIP3    H133346   6.465   3.293  15.508  0.4412 -1.4220 -0.5715
 3977TIP3    H233347   6.390   3.238  15.626  0.4015  0.0130  0.0946
 3978TIP3   OH233348   3.682   0.561   5.081 -0.5646 -0.5315  0.4792
 3978TIP3    H133349   3.641   0.535   5.163  0.3721  0.1744  1.2043
 3978TIP3    H233350   3.763   0.509   5.077  0.2672  0.6821  0.8984
 3979TIP3   OH233351   5.362   3.785   2.317  0.0803 -0.0843  0.6601
 3979TIP3    H133352   5.339   3.743   2.234 -0.9739 -0.4227  1.1045
 3979TIP3    H233353   5.457   3.794   2.314 -0.1085  2.7819 -1.9270
 3980TIP3   OH233354   0.549   3.539  15.741 -0.1074  0.0275  0.5458
 3980TIP3    H133355   0.456   3.526  15.756 -0.1077  0.3397  0.8336
 3980TIP3    H233356   0.573   3.611  15.800  0.2120  0.2729  0.1237
 3981TIP3   OH233357   1.284   0.885  12.145  0.1927 -0.2338  0.1681
 3981TIP3    H133358   1.230   0.883  12.065  2.2376 -0.3886 -1.2732
 3981TIP3    H233359   1.252   0.811  12.197 -2.2322  0.7887  0.2870
 3982TIP3   OH233360   6.465   1.627   2.634  0.4625  0.1998 -0.7965
 3982TIP3    H133361   6.464   1.684   2.558  2.2338 -0.1460 -1.1261
 3982TIP3    H233362   6.378   1.637   2.673  0.1063  1.6772 -1.8857
 3983TIP3   OH233363   4.472   5.070  11.731  0.2021  0.0215  0.1155
 3983TIP3    H133364   4.382   5.037  11.721  0.8926 -1.3833 -2.2388
 3983TIP3    H233365   4.519   4.998  11.772  0.9432 -0.6220 -1.7722
 3984TIP3   OH233366   5.565   0.074   5.162 -0.0044  0.2300  0.0285
 3984TIP3    H133367   5.629   0.003   5.164 -0.5293 -0.3056 -0.9906
 3984TIP3    H233368   5.483   0.031   5.138 -0.3479  1.1599 -0.5343
 3985TIP3   OH233369   0.895   3.858  16.965  0.2275  0.2038 -0.1760
 3985TIP3    H133370   0.855   3.890  16.884 -1.5368  3.7197  1.8436
 3985TIP3    H233371   0.966   3.919  16.982 -0.5426  0.6128  1.7540
 3986TIP3   OH233372   4.753   1.154  12.532  0.9002 -0.1848 -0.0610
 3986TIP3    H133373   4.714   1.213  12.596  2.4175  0.6035  0.1898
 3986TIP3    H233374   4.737   1.194  12.447 -1.9550 -1.7063 -0.3624
 3987TIP3   OH233375   5.659   5.139  11.536  0.4447 -0.1808  0.1958
 3987TIP3    H133376   5.617   5.108  11.617 -0.0826 -0.7796 -0.2998
 3987TIP3    H233377   5.634   5.075  11.470  1.9314 -0.4218 -0.1854
 3988TIP3   OH233378   0.129   6.657   4.048  0.6670  0.1757 -0.1221
 3988TIP3    H133379   0.181   6.581   4.023  0.7366  0.2687 -0.2649
 3988TIP3    H233380   0.060   6.623   4.104  0.3029 -0.0804 -0.7173
 3989TIP3   OH233381   4.013   0.314  12.131 -0.4902  0.4775  0.7947
 3989TIP3    H133382   3.928   0.356  12.127  0.1024  1.6487 -1.5214
 3989TIP3    H233383   4.075   0.381  12.101  1.0718 -0.7101  1.2149
 3990TIP3   OH233384   6.665   4.822   2.170 -0.3610  0.8708 -0.0145
 3990TIP3    H133385   6.603   4.886   2.205  1.0301  0.7680  2.9620
 3990TIP3    H233386   6.655   4.746   2.227 -0.2716 -0.7081 -1.9952
 3991TIP3   OH233387   2.002   6.189  16.860 -0.6372 -0.1085 -0.5908
 3991TIP3    H133388   2.079   6.133  16.864  0.0049  0.7323 -0.7738
 3991TIP3    H233389   2.036   6.277  16.880 -1.4538  0.3600 -1.2087
 3992TIP3   OH233390   1.238   2.703  12.064 -0.2016 -0.3915 -0.0065
 3992TIP3    H133391   1.220   2.657  11.982 -0.4818 -1.1999  0.4998
 3992TIP3    H233392   1.193   2.652  12.131 -2.1296  1.6123  0.3691
 3993TIP3   OH233393   0.948   3.792  11.048 -0.4636 -0.9548  0.1901
 3993TIP3    H133394   0.975   3.725  11.110 -0.4422 -1.6038 -0.5049
 3993TIP3    H233395   0.887   3.747  10.990 -2.8825  0.3789  1.5315
 3994TIP3   OH233396   1.626   6.045   2.475  0.3103 -0.1746  0.5793
 3994TIP3    H133397   1.603   6.003   2.392  1.0487  0.8466 -0.1663
 3994TIP3    H233398   1.677   5.980   2.522 -0.8847 -1.0957  0.6304
 3995TIP3   OH233399   1.418   0.863   2.763 -0.6092 -0.0449 -0.0518
 3995TIP3    H133400   1.439   0.951   2.795  1.2257 -0.9620  1.4440
 3995TIP3    H233401   1.501   0.828   2.732 -1.6414 -0.6486 -2.3898
 3996TIP3   OH233402   3.285   3.938  11.057  0.4584 -0.0157 -0.1327
 3996TIP3    H133403   3.228   3.861  11.048  0.8943 -0.4891  1.0414
 3996TIP3    H233404   3.254   3.998  10.989  1.5670 -2.0995 -2.6793
 3997TIP3   OH233405   5.101   4.689   2.919  0.2555 -0.0209  0.2007
 3997TIP3    H133406   5.045   4.764   2.902 -1.4208 -1.4560 -0.9467
 3997TIP3    H233407   5.104   4.682   3.015 -3.0117 -0.8809  0.3603
 3998TIP3   OH233408   0.421   0.767  13.254  0.0098  0.6250 -0.6431
 3998TIP3    H133409   0.461   0.763  13.167 -0.5417 -0.1673 -0.8661
 3998TIP3    H233410   0.406   0.861  13.268  0.6513  0.8134 -1.1438
 3999TIP3   OH233411   2.501   2.446   5.315 -0.0230  0.4488 -0.3808
 3999TIP3    H133412   2.454   2.381   5.367  0.3929 -0.4269 -1.0652
 3999TIP3    H233413   2.565   2.395   5.266  2.4605  1.6942  1.3627
 4000TIP3   OH233414   6.199   1.645   2.142  0.3303  0.2031 -0.7745
 4000TIP3    H133415   6.276   1.689   2.105  2.1180  0.8153  3.2140
 4000TIP3    H233416   6.146   1.717   2.178  1.9555 -0.4890  3.4443
 4001TIP3   OH233417   5.870   5.965   2.870 -0.0915  0.2192  0.0134
 4001TIP3    H133418   5.940   6.012   2.826  0.0308  2.0163  1.9308
 4001TIP3    H233419   5.896   5.873   2.866  0.6967  0.4878 -2.1135
 4002TIP3   OH233420   5.678   5.225   1.667  0.4544  0.4582 -0.7200
 4002TIP3    H133421   5.617   5.228   1.741  1.2126 -1.1370  0.0091
 4002TIP3    H233422   5.765   5.223   1.707  0.9001  0.1452 -1.6777
 4003TIP3   OH233423   0.953   1.312   2.146 -0.1404  0.1550 -0.0023
 4003TIP3    H133424   1.045   1.298   2.167 -0.7616 -2.6395  1.3446
 4003TIP3    H233425   0.952   1.318   2.050  1.3582 -0.6811 -0.1134
 4004TIP3   OH233426   1.299   6.303  12.884 -0.4803 -0.4074  0.4643
 4004TIP3    H133427   1.265   6.266  12.965 -1.2708  0.4660  0.5430
 4004TIP3    H233428   1.383   6.342  12.908 -0.4619 -0.6214  0.7446
 4005TIP3   OH233429   4.326   0.976  15.928 -0.2564 -0.0203 -0.0901
 4005TIP3    H133430   4.261   0.947  15.864 -2.0000 -0.1344  1.6561
 4005TIP3    H233431   4.325   1.071  15.921 -1.1021  0.0158  0.3430
 4006TIP3   OH233432   5.579   1.254  15.899  0.2648 -0.3768 -0.6232
 4006TIP3    H133433   5.556   1.298  15.818 -1.4425 -0.7741 -0.4111
 4006TIP3    H233434   5.509   1.189  15.911 -0.6488  0.9169  2.0770
 4007TIP3   OH233435   5.995   0.923  15.559 -0.1709  0.4682 -0.0491
 4007TIP3    H133436   6.074   0.959  15.600 -0.1867  0.0263  0.3739
 4007TIP3    H233437   5.995   0.831  15.584 -1.2085  0.6238  0.5679
 4008TIP3   OH233438   1.941   0.057  13.489  0.2002 -0.0059 -0.1522
 4008TIP3    H133439   2.029   0.084  13.464 -0.4450  0.2954 -2.3619
 4008TIP3    H233440   1.910   0.004  13.415 -0.5302 -2.4106  1.7354
 4009TIP3   OH233441   2.481   4.937   2.858 -0.0803  1.1368 -0.0430
 4009TIP3    H133442   2.500   4.844   2.869  0.8541  1.2501 -0.6092
 4009TIP3    H233443   2.387   4.944   2.875  0.1005  0.3335  1.4695
 4010TIP3   OH233444   1.526   4.855  11.104  0.4192 -0.4436  0.0585
 4010TIP3    H133445   1.582   4.905  11.044 -0.5497  1.4600  0.6426
 4010TIP3    H233446   1.457   4.819  11.048  0.0408  0.5414 -0.1334
 4011TIP3   OH233447   5.157   3.946   0.162 -0.1204  0.1758 -0.2973
 4011TIP3    H133448   5.133   3.919   0.074  3.2596  1.0796 -1.6515
 4011TIP3    H233449   5.176   4.039   0.155 -1.0745  0.5972  1.7622
 4012TIP3   OH233450   1.973   2.631   1.763 -0.6181  0.0767 -0.0649
 4012TIP3    H133451   1.885   2.650   1.732  0.4078  1.8589 -2.1990
 4012TIP3    H233452   2.025   2.620   1.684  1.0406 -1.2910  1.1267
 4013TIP3   OH233453   1.885   1.090  13.939 -0.0848  0.5500  0.4405
 4013TIP3    H133454   1.967   1.132  13.912  0.1160 -0.6804 -0.9826
 4013TIP3    H233455   1.913   1.013  13.989 -0.3771  0.5637  0.6249
 4014TIP3   OH233456   3.378   0.043  16.958  0.2306  0.3557 -0.3006
 4014TIP3    H133457   3.364   0.081  16.871 -1.4964 -1.4203 -0.8672
 4014TIP3    H233458   3.392  -0.050  16.942  0.3556  0.0697  1.2932
 4015TIP3   OH233459   2.668   2.172   1.724  0.4297  0.4665  0.5781
 4015TIP3    H133460   2.642   2.105   1.661  0.1346  0.8609  0.2740
 4015TIP3    H233461   2.753   2.204   1.693 -0.3126  1.5844 -0.3847
 4016TIP3   OH233462   5.484   4.351  11.244 -0.1653 -0.1620 -0.3420
 4016TIP3    H133463   5.547   4.419  11.269 -1.8026  0.7239  1.6847
 4016TIP3    H233464   5.403   4.399  11.226 -1.1079 -1.4929  0.2091
 4017TIP3   OH233465   4.066   1.239  16.518  0.5229  0.3976 -0.3048
 4017TIP3    H133466   3.987   1.267  16.564 -0.0166 -0.8137 -0.4435
 4017TIP3    H233467   4.131   1.226  16.588 -0.2723 -1.3742  0.1611
 4018TIP3   OH233468   4.791   4.642   2.735  0.3628 -0.0037 -0.3376
 4018TIP3    H133469   4.828   4.721   2.773 -0.0094 -0.0568  0.1583
 4018TIP3    H233470   4.866   4.588   2.711  0.6715  1.2279 -2.3347
 4019TIP3   OH233471   2.861   5.953  15.296 -0.3022  0.1950 -0.1263
 4019TIP3    H133472   2.812   5.887  15.345 -0.9090  0.0611 -0.8916
 4019TIP3    H233473   2.883   6.020  15.361 -0.8828 -0.0936  0.3766
 4020TIP3   OH233474   3.846   0.538  12.376  0.4251 -0.0502  0.1676
 4020TIP3    H133475   3.818   0.630  12.377  0.4593 -0.0139  2.4081
 4020TIP3    H233476   3.938   0.541  12.351 -0.3160  0.1688 -3.0840
 4021TIP3   OH233477   1.747   1.232   5.346  0.1965  0.1629 -0.0564
 4021TIP3    H133478   1.668   1.189   5.314  0.0726 -0.1242  0.6243
 4021TIP3    H233479   1.778   1.284   5.272 -0.0523 -0.5348 -0.6577
 4022TIP3   OH233480   0.081   4.852   2.965 -0.2959 -0.0083 -0.2590
 4022TIP3    H133481   0.097   4.805   3.047 -1.5072 -0.6007 -0.3496
 4022TIP3    H233482   0.074   4.783   2.899  0.0867  0.4352 -0.7684
 4023TIP3   OH233483   6.273   0.122  13.931 -0.3731  0.0085  0.4355
 4023TIP3    H133484   6.279   0.204  13.979  1.1104 -0.3634  0.9325
 4023TIP3    H233485   6.315   0.058  13.988  0.2307 -0.7190 -0.7892
 4024TIP3   OH233486   2.514   0.578   4.787  0.0693 -0.3236 -0.9779
 4024TIP3    H133487   2.586   0.608   4.731  0.8496  1.8668  1.0179
 4024TIP3    H233488   2.556   0.556   4.870 -1.6018  2.5018  0.7749
 4025TIP3   OH233489   5.779   5.785  14.829 -0.1511  0.2679  0.4585
 4025TIP3    H133490   5.724   5.838  14.886 -2.4976 -0.5575 -0.8826
 4025TIP3    H233491   5.720   5.718  14.794  1.6426 -0.4929 -1.3462
 4026TIP3   OH233492   4.002   4.313  14.351  0.3498 -0.6990  0.1329
 4026TIP3    H133493   3.932   4.368  14.316  0.9973  0.7092  0.9712
 4026TIP3    H233494   4.082   4.363  14.333  0.7855 -0.3378  2.7708
 4027TIP3   OH233495   4.397   0.478   1.556  0.2004  0.0870 -0.3173
 4027TIP3    H133496   4.401   0.383   1.568 -1.0950 -0.1473 -1.5612
 4027TIP3    H233497   4.486   0.502   1.530  0.5193 -0.7958 -0.0862
 4028TIP3   OH233498   4.539   3.410  15.214 -0.9979 -0.4363 -0.7352
 4028TIP3    H133499   4.444   3.416  15.204 -1.0926 -1.9371 -0.9440
 4028TIP3    H233500   4.552   3.343  15.281 -0.0907  0.1137 -0.3457
 4029TIP3   OH233501   1.598   3.903  16.580 -0.6689 -0.4744 -0.3952
 4029TIP3    H133502   1.613   3.932  16.490  2.0485 -0.9127 -0.1688
 4029TIP3    H233503   1.579   3.809  16.573 -2.3375 -0.1532 -0.5973
 4030TIP3   OH233504   3.442   4.136  16.270  0.3690  0.3051  0.1780
 4030TIP3    H133505   3.390   4.176  16.340 -0.4667 -0.8957  0.2742
 4030TIP3    H233506   3.496   4.070  16.315  0.3606  0.0346 -0.2035
 4031TIP3   OH233507   3.602   5.806  14.611  0.5562 -0.0665 -0.2773
 4031TIP3    H133508   3.625   5.750  14.537  0.5916 -0.2741 -0.1138
 4031TIP3    H233509   3.674   5.869  14.617 -0.0966  0.7918 -1.2288
 4032TIP3   OH233510   4.182   5.307   3.509 -0.1419 -0.1077  0.1016
 4032TIP3    H133511   4.214   5.285   3.421  0.1653 -3.5541  0.9218
 4032TIP3    H233512   4.260   5.340   3.554  0.0498  0.2576 -0.4736
 4033TIP3   OH233513   2.691   0.648  11.943  0.7062  0.0670 -0.8899
 4033TIP3    H133514   2.720   0.627  12.031  1.9550 -3.3288 -1.9444
 4033TIP3    H233515   2.596   0.652  11.949  0.5699 -2.7269  0.2490
 4034TIP3   OH233516   4.114   3.395  14.986  0.3176 -0.2056 -0.3703
 4034TIP3    H133517   4.152   3.359  14.906  0.4456  1.6178 -1.1645
 4034TIP3    H233518   4.030   3.351  14.995  0.1281 -0.1386 -1.7279
 4035TIP3   OH233519   5.158   6.606  17.028  0.1812 -0.2829 -0.0477
 4035TIP3    H133520   5.129   6.522  17.063 -1.0554  0.8176  1.7687
 4035TIP3    H233521   5.078   6.659  17.027  0.9665  0.9167 -0.9960
 4036TIP3   OH233522   6.294   3.061  15.065 -0.0125 -0.0684  0.0658
 4036TIP3    H133523   6.259   2.977  15.035 -0.4709 -0.4154  1.4815
 4036TIP3    H233524   6.244   3.127  15.016  0.2054 -0.6029 -0.8987
 4037TIP3   OH233525   2.079   3.431  11.419  0.3689  0.1771 -0.0361
 4037TIP3    H133526   2.013   3.383  11.370 -0.4230  1.1464  0.0616
 4037TIP3    H233527   2.160   3.381  11.405 -0.1178 -0.3199 -1.1876
 4038TIP3   OH233528   6.017   6.255   2.310 -0.1249 -0.3023  0.2754
 4038TIP3    H133529   5.950   6.192   2.286 -0.9588  0.7446 -0.2552
 4038TIP3    H233530   6.100   6.208   2.297 -0.7290 -1.4349  0.4077
 4039TIP3   OH233531   0.419   6.634   0.804  0.1816 -0.3953  0.3278
 4039TIP3    H133532   0.395   6.560   0.859  0.4476 -0.2701  0.6170
 4039TIP3    H233533   0.479   6.686   0.858  0.3552 -0.2092 -0.0371
 4040TIP3   OH233534   6.358   1.816   3.370 -0.2994  0.3431  1.1740
 4040TIP3    H133535   6.382   1.726   3.346 -0.6846  0.1347  1.5389
 4040TIP3    H233536   6.440   1.864   3.373  0.0212 -0.2274  1.9062
 4041TIP3   OH233537   4.308   6.572   2.156 -0.2081 -0.4135  0.3598
 4041TIP3    H133538   4.231   6.601   2.106  0.4029 -1.3081 -1.1771
 4041TIP3    H233539   4.341   6.652   2.197 -1.4422  0.1390  0.3047
 4042TIP3   OH233540   0.472   2.071  10.818 -0.3659  0.0987  0.5703
 4042TIP3    H133541   0.555   2.029  10.841 -1.1204 -1.2190  1.0262
 4042TIP3    H233542   0.478   2.084  10.723  1.1761  1.9506  0.8669
 4043TIP3   OH233543   4.644   1.771  11.207  0.4003  0.2813  0.5038
 4043TIP3    H133544   4.565   1.813  11.242 -1.6110 -2.8177  0.1478
 4043TIP3    H233545   4.666   1.822  11.129 -0.7716  1.7127  1.0644
 4044TIP3   OH233546   6.410   5.014  11.425 -0.0328  0.1499  0.3089
 4044TIP3    H133547   6.422   5.029  11.331 -0.6636 -1.7363 -0.1209
 4044TIP3    H233548   6.364   4.930  11.430 -0.9584  0.7174  2.2797
 4045TIP3   OH233549   3.881   3.550  15.239  0.1175  0.8793 -0.3728
 4045TIP3    H133550   3.940   3.579  15.308  1.3012  0.1755 -1.0650
 4045TIP3    H233551   3.796   3.587  15.263  0.4066  0.3377  1.6600
 4046TIP3   OH233552   5.587   5.817   2.487 -0.4518 -0.1058  0.2806
 4046TIP3    H133553   5.607   5.858   2.571 -1.0340  1.0444 -0.1164
 4046TIP3    H233554   5.541   5.885   2.438  0.7149 -0.4233 -1.3366
 4047TIP3   OH233555   3.875   4.604   1.352  0.1358  0.0559 -0.8608
 4047TIP3    H133556   3.840   4.692   1.366 -0.2047 -0.2243  0.1282
 4047TIP3    H233557   3.924   4.584   1.432 -0.9429 -1.1776 -0.4499
 4048TIP3   OH233558   4.963   1.706   1.983 -0.2403  0.4794  0.3175
 4048TIP3    H133559   5.024   1.756   1.929 -0.1257  1.1993  1.0999
 4048TIP3    H233560   4.898   1.672   1.921  0.3421  0.6074 -0.3719
 4049TIP3   OH233561   4.812   1.893   3.743  0.2303 -0.6460 -0.5377
 4049TIP3    H133562   4.745   1.961   3.746 -0.7785 -1.6384  0.3450
 4049TIP3    H233563   4.880   1.924   3.803 -0.8804 -1.0393  0.9933
 4050TIP3   OH233564   5.056   1.485   1.495  0.1488 -1.0552 -0.1237
 4050TIP3    H133565   5.119   1.491   1.566 -0.5988  1.5207  0.4068
 4050TIP3    H233566   5.100   1.431   1.429  2.9283  0.5642  0.2459
 4051TIP3   OH233567   2.735   0.480  11.721 -0.9525 -0.5249 -0.3042
 4051TIP3    H133568   2.718   0.391  11.751 -0.7950  0.1160  1.8636
 4051TIP3    H233569   2.742   0.532  11.801 -0.6066  1.3752 -1.4859
 4052TIP3   OH233570   4.422   5.338   3.629 -0.2865 -0.0694  0.0594
 4052TIP3    H133571   4.398   5.413   3.683 -0.5675 -0.7183  0.8572
 4052TIP3    H233572   4.518   5.340   3.628 -0.2935  1.1922 -1.2329
 4053TIP3   OH233573   5.018   0.101  15.045 -0.0090  0.1596 -0.2980
 4053TIP3    H133574   5.068   0.095  14.964  1.6613 -1.3774  0.7383
 4053TIP3    H233575   5.016   0.194  15.066  0.9453  0.4255 -1.3011
 4054TIP3   OH233576   5.006   5.075   3.037 -0.2187 -0.5308  0.1772
 4054TIP3    H133577   5.063   5.009   3.077  1.8667  0.7761 -0.5103
 4054TIP3    H233578   5.015   5.062   2.943 -0.6172  0.0600  0.0475
 4055TIP3   OH233579   1.990   1.701  11.216 -0.7765 -0.5296 -0.0090
 4055TIP3    H133580   1.937   1.768  11.259  0.5000  0.3884  0.1857
 4055TIP3    H233581   2.074   1.704  11.261 -1.1148 -3.3222  1.0112
 4056TIP3   OH233582   3.333   6.185   4.146 -0.1010  0.3245  0.1607
 4056TIP3    H133583   3.410   6.142   4.109 -0.5095 -0.4431  0.1927
 4056TIP3    H233584   3.358   6.206   4.236 -0.2630 -0.8072  0.4762
 4057TIP3   OH233585   0.115   2.598  10.596  0.0040 -0.2893 -0.2289
 4057TIP3    H133586   0.112   2.533  10.527  1.7796 -2.0607  1.2544
 4057TIP3    H233587   0.078   2.555  10.672 -1.3555  1.4119  0.1397
 4058TIP3   OH233588   6.641   0.162   3.345 -0.1174  0.1985  0.1405
 4058TIP3    H133589   6.606   0.248   3.322  0.4558  0.7781  1.3257
 4058TIP3    H233590   6.613   0.149   3.435 -0.1194 -0.8268 -0.0006
 4059TIP3   OH233591   5.130   6.249   4.701  0.7232  0.1100 -0.2565
 4059TIP3    H133592   5.194   6.259   4.771  2.8820 -0.5077 -2.0184
 4059TIP3    H233593   5.165   6.302   4.629 -1.7421  1.2436 -0.7150
 4060TIP3   OH233594   2.476   3.497  11.552  0.3958 -0.2021  0.0015
 4060TIP3    H133595   2.508   3.422  11.602 -1.2181 -1.2934 -0.5038
 4060TIP3    H233596   2.450   3.459  11.468 -0.0185  1.0237 -0.4341
 4061TIP3   OH233597   1.757   0.274   0.145  0.3342 -0.0267  1.1116
 4061TIP3    H133598   1.770   0.233   0.059 -0.7464  1.1847  0.3289
 4061TIP3    H233599   1.838   0.321   0.163 -0.3441  1.9648 -0.5740
 4062TIP3   OH233600   6.624   5.044   0.246  0.5049 -0.0023 -0.0443
 4062TIP3    H133601   6.712   5.079   0.260  0.3963  1.1505 -1.8775
 4062TIP3    H233602   6.566   5.113   0.277  0.2635  0.0110 -0.5253
 4063TIP3   OH233603   2.558   1.017  12.990  0.2192 -0.3491  0.3406
 4063TIP3    H133604   2.598   0.984  13.070 -0.2989  0.7982  1.0999
 4063TIP3    H233605   2.470   0.981  12.989 -0.5174  1.3295  1.4254
 4064TIP3   OH233606   1.039   5.394   2.307 -0.9641 -0.6620 -0.4844
 4064TIP3    H133607   1.130   5.374   2.329 -0.0682  2.2140 -1.1361
 4064TIP3    H233608   0.989   5.364   2.383  0.6237 -1.4398  0.3073
 4065TIP3   OH233609   5.629   2.424   6.326 -0.0848  0.3710 -0.2855
 4065TIP3    H133610   5.644   2.516   6.304 -0.2219  0.7918  1.2803
 4065TIP3    H233611   5.561   2.426   6.393  0.2234 -0.8462  0.0922
 4066TIP3   OH233612   0.013   5.102   5.220  0.2036 -0.0468  0.2219
 4066TIP3    H133613   0.083   5.157   5.255  0.0683 -0.4184  1.1011
 4066TIP3    H233614   0.011   5.026   5.278  0.2423 -0.8766 -0.8506
 4067TIP3   OH233615   3.411   2.675  12.439  0.4529  0.2307  0.3599
 4067TIP3    H133616   3.407   2.767  12.464  0.5630  0.2062  0.4685
 4067TIP3    H233617   3.406   2.676  12.343  0.2063  0.3344  0.3742
 4068TIP3   OH233618   2.919   5.850  12.410  0.5799 -0.0672  0.6283
 4068TIP3    H133619   2.980   5.905  12.360 -0.0683  0.1344  0.0575
 4068TIP3    H233620   2.849   5.829  12.349 -0.0305 -0.1336  1.3374
 4069TIP3   OH233621   0.369   1.527  12.794  0.1117 -0.1327  0.0523
 4069TIP3    H133622   0.291   1.578  12.773  1.2379  1.1693 -1.1732
 4069TIP3    H233623   0.390   1.481  12.712  0.3264 -0.9002  0.5286
 4070TIP3   OH233624   0.214   2.418   4.395  0.1560  0.3252 -0.7753
 4070TIP3    H133625   0.231   2.428   4.489  0.8513 -1.0952 -0.7195
 4070TIP3    H233626   0.191   2.326   4.385 -1.1067  0.7339 -1.8433
 4071TIP3   OH233627   5.139   1.556  13.268 -0.1891 -0.2261 -0.0184
 4071TIP3    H133628   5.074   1.530  13.332  0.0824  0.3741  0.5102
 4071TIP3    H233629   5.170   1.473  13.231 -1.2958 -0.5130 -0.3407
 4072TIP3   OH233630   4.108   1.463   0.472  0.3542  0.3089 -0.1320
 4072TIP3    H133631   4.058   1.413   0.537  2.9629 -1.6854  0.5414
 4072TIP3    H233632   4.172   1.512   0.524 -0.1822  1.9795 -1.0047
 4073TIP3   OH233633   2.825   0.604  16.914  0.0709 -0.5736  0.5627
 4073TIP3    H133634   2.920   0.596  16.898  0.1794 -2.3866  1.8024
 4073TIP3    H233635   2.817   0.607  17.009 -0.9987  2.3041  0.4587
 4074TIP3   OH233636   6.776   2.617  12.878 -0.0345 -0.3908  0.2790
 4074TIP3    H133637   6.819   2.676  12.940  0.9266 -0.1477 -0.5834
 4074TIP3    H233638   6.745   2.675  12.807  0.0461 -0.8083 -0.1017
 4075TIP3   OH233639   3.645   4.339   2.777 -0.0788 -0.7894 -0.5867
 4075TIP3    H133640   3.669   4.370   2.690  1.2635  0.0932  0.0528
 4075TIP3    H233641   3.593   4.260   2.762  0.4339 -0.8519 -2.1601
 4076TIP3   OH233642   1.120   0.105  17.184 -0.3923 -0.1410  0.4241
 4076TIP3    H133643   1.215   0.103  17.175 -0.4910 -0.8878 -0.8725
 4076TIP3    H233644   1.098   0.021  17.225 -0.4443  0.3569  1.4262
 4077TIP3   OH233645   1.754   0.992  12.133 -0.3947  0.4829 -0.5554
 4077TIP3    H133646   1.764   0.911  12.183  0.8016  1.1311  0.3291
 4077TIP3    H233647   1.836   1.001  12.085  0.0951  1.8419  0.4509
 4078TIP3   OH233648   3.614   3.592   2.923 -0.2565 -0.3440 -0.1206
 4078TIP3    H133649   3.705   3.562   2.914  0.6973  2.2727 -0.0658
 4078TIP3    H233650   3.566   3.544   2.856  1.6773  0.0275 -1.8795
 4079TIP3   OH233651   2.992   3.418  14.162  0.2217  0.3446 -0.2022
 4079TIP3    H133652   3.079   3.424  14.120 -0.7133  1.6829 -2.1045
 4079TIP3    H233653   2.931   3.447  14.094 -1.9909 -2.7237  0.2813
 4080TIP3   OH233654   3.354   6.304   4.668  0.5172 -0.2212  0.5417
 4080TIP3    H133655   3.378   6.380   4.720 -0.8816  0.0624  0.7911
 4080TIP3    H233656   3.265   6.321   4.639  0.0779 -1.8752  0.8196
 4081TIP3   OH233657   2.095   3.806   3.445  0.1139 -0.1037  0.4213
 4081TIP3    H133658   2.169   3.787   3.501  1.2236 -1.3898 -1.3619
 4081TIP3    H233659   2.102   3.743   3.373 -2.7525 -0.3295  0.1900
 4082TIP3   OH233660   3.086   3.018  12.567  0.1089 -0.5248  0.3346
 4082TIP3    H133661   3.164   2.964  12.553 -0.5445 -1.1975 -0.8565
 4082TIP3    H233662   3.019   2.978  12.513 -0.4100  1.4937 -0.5985
 4083TIP3   OH233663   3.741   2.245   5.894  0.4588  0.4996  0.4400
 4083TIP3    H133664   3.809   2.251   5.961 -0.8857  3.4032  1.7216
 4083TIP3    H233665   3.710   2.335   5.882 -2.5253 -0.5417 -0.7382
 4084TIP3   OH233666   0.251   6.776   4.390  0.2570  0.2304 -0.7549
 4084TIP3    H133667   0.234   6.855   4.339 -0.5910  0.8682  0.4763
 4084TIP3    H233668   0.168   6.730   4.391  0.2749  0.1939 -0.0231
 4085TIP3   OH233669   3.865   2.452   6.551  0.4366  0.0097  0.0948
 4085TIP3    H133670   3.789   2.482   6.601  0.5081 -1.4206  1.1247
 4085TIP3    H233671   3.940   2.480   6.603  0.5613 -0.2097  0.0317
 4086TIP3   OH233672   1.968   3.011   0.164  0.0490  0.0645 -0.4849
 4086TIP3    H133673   1.960   2.928   0.211 -0.1980 -0.3042 -1.1697
 4086TIP3    H233674   1.879   3.046   0.162  0.3401  0.9298  0.8357
 4087TIP3   OH233675   5.849   5.827  12.999  0.4301  0.3714  0.3658
 4087TIP3    H133676   5.840   5.843  12.905 -0.0112  1.4871  0.5805
 4087TIP3    H233677   5.842   5.732  13.009  2.3034  0.0496 -0.9196
 4088TIP3   OH233678   2.137   6.109  14.581 -0.4755 -0.5096 -0.1149
 4088TIP3    H133679   2.101   6.024  14.554 -2.3882 -0.4084  1.8530
 4088TIP3    H233680   2.098   6.172  14.521 -2.3486 -0.6177  0.9089
 4089TIP3   OH233681   6.294   0.484   4.282  0.4232 -0.3969 -0.4500
 4089TIP3    H133682   6.263   0.503   4.194  0.3887  3.5197  0.2249
 4089TIP3    H233683   6.217   0.496   4.338  1.0427 -0.0816  0.3646
 4090TIP3   OH233684   4.842   0.378  11.613 -0.3050 -0.0878  0.1930
 4090TIP3    H133685   4.908   0.326  11.659  1.8326  0.8312 -1.5831
 4090TIP3    H233686   4.890   0.416  11.539 -3.1836 -0.4211 -2.0040
 4091TIP3   OH233687   5.988   5.728   1.874  0.1990 -0.0424  0.1823
 4091TIP3    H133688   5.934   5.650   1.865  0.5678 -0.3648  0.6725
 4091TIP3    H233689   5.928   5.801   1.861 -0.1366 -0.4094 -0.3512
 4092TIP3   OH233690   1.120   6.275   0.158  0.5521  0.5821 -0.4674
 4092TIP3    H133691   1.039   6.301   0.115  0.1638 -0.2013 -0.2397
 4092TIP3    H233692   1.100   6.280   0.251  0.4331 -0.5520 -0.4118
 4093TIP3   OH233693   1.566   6.599   2.931  0.0873 -0.0330 -0.2171
 4093TIP3    H133694   1.588   6.655   2.856 -0.9464  0.7845  0.0597
 4093TIP3    H233695   1.499   6.540   2.897 -1.1893  1.0570  0.3020
 4094TIP3   OH233696   1.933   3.933   0.490 -0.1421  0.3740 -0.1486
 4094TIP3    H133697   1.844   3.907   0.514  0.4252 -0.1386  1.4976
 4094TIP3    H233698   1.923   4.019   0.450 -1.0854  1.7332  2.7811
 4095TIP3   OH233699   2.791   3.590   2.737  0.0978  0.3279  0.1394
 4095TIP3    H133700   2.728   3.539   2.685  1.1758  0.3177 -1.2099
 4095TIP3    H233701   2.769   3.569   2.827  0.9744 -3.1803 -0.3131
 4096TIP3   OH233702   2.390   4.165   2.914 -0.0908 -0.0537  0.2748
 4096TIP3    H133703   2.465   4.190   2.860  1.6938 -1.3849  1.9606
 4096TIP3    H233704   2.419   4.184   3.004 -2.5114  1.0797  0.8827
 4097TIP3   OH233705   2.771   4.646   4.163  0.0911  0.7107 -0.1605
 4097TIP3    H133706   2.757   4.592   4.242 -0.9776  1.9788  0.5554
 4097TIP3    H233707   2.802   4.730   4.197 -2.4065  2.0107 -0.8789
 4098TIP3   OH233708   5.489   6.514   4.585  0.2540  0.6215  0.4366
 4098TIP3    H133709   5.564   6.466   4.620 -0.4344  0.0266  1.1373
 4098TIP3    H233710   5.508   6.524   4.492  1.4791  1.0227  0.7041
 4099TIP3   OH233711   1.150   3.765   2.875 -0.1340 -0.5550 -0.0139
 4099TIP3    H133712   1.201   3.755   2.955  1.1165 -1.7974 -0.9306
 4099TIP3    H233713   1.190   3.704   2.812 -2.0547 -0.7673 -1.1160
 4100TIP3   OH233714   4.888   3.016  16.296  0.0334  0.5153  0.1970
 4100TIP3    H133715   4.912   2.925  16.314  0.2194  0.4427 -0.3795
 4100TIP3    H233716   4.940   3.039  16.218 -1.3803  0.5271 -0.7708
 4101TIP3   OH233717   6.018   4.853   1.767 -0.2035 -0.5367  0.4012
 4101TIP3    H133718   6.107   4.819   1.767  0.2558  0.5173  2.4910
 4101TIP3    H233719   5.975   4.809   1.694  1.8880 -1.4049 -0.3671
 4102TIP3   OH233720   6.641   3.063   2.160 -0.5745 -0.0224 -0.0229
 4102TIP3    H133721   6.612   3.002   2.228 -4.2340  3.3694  1.9794
 4102TIP3    H233722   6.691   3.129   2.208  0.2375  0.3897 -1.4062
 4103TIP3   OH233723   5.488   0.385   5.744 -0.0630 -0.1114  0.3519
 4103TIP3    H133724   5.567   0.436   5.724 -0.1449  0.2598  0.9778
 4103TIP3    H233725   5.487   0.377   5.839 -1.6059  1.2240  0.4857
 4104TIP3   OH233726   2.790   0.027  12.715  0.2105 -0.4386 -0.5459
 4104TIP3    H133727   2.820   0.085  12.785  0.8296 -0.2486 -0.9559
 4104TIP3    H233728   2.706   0.064  12.687 -0.2563 -0.7760  0.3867
 4105TIP3   OH233729   6.671   2.833  16.529 -0.0002  0.4681  0.0806
 4105TIP3    H133730   6.752   2.884  16.522 -0.6456  1.3540 -1.0459
 4105TIP3    H233731   6.643   2.818  16.439 -0.1614 -1.3855  0.3916
 4106TIP3   OH233732   1.263   0.682   3.545 -0.3285  0.3142  0.1118
 4106TIP3    H133733   1.190   0.744   3.537 -0.4375  0.2766  0.8001
 4106TIP3    H233734   1.272   0.667   3.639  0.1496 -0.1826 -0.0089
 4107TIP3   OH233735   2.861   5.974   2.625 -0.2595 -0.2569  0.0444
 4107TIP3    H133736   2.838   5.963   2.532  0.2825 -0.0644 -0.1183
 4107TIP3    H233737   2.923   5.903   2.643  3.4349  2.3688 -1.0745
 4108TIP3   OH233738   4.715   2.956   4.482  0.3256 -1.3376 -0.2999
 4108TIP3    H133739   4.626   2.921   4.479 -0.5322  0.7545 -1.2478
 4108TIP3    H233740   4.767   2.896   4.429 -0.9540 -1.4642 -1.4496
 4109TIP3   OH233741   1.849   5.001   2.965 -0.4739 -0.8511 -0.1288
 4109TIP3    H133742   1.869   4.916   3.002  1.2996 -0.7970 -0.8520
 4109TIP3    H233743   1.844   4.986   2.870  0.2861 -0.1020 -0.3050
 4110TIP3   OH233744   0.898   6.623   2.475  0.5700 -0.6701  0.1852
 4110TIP3    H133745   0.918   6.601   2.384  2.7687  0.9777  0.1805
 4110TIP3    H233746   0.812   6.664   2.471  0.4415 -1.0073 -1.0766
 4111TIP3   OH233747   0.333   0.113   2.453 -0.0525  0.1705  0.5770
 4111TIP3    H133748   0.341   0.193   2.506  1.2494 -0.2697  1.0921
 4111TIP3    H233749   0.311   0.045   2.516  0.3176 -0.1418  0.3719
 4112TIP3   OH233750   1.400   1.550  13.636  0.1922 -0.0822  0.3194
 4112TIP3    H133751   1.332   1.582  13.577  0.3913 -0.7537 -0.2927
 4112TIP3    H233752   1.409   1.457  13.614  1.4197  0.0279  0.2657
 4113TIP3   OH233753   1.121   2.021   2.351 -0.2393 -0.0088  0.5465
 4113TIP3    H133754   1.072   1.953   2.305  0.5730  0.3176 -0.8849
 4113TIP3    H233755   1.180   1.973   2.409 -1.2840 -0.4338  1.2824
 4114TIP3   OH233756   1.425   5.989   4.687  0.6797 -0.6431 -0.1955
 4114TIP3    H133757   1.505   6.033   4.656  0.8014 -0.5501  0.2530
 4114TIP3    H233758   1.405   6.031   4.770 -0.0531 -0.4038 -0.4843
 4115TIP3   OH233759   6.080   6.120   2.791 -0.2263  0.1267 -0.0682
 4115TIP3    H133760   6.071   6.209   2.759 -1.2353  0.0187 -0.1049
 4115TIP3    H233761   6.140   6.078   2.729 -1.8129  0.0406 -1.5939
 4116TIP3   OH233762   6.015   6.018   3.192 -0.1256 -0.7495 -0.7367
 4116TIP3    H133763   6.010   5.923   3.192  0.3328 -0.7821 -1.5546
 4116TIP3    H233764   6.087   6.039   3.132  0.1072  0.0959 -0.1817
 4117TIP3   OH233765   6.537   2.644   4.671 -0.2771  0.2492 -0.5911
 4117TIP3    H133766   6.452   2.652   4.712  0.2765  0.4540  0.5500
 4117TIP3    H233767   6.567   2.735   4.660  0.2736  0.1527  0.0596
 4118TIP3   OH233768   3.078   3.984  14.778 -0.4783 -0.0852  0.1718
 4118TIP3    H133769   2.990   3.967  14.813 -1.4874 -1.0772 -2.5684
 4118TIP3    H233770   3.068   4.065  14.727  0.5384  0.4654  0.8123
 4119TIP3   OH233771   6.475   3.866   2.626  0.0779 -0.9502 -0.1251
 4119TIP3    H133772   6.390   3.822   2.619 -0.6296  0.5856 -2.1519
 4119TIP3    H233773   6.537   3.803   2.589 -0.2891 -1.7079  0.5071
 4120TIP3   OH233774   5.159   6.577  11.523  0.1217 -0.2976 -0.0509
 4120TIP3    H133775   5.185   6.538  11.439 -0.4869  0.2139 -0.4895
 4120TIP3    H233776   5.212   6.531  11.588  1.7547  0.3638 -0.8475
 4121TIP3   OH233777   6.052   3.509   4.116 -0.0088 -0.4875  0.3496
 4121TIP3    H133778   5.959   3.495   4.128 -0.1190  0.0878  0.2128
 4121TIP3    H233779   6.065   3.508   4.021  0.1285 -0.5984  0.3688
 4122TIP3   OH233780   1.298   6.629  12.178  0.4837 -0.3186  0.3740
 4122TIP3    H133781   1.279   6.542  12.212  2.6516 -0.7878  0.5587
 4122TIP3    H233782   1.250   6.688  12.236 -1.2438 -1.3704  0.0785
 4123TIP3   OH233783   0.900   4.002   5.210 -0.1109  0.5387  0.0706
 4123TIP3    H133784   0.866   3.917   5.181 -0.3774  0.2725  1.1323
 4123TIP3    H233785   0.995   3.991   5.210 -0.1656  0.0092  0.8570
 4124TIP3   OH233786   6.265   0.645  16.781 -0.3318 -0.2837  0.0336
 4124TIP3    H133787   6.263   0.725  16.729 -0.9851 -0.1648  0.2388
 4124TIP3    H233788   6.329   0.590  16.737 -0.2305  0.1622 -0.3859
 4125TIP3   OH233789   4.518   6.778  14.900 -0.1612 -0.4298 -0.4964
 4125TIP3    H133790   4.496   6.692  14.935  1.0708 -0.4715  0.2094
 4125TIP3    H233791   4.568   6.820  14.969  0.0235  0.5103 -1.1918
 4126TIP3   OH233792   2.764   0.584   4.612  0.1977 -0.4609 -0.5067
 4126TIP3    H133793   2.847   0.539   4.601 -0.4437 -2.0070  0.6381
 4126TIP3    H233794   2.717   0.566   4.530  0.8217  0.1001 -1.0010
 4127TIP3   OH233795   4.193   1.685  14.006 -0.4060  0.2334  0.5337
 4127TIP3    H133796   4.242   1.755  14.048 -0.4335  0.6934 -0.1825
 4127TIP3    H233797   4.101   1.713  14.012 -0.3643  0.5954 -0.3357
 4128TIP3   OH233798   4.838   1.180  16.622 -0.0152  0.1705 -0.0168
 4128TIP3    H133799   4.765   1.135  16.578  0.3394 -0.9867  0.5514
 4128TIP3    H233800   4.880   1.112  16.674  0.6967  1.1203  0.6728
 4129TIP3   OH233801   5.103   3.834   6.042 -0.0964 -0.7445 -0.5487
 4129TIP3    H133802   5.011   3.840   6.071  0.2496 -0.5988  0.5881
 4129TIP3    H233803   5.148   3.794   6.116  1.3576  2.3166  0.3751
 4130TIP3   OH233804   2.516   0.201  11.930 -0.4271  0.3925  0.0732
 4130TIP3    H133805   2.554   0.215  12.016 -1.9469  0.8034  0.7163
 4130TIP3    H233806   2.430   0.243  11.935 -0.5633  0.3767 -1.6292
 4131TIP3   OH233807   0.445   6.768  11.585 -0.1318 -0.2471  0.0260
 4131TIP3    H133808   0.486   6.832  11.644  0.7094  0.3043 -1.1313
 4131TIP3    H233809   0.457   6.804  11.497 -1.6679 -0.8823 -0.4882
 4132TIP3   OH233810   0.754   2.215   3.059 -0.0309  0.2347 -0.1639
 4132TIP3    H133811   0.756   2.300   3.015  0.3846  0.0900 -0.4245
 4132TIP3    H233812   0.844   2.182   3.054 -0.1953 -0.2380 -0.1016
 4133TIP3   OH233813   0.962   3.311   6.170 -0.6235  0.3139  0.0114
 4133TIP3    H133814   1.049   3.303   6.210  0.2534 -0.5185 -1.9118
 4133TIP3    H233815   0.901   3.296   6.242  0.8426  0.0823  1.2580
 4134TIP3   OH233816   4.636   5.698  14.928 -0.0569  0.5782 -0.4464
 4134TIP3    H133817   4.681   5.617  14.951 -1.6880 -0.2512 -0.0466
 4134TIP3    H233818   4.626   5.745  15.011  1.7633  1.7203 -0.8058
 4135TIP3   OH233819   0.987   5.612  15.966 -0.2464 -0.1808 -0.1801
 4135TIP3    H133820   1.048   5.619  16.040 -1.2414  1.4473  0.5284
 4135TIP3    H233821   0.900   5.614  16.006 -0.7975 -0.4251 -1.3253
 4136TIP3   OH233822   4.622   6.196   2.691 -0.2987  0.6762  0.3834
 4136TIP3    H133823   4.717   6.201   2.684 -0.3284 -0.4313 -3.0628
 4136TIP3    H233824   4.590   6.249   2.618 -2.2106 -0.8043  0.0630
 4137TIP3   OH233825   5.479   5.132   0.752  0.1075 -0.6508  0.5379
 4137TIP3    H133826   5.474   5.149   0.846 -0.5522 -1.1144  0.5950
 4137TIP3    H233827   5.563   5.169   0.725  0.3623 -0.6309  1.3353
 4138TIP3   OH233828   5.923   2.316   1.810 -0.5278 -0.3224  0.1310
 4138TIP3    H133829   5.964   2.318   1.723  0.2407  0.0155  0.4945
 4138TIP3    H233830   5.874   2.398   1.815  1.5240  0.9264  0.9918
 4139TIP3   OH233831   1.520   3.188  17.096 -0.2682  0.4798 -0.5416
 4139TIP3    H133832   1.526   3.225  17.184  1.2657 -1.1949  0.1215
 4139TIP3    H233833   1.586   3.118  17.094 -0.4448  0.2787 -2.9351
 4140TIP3   OH233834   5.778   5.321   5.761  0.1261 -0.2560 -0.2947
 4140TIP3    H133835   5.696   5.293   5.723 -0.8947  1.8526  0.1869
 4140TIP3    H233836   5.838   5.329   5.687 -0.5262 -0.4266 -0.8475
 4141TIP3   OH233837   3.819   4.188   1.456 -0.2523  0.7454  0.0884
 4141TIP3    H133838   3.869   4.234   1.389 -0.0716 -1.1124 -1.1148
 4141TIP3    H233839   3.728   4.194   1.426 -0.0519 -1.1586 -1.0897
 4142TIP3   OH233840   4.971   0.500   4.440 -0.0250  0.5705 -0.1959
 4142TIP3    H133841   4.946   0.427   4.496  0.6805 -1.1071 -1.9230
 4142TIP3    H233842   4.889   0.547   4.422 -0.5310  0.0663  0.7594
 4143TIP3   OH233843   4.741   1.098   1.836  0.2353 -0.0190 -0.1533
 4143TIP3    H133844   4.677   1.102   1.764  0.2969 -0.5505 -0.2434
 4143TIP3    H233845   4.826   1.095   1.792  0.2990  0.1856 -0.0434
 4144TIP3   OH233846   0.684   6.215  11.814  0.3069 -0.1755 -0.5743
 4144TIP3    H133847   0.727   6.131  11.798  0.9299  0.2746 -1.4002
 4144TIP3    H233848   0.667   6.250  11.726  1.2873  1.1600 -0.2773
 4145TIP3   OH233849   1.486   1.242  14.798  0.0258  0.3512 -0.1082
 4145TIP3    H133850   1.535   1.162  14.818  1.1030  0.5847 -1.5830
 4145TIP3    H233851   1.459   1.276  14.883  1.4010 -0.4540  0.6993
 4146TIP3   OH233852   3.985   2.218   1.169  0.2123 -0.2537  0.4361
 4146TIP3    H133853   3.893   2.242   1.181 -0.3070 -2.0344  0.1948
 4146TIP3    H233854   4.023   2.225   1.257  0.1488  1.5240  0.3626
 4147TIP3   OH233855   3.931   6.107  13.750 -0.0466 -0.2807  0.2156
 4147TIP3    H133856   3.931   6.196  13.784 -0.0985 -0.1699 -0.0714
 4147TIP3    H233857   3.903   6.116  13.659  1.9483 -0.3379 -0.4644
 4148TIP3   OH233858   6.495   5.467  14.545 -0.8496  0.1501  0.4648
 4148TIP3    H133859   6.444   5.434  14.471  1.1354  1.6890 -1.7346
 4148TIP3    H233860   6.518   5.557  14.520  1.1303  0.2240  2.2994
 4149TIP3   OH233861   4.375   0.854   1.870 -0.2636 -0.4318 -0.0906
 4149TIP3    H133862   4.447   0.795   1.892 -2.3989 -2.8620  0.8127
 4149TIP3    H233863   4.390   0.875   1.777  1.8986 -0.3075  0.2225
 4150TIP3   OH233864   4.583   4.389   1.440  0.0126  0.2260  0.3336
 4150TIP3    H133865   4.568   4.348   1.355  2.0399 -1.0264  0.5022
 4150TIP3    H233866   4.519   4.347   1.498 -0.2664 -0.1305 -0.2241
 4151TIP3   OH233867   1.390   1.079  16.803 -0.0123 -0.3159  0.0330
 4151TIP3    H133868   1.437   1.076  16.887 -1.5383 -0.9750  0.9144
 4151TIP3    H233869   1.407   0.994  16.763  0.7639  0.0205 -0.3636
 4152TIP3   OH233870   3.867   6.304  15.083  0.0037 -0.3604 -0.0982
 4152TIP3    H133871   3.943   6.263  15.043 -0.8770 -1.2019 -0.9713
 4152TIP3    H233872   3.876   6.397  15.064  0.6108 -0.5057 -0.5444
 4153TIP3   OH233873   2.603   4.160  15.985  0.1330  0.0156 -0.0756
 4153TIP3    H133874   2.536   4.137  15.920 -1.7650 -0.1083  1.8387
 4153TIP3    H233875   2.679   4.107  15.960 -1.0034 -1.1049 -1.3333
 4154TIP3   OH233876   3.392   2.948   1.601 -0.2404 -0.2594 -0.0575
 4154TIP3    H133877   3.413   3.015   1.536 -2.5505 -0.5199 -1.1728
 4154TIP3    H233878   3.466   2.949   1.661 -0.8064  4.4229  0.9548
 4155TIP3   OH233879   5.150   2.477  16.832  0.3356 -0.0578 -0.7560
 4155TIP3    H133880   5.081   2.423  16.793 -1.2645  1.5509 -0.3250
 4155TIP3    H233881   5.210   2.496  16.760  0.4394 -1.5964 -1.1128
 4156TIP3   OH233882   4.294   6.352   3.622  0.4240  0.4143 -0.0311
 4156TIP3    H133883   4.303   6.436   3.576  3.0061 -0.1892 -0.7278
 4156TIP3    H233884   4.259   6.292   3.556 -0.9559  0.7575  0.3375
 4157TIP3   OH233885   0.564   6.664  16.762 -0.3467 -0.1804 -0.2823
 4157TIP3    H133886   0.578   6.752  16.797 -0.4146 -0.2799  0.0027
 4157TIP3    H233887   0.628   6.655  16.691 -2.2863  1.1887 -2.3363
 4158TIP3   OH233888   6.445   2.601  12.152  0.1718 -0.7677  0.0361
 4158TIP3    H133889   6.493   2.629  12.230  0.3700 -0.7165 -0.1049
 4158TIP3    H233890   6.363   2.651  12.156  0.9544  0.6528 -0.7617
 4159TIP3   OH233891   4.025   0.248  15.711  0.0065  0.5675 -0.3816
 4159TIP3    H133892   4.108   0.253  15.760  0.4578  2.6248 -1.2655
 4159TIP3    H233893   3.958   0.271  15.776  0.1726 -0.4203  0.1643
 4160TIP3   OH233894   2.057   2.235   4.486  0.0388 -0.2910 -0.0953
 4160TIP3    H133895   2.123   2.167   4.503 -0.1526 -0.2219  0.9752
 4160TIP3    H233896   2.106   2.317   4.489  0.0295 -0.2888  0.0137
 4161TIP3   OH233897   2.251   0.335   2.210  0.3234 -0.0125 -0.0335
 4161TIP3    H133898   2.260   0.244   2.238 -2.7680 -0.6636 -0.7667
 4161TIP3    H233899   2.298   0.385   2.277  1.8368 -2.0856  0.5706
 4162TIP3   OH233900   6.369   3.112  11.848 -0.3232 -0.5273  0.1270
 4162TIP3    H133901   6.448   3.077  11.807 -0.5321  0.5305 -1.2636
 4162TIP3    H233902   6.321   3.034  11.878  1.8065 -1.1529  2.2107
 4163TIP3   OH233903   3.280   6.578  12.535  0.5198  0.2240  0.0695
 4163TIP3    H133904   3.191   6.543  12.546  0.0439  1.2683 -0.3179
 4163TIP3    H233905   3.325   6.512  12.483 -0.0456 -0.2896  0.2152
 4164TIP3   OH233906   4.343   6.645   5.593 -0.4034 -0.5757  0.3347
 4164TIP3    H133907   4.407   6.716   5.591 -0.5587 -0.4439 -0.0803
 4164TIP3    H233908   4.258   6.689   5.601 -0.4915 -0.7159  0.1893
 4165TIP3   OH233909   4.102   0.151   5.274 -0.1414  0.4098  0.2765
 4165TIP3    H133910   4.027   0.191   5.318 -0.3259  0.5832 -0.1912
 4165TIP3    H233911   4.064   0.105   5.199  0.0098 -1.0479  1.0697
 4166TIP3   OH233912   6.534   4.312   4.634 -0.2567 -0.3927 -0.2613
 4166TIP3    H133913   6.574   4.332   4.549 -1.1026 -0.5555 -0.7172
 4166TIP3    H233914   6.607   4.308   4.695  0.1164  3.6322 -0.1637
 4167TIP3   OH233915   1.321   6.371   6.081 -0.3856 -0.3062  0.1914
 4167TIP3    H133916   1.409   6.352   6.049 -0.3786  0.4986 -0.2874
 4167TIP3    H233917   1.298   6.294   6.134 -0.0880 -1.3268 -1.0888
 4168TIP3   OH233918   1.956   2.174   5.137 -0.6134 -0.9123  0.6718
 4168TIP3    H133919   1.928   2.115   5.067 -0.4147 -2.2849  1.6953
 4168TIP3    H233920   2.045   2.200   5.112  0.3580 -3.1904  1.4394
 4169TIP3   OH233921   4.417   1.538  11.934 -0.4428 -0.5157 -0.2109
 4169TIP3    H133922   4.479   1.611  11.938  0.1635 -1.0876  1.4338
 4169TIP3    H233923   4.348   1.561  11.996  0.1290 -1.6551  0.8771
 4170TIP3   OH233924   0.473   5.495  11.823  0.3086  0.0206  0.7311
 4170TIP3    H133925   0.460   5.454  11.737  0.1410 -1.9447  1.6312
 4170TIP3    H233926   0.403   5.560  11.830  0.1717  0.0317 -0.4970
 4171TIP3   OH233927   4.031   0.546  12.681  0.5954 -0.1544  0.5519
 4171TIP3    H133928   4.053   0.473  12.739 -1.2534 -1.1454  0.0703
 4171TIP3    H233929   3.985   0.506  12.608  3.3525  0.9815 -2.0159
 4172TIP3   OH233930   4.393   5.406  12.298 -0.3534  0.1424 -0.2398
 4172TIP3    H133931   4.332   5.336  12.318  0.7243 -1.6218 -2.5660
 4172TIP3    H233932   4.343   5.467  12.243 -0.3382 -0.7661 -1.2941
 4173TIP3   OH233933   5.684   4.453  16.016 -0.5658 -0.0914 -0.0173
 4173TIP3    H133934   5.670   4.519  16.084 -1.7221 -0.1208 -0.2169
 4173TIP3    H233935   5.754   4.488  15.962 -1.3334  1.0974 -0.2649
 4174TIP3   OH233936   0.354   3.518  12.878 -0.9874  0.3944  0.3449
 4174TIP3    H133937   0.279   3.549  12.928 -1.8858  0.4921 -1.0168
 4174TIP3    H233938   0.320   3.502  12.790  0.6294  0.6043 -0.3588
 4175TIP3   OH233939   6.607   2.208  12.619 -0.3349 -0.2503  0.4297
 4175TIP3    H133940   6.584   2.141  12.683 -1.7869  1.7897  2.1837
 4175TIP3    H233941   6.614   2.289  12.670  0.7127  1.0672 -1.6795
 4176TIP3   OH233942   3.155   3.416  12.330  0.6587 -0.3565  0.1427
 4176TIP3    H133943   3.171   3.491  12.273 -2.2810  0.5150  0.3058
 4176TIP3    H233944   3.166   3.339  12.274  2.0079  0.2583 -0.4656
 4177TIP3   OH233945   2.925   0.376  16.343 -0.4327 -0.3879 -0.2171
 4177TIP3    H133946   2.896   0.459  16.380  1.8978  0.0423  0.8394
 4177TIP3    H233947   2.915   0.313  16.414  2.1633  0.0252  0.6156
 4178TIP3   OH233948   2.745   4.756   2.751 -0.2333 -0.3808 -0.1848
 4178TIP3    H133949   2.711   4.778   2.665  0.8407 -1.2589 -0.8726
 4178TIP3    H233950   2.813   4.821   2.768 -0.3668 -0.2749 -0.0645
 4179TIP3   OH233951   2.740   1.201   2.291 -0.3934  0.2405 -0.3935
 4179TIP3    H133952   2.745   1.187   2.197 -0.2897  2.8203 -0.8305
 4179TIP3    H233953   2.672   1.141   2.321 -1.7200  0.6605 -2.3969
 4180TIP3   OH233954   1.386   5.375   2.384  0.2213 -0.2186 -0.0440
 4180TIP3    H133955   1.413   5.310   2.319  2.5166 -0.1099  0.6847
 4180TIP3    H233956   1.441   5.356   2.460  1.3534  2.7901  0.0373
 4181TIP3   OH233957   5.121   1.384  17.196  0.0129  0.0392 -0.1737
 4181TIP3    H133958   5.043   1.431  17.226 -0.2562 -0.9106  0.6762
 4181TIP3    H233959   5.134   1.316  17.262  1.8172  0.4488 -0.0499
 4182TIP3   OH233960   5.534   4.140   6.111 -0.3030  0.6990  0.4454
 4182TIP3    H133961   5.458   4.122   6.056 -0.0046 -1.0719  0.5526
 4182TIP3    H233962   5.605   4.089   6.070  1.3919  3.8067 -0.8253
 4183TIP3   OH233963   1.212   4.346  16.009  0.0124 -0.2399  0.5496
 4183TIP3    H133964   1.159   4.312  15.936  0.0871 -1.9197  1.2408
 4183TIP3    H233965   1.214   4.440  15.994  0.5760 -0.5793 -1.9941
 4184TIP3   OH233966   6.082   1.828   3.301  0.1368  0.4015  0.2851
 4184TIP3    H133967   6.174   1.837   3.325 -0.1799  0.3632  1.5413
 4184TIP3    H233968   6.076   1.868   3.214  1.7975 -1.6360 -0.8787
 4185TIP3   OH233969   5.687   6.423  13.702 -0.0080 -1.0659  0.4715
 4185TIP3    H133970   5.614   6.450  13.757 -0.0550  0.1419 -0.1393
 4185TIP3    H233971   5.650   6.358  13.642 -0.1810 -1.6683  1.2194
 4186TIP3   OH233972   5.913   3.485   0.039 -0.0671 -0.0437  0.2868
 4186TIP3    H133973   5.985   3.456  -0.017 -0.3678 -0.1634 -0.0388
 4186TIP3    H233974   5.956   3.527   0.114  0.3324  0.1308 -0.0402
 4187TIP3   OH233975   0.943   4.430   3.018 -0.5100  0.7221  0.1241
 4187TIP3    H133976   0.979   4.505   2.971  1.0523  0.4818  0.8694
 4187TIP3    H233977   1.000   4.421   3.095 -1.3421 -0.5536  0.6120
 4188TIP3   OH233978   5.824   0.895   5.702 -0.2403  0.1839  0.2049
 4188TIP3    H133979   5.823   0.931   5.790 -1.0015  0.7557 -0.0252
 4188TIP3    H233980   5.830   0.972   5.645 -0.4500 -0.1354 -0.2525
 4189TIP3   OH233981   6.335   5.215   4.298  0.2086 -0.7452 -0.5142
 4189TIP3    H133982   6.338   5.221   4.394  0.9343  0.2950 -0.5868
 4189TIP3    H233983   6.388   5.289   4.268  0.9403 -1.7178 -1.7053
 4190TIP3   OH233984   3.800   0.201  16.467 -0.1346 -0.1781 -0.2262
 4190TIP3    H133985   3.834   0.164  16.386  1.6222  0.9402 -0.0543
 4190TIP3    H233986   3.707   0.178  16.467 -0.3832  0.4981 -2.9752
 4191TIP3   OH233987   3.462   1.051   5.548 -0.1917  0.6790  0.1816
 4191TIP3    H133988   3.405   0.975   5.557 -0.3402  0.3485 -2.6066
 4191TIP3    H233989   3.549   1.019   5.573 -0.5018 -0.0209  0.3903
 4192TIP3   OH233990   1.054   1.549   5.059  0.1658  0.6771  0.2406
 4192TIP3    H133991   0.980   1.605   5.083  0.0965  0.6191  0.1612
 4192TIP3    H233992   1.014   1.473   5.017  0.1655 -0.0546  1.5068
 4193TIP3   OH233993   3.455   6.537   3.362  0.0600  0.9371  0.4940
 4193TIP3    H133994   3.525   6.480   3.394  0.1226  0.7824  0.0808
 4193TIP3    H233995   3.388   6.478   3.328 -0.1931  1.0897  0.7212
 4194TIP3   OH233996   0.353   4.895  12.747  0.3036 -0.1451  0.1335
 4194TIP3    H133997   0.386   4.978  12.712  1.3246 -0.5322  0.1407
 4194TIP3    H233998   0.389   4.829  12.688 -0.4492 -0.5999  0.1711
 4195TIP3   OH233999   1.835   0.539  13.220  0.7066 -0.7219 -0.3752
 4195TIP3    H134000   1.874   0.582  13.297  0.8340 -0.6485 -0.4803
 4195TIP3    H234001   1.822   0.609  13.157 -0.0014 -0.6753 -0.1842
 4196TIP3   OH234002   3.544   1.413  11.572  0.1420  0.7743  0.3091
 4196TIP3    H134003   3.460   1.449  11.600 -0.4673  0.0287 -0.5217
 4196TIP3    H234004   3.575   1.474  11.506 -0.9109 -0.1689 -1.1289
 4197TIP3   OH234005   1.588   0.846   2.304 -0.0140 -0.4054 -0.2915
 4197TIP3    H134006   1.535   0.840   2.384  0.8664 -0.7211  0.2790
 4197TIP3    H234007   1.678   0.833   2.334  0.5278  1.3053 -1.0763
 4198TIP3   OH234008   4.739   5.789   0.765  0.0016  0.6590 -0.3817
 4198TIP3    H134009   4.793   5.773   0.842 -0.2391  0.9883 -0.1395
 4198TIP3    H234010   4.698   5.705   0.746  2.2527 -0.2020 -1.8842
 4199TIP3   OH234011   5.245   2.489   2.645  0.3500 -0.1352  0.0992
 4199TIP3    H134012   5.216   2.535   2.724  0.8671  0.9163 -0.3029
 4199TIP3    H234013   5.339   2.507   2.640  0.3895 -0.4916 -0.5524
 4200TIP3   OH234014   2.869   0.966   1.272  0.1208 -0.4509  0.1870
 4200TIP3    H134015   2.924   0.895   1.238 -0.1623 -0.7408  0.3260
 4200TIP3    H234016   2.780   0.937   1.256 -0.0389 -0.7796  1.5194
 4201TIP3   OH234017   4.885   1.347   4.073 -0.4637  0.0781 -0.0054
 4201TIP3    H134018   4.942   1.376   4.001 -1.5999  2.7073  0.0579
 4201TIP3    H234019   4.937   1.362   4.152  0.8280 -2.9116 -0.1163
 4202TIP3   OH234020   1.168   2.493   2.067  0.1967 -0.6112  0.1232
 4202TIP3    H134021   1.236   2.504   2.134  0.0125 -2.9073  0.7785
 4202TIP3    H234022   1.175   2.401   2.040 -1.8549 -0.5979 -0.6680
 4203TIP3   OH234023   5.468   5.047   5.378  0.0149 -0.2139  0.2353
 4203TIP3    H134024   5.522   4.978   5.417  0.6081  0.4760  0.6531
 4203TIP3    H234025   5.443   5.013   5.293 -0.7208 -1.4718  0.9204
 4204TIP3   OH234026   2.375   4.147   5.155  0.2784 -0.0509 -0.0015
 4204TIP3    H134027   2.359   4.232   5.114 -0.0636  0.5886  1.4020
 4204TIP3    H234028   2.461   4.157   5.197  0.5346 -0.6322 -0.3727
 4205TIP3   OH234029   6.019   6.654   3.548 -0.0507  0.4995  0.4006
 4205TIP3    H134030   6.023   6.740   3.589 -1.0851  0.4750  0.5831
 4205TIP3    H234031   6.082   6.601   3.596  2.7693  1.8715 -1.5526
 4206TIP3   OH234032   5.980   2.956  14.201 -0.1050  0.8928 -0.5149
 4206TIP3    H134033   6.070   2.984  14.220  0.0553  0.4339 -0.5908
 4206TIP3    H234034   5.953   3.011  14.128  0.7852 -0.2335 -1.7450
 4207TIP3   OH234035   1.109   3.974   2.700  0.2329  0.4009  0.0639
 4207TIP3    H134036   1.107   3.881   2.720  1.7031  0.2935 -0.1570
 4207TIP3    H234037   1.092   4.018   2.783  2.3875 -0.0714  0.8234
 4208TIP3   OH234038   3.145   4.172  11.915 -0.2326  0.6314 -0.3116
 4208TIP3    H134039   3.151   4.077  11.926 -0.0602  0.5130 -1.3257
 4208TIP3    H234040   3.059   4.187  11.877 -0.0400  0.8158 -0.6934
 4209TIP3   OH234041   6.361   5.962  12.616 -0.1803 -0.3735 -0.1851
 4209TIP3    H134042   6.456   5.954  12.618 -0.1782 -0.2531  0.1778
 4209TIP3    H234043   6.344   6.048  12.579 -0.1008  0.7028  2.1226
 4210TIP3   OH234044   1.083   3.344   4.435 -0.6616 -0.8047  0.0156
 4210TIP3    H134045   0.988   3.335   4.422 -0.9034 -1.0831  1.7382
 4210TIP3    H234046   1.092   3.405   4.509  0.4789 -1.1306  0.1656
 4211TIP3   OH234047   5.572   6.780  16.656 -0.1919  0.1650  0.0218
 4211TIP3    H134048   5.498   6.836  16.680  0.2770  0.7512  0.1202
 4211TIP3    H234049   5.623   6.833  16.596 -0.3263 -0.5787 -0.7654
 4212TIP3   OH234050   0.301   4.418  16.949 -0.5526 -0.0114 -0.4658
 4212TIP3    H134051   0.220   4.409  16.898 -0.9103  0.1101  0.0666
 4212TIP3    H234052   0.272   4.412  17.040 -0.0472  0.7412 -0.2496
 4213TIP3   OH234053   3.426   1.204   4.528  0.0075  0.4990 -0.1510
 4213TIP3    H134054   3.499   1.255   4.492  0.0514  0.2990 -0.3514
 4213TIP3    H234055   3.416   1.131   4.467 -0.5091  0.6499 -0.2495
 4214TIP3   OH234056   2.038   2.801   0.886 -0.2454  0.4187 -0.4526
 4214TIP3    H134057   2.041   2.716   0.843  2.9777 -1.3102  2.6328
 4214TIP3    H234058   2.096   2.857   0.834 -1.1152  0.2918 -1.5961
 4215TIP3   OH234059   2.584   4.658  15.804  0.4006  0.0575  0.3467
 4215TIP3    H134060   2.578   4.752  15.787 -0.8513 -0.0506  0.0405
 4215TIP3    H234061   2.510   4.621  15.755 -0.8930 -0.7486  2.7222
 4216TIP3   OH234062   3.295   3.809  14.755  0.1090  0.1852 -1.0082
 4216TIP3    H134063   3.214   3.860  14.759  0.5092  0.8068 -0.6698
 4216TIP3    H234064   3.273   3.725  14.794  0.0107  0.8701  0.4485
 4217TIP3   OH234065   4.451   4.909   4.480 -0.2625  0.3207  0.0472
 4217TIP3    H134066   4.382   4.854   4.442 -0.5576  0.7623 -0.0525
 4217TIP3    H234067   4.504   4.847   4.531 -0.3044 -0.1420 -0.4612
 4218TIP3   OH234068   4.440   4.861  12.719 -0.1335 -0.1806  0.7634
 4218TIP3    H134069   4.515   4.913  12.689 -0.9796  1.1600  0.8959
 4218TIP3    H234070   4.454   4.775  12.680  0.1377  0.7819 -1.4249
 4219TIP3   OH234071   5.317   1.468  14.493 -0.2231  0.6240 -0.2435
 4219TIP3    H134072   5.316   1.409  14.418 -0.8548 -0.6025  0.6894
 4219TIP3    H234073   5.225   1.495  14.504  0.1810  2.5487 -1.2060
 4220TIP3   OH234074   5.349   2.014  16.335 -1.0662 -0.7111  0.0151
 4220TIP3    H134075   5.264   1.976  16.313 -0.4685 -1.6328 -0.7378
 4220TIP3    H234076   5.399   1.942  16.373 -0.0817 -0.5686 -0.9760
 4221TIP3   OH234077   0.190   0.274  15.456  0.0218  0.0527  0.4316
 4221TIP3    H134078   0.239   0.234  15.528  0.2534 -2.2060 -0.8608
 4221TIP3    H234079   0.257   0.305  15.395 -0.1166 -0.5013 -0.0250
 4222TIP3   OH234080   3.026   2.281   0.225 -0.2423  0.6876  0.0611
 4222TIP3    H134081   3.027   2.289   0.130 -0.4152  0.3089  0.0251
 4222TIP3    H234082   2.997   2.367   0.256  1.4960  1.3987 -0.1459
 4223TIP3   OH234083   3.333   0.786  13.848 -0.0577 -0.6982  0.7503
 4223TIP3    H134084   3.398   0.813  13.783 -0.5010 -1.0945  0.1345
 4223TIP3    H234085   3.288   0.867  13.873 -0.3571 -0.6409  0.0411
 4224TIP3   OH234086   4.298   5.601  13.685 -0.0759 -0.7210  0.2482
 4224TIP3    H134087   4.313   5.662  13.612  1.3202 -0.9704  0.3013
 4224TIP3    H234088   4.207   5.573  13.674 -0.6431  1.0515 -0.0131
 4225TIP3   OH234089   3.496   1.271  16.959 -0.4171  0.0557 -0.6907
 4225TIP3    H134090   3.491   1.225  17.042 -2.1359  1.4247  0.0392
 4225TIP3    H234091   3.409   1.309  16.947  0.6116  2.3283 -1.6575
 4226TIP3   OH234092   5.801   2.175  12.562 -0.3328  0.4779  0.6870
 4226TIP3    H134093   5.776   2.119  12.636 -0.5740 -1.1825 -0.5918
 4226TIP3    H234094   5.723   2.227  12.544 -0.3358  0.7536  1.4575
 4227TIP3   OH234095   5.943   4.503  17.216 -0.2957  0.2393 -0.2953
 4227TIP3    H134096   6.032   4.531  17.197 -0.4105  0.7357 -0.1239
 4227TIP3    H234097   5.933   4.519  17.310 -0.0654 -1.2374  0.0059
 4228TIP3   OH234098   0.887   1.616   1.902 -0.0106 -0.0188  0.5938
 4228TIP3    H134099   0.967   1.655   1.937  0.4149  1.5138 -1.9011
 4228TIP3    H234100   0.912   1.526   1.879  0.4248 -0.1720  1.6184
 4229TIP3   OH234101   4.230   5.569  15.303  0.8278 -0.2185  0.3926
 4229TIP3    H134102   4.200   5.488  15.262 -0.4665  1.1154 -1.4624
 4229TIP3    H234103   4.159   5.594  15.361  1.2084 -0.3844  0.9339
 4230TIP3   OH234104   5.429   3.614  15.304  0.1650 -0.5530  0.0873
 4230TIP3    H134105   5.403   3.574  15.387  1.3899 -1.0102  0.2701
 4230TIP3    H234106   5.508   3.568  15.279  0.3256  0.2141 -0.8794
 4231TIP3   OH234107   3.370   5.297   1.320  0.0466  0.4827 -0.0563
 4231TIP3    H134108   3.420   5.365   1.365  0.0111  0.0612  0.6258
 4231TIP3    H234109   3.437   5.241   1.280  0.0817  0.7566 -0.3886
 4232TIP3   OH234110   4.285   2.014  16.683  0.0146  0.1245  0.2243
 4232TIP3    H134111   4.201   1.971  16.695  0.3070 -0.4576  0.2441
 4232TIP3    H234112   4.346   1.962  16.737  0.5155  0.1023 -0.3495
 4233TIP3   OH234113   1.675   0.168   5.197  0.4661 -0.1821  0.3478
 4233TIP3    H134114   1.601   0.190   5.255 -0.5913 -0.7141 -0.7530
 4233TIP3    H234115   1.658   0.078   5.171 -0.9748  0.9642 -3.3999
 4234TIP3   OH234116   0.478   1.433   0.897 -0.0532 -0.4318  0.4356
 4234TIP3    H134117   0.388   1.407   0.917  0.3372 -1.9962  0.3275
 4234TIP3    H234118   0.500   1.383   0.819  1.4482 -1.3842  1.4133
 4235TIP3   OH234119   2.719   1.502  15.044  0.3615  0.5199  0.0589
 4235TIP3    H134120   2.810   1.527  15.057  0.6305 -1.3430  2.3915
 4235TIP3    H234121   2.669   1.567  15.093  0.6180  0.2653  0.6702
 4236TIP3   OH234122   0.515   0.168   3.899  0.3326  0.1991 -0.3643
 4236TIP3    H134123   0.522   0.074   3.917 -0.9594 -0.1314 -1.4278
 4236TIP3    H234124   0.581   0.208   3.955  0.0617 -1.2230  1.0396
 4237TIP3   OH234125   5.893   5.583  15.768  0.6570  0.0517  0.0415
 4237TIP3    H134126   5.818   5.594  15.709 -1.4301 -1.7458  2.1626
 4237TIP3    H234127   5.876   5.644  15.839  1.0604 -0.5689  0.6786
 4238TIP3   OH234128   3.305   3.247   3.220 -0.3313 -0.6086  0.1007
 4238TIP3    H134129   3.218   3.210   3.206 -0.2985  0.2153 -3.0044
 4238TIP3    H234130   3.304   3.332   3.176  2.3263 -1.0294 -1.0044
 4239TIP3   OH234131   0.133   2.846   5.408  0.5771  0.5050 -0.5084
 4239TIP3    H134132   0.189   2.787   5.358 -0.4436  1.4418 -2.9730
 4239TIP3    H234133   0.183   2.927   5.414 -0.7061  1.6665 -3.5697
 4240TIP3   OH234134   5.226   3.296   4.165  0.2490  0.7668  0.0607
 4240TIP3    H134135   5.276   3.218   4.189  2.0320  1.7971 -0.1548
 4240TIP3    H234136   5.181   3.271   4.084  0.9579  0.0207 -0.1204
 4241TIP3   OH234137   2.315   4.580   5.286  0.5503  0.5006 -0.1365
 4241TIP3    H134138   2.258   4.649   5.319 -0.2557  1.1634 -2.6713
 4241TIP3    H234139   2.404   4.614   5.299  0.4486 -0.0940  2.8831
 4242TIP3   OH234140   1.191   2.394  14.269 -0.5426 -0.6781  0.6694
 4242TIP3    H134141   1.141   2.368  14.346 -0.8012 -1.4457  0.2591
 4242TIP3    H234142   1.130   2.447  14.217 -0.5531 -0.6365  0.7244
 4243TIP3   OH234143   3.594   4.400  13.781  0.3823  0.0699  0.0087
 4243TIP3    H134144   3.513   4.358  13.808  0.2866  0.7144  0.7779
 4243TIP3    H234145   3.567   4.486  13.747  0.7088  0.1597 -0.0345
 4244TIP3   OH234146   0.324   6.091  13.602 -0.3855 -0.2286 -0.3911
 4244TIP3    H134147   0.357   6.071  13.689 -0.4732 -0.4878 -0.4153
 4244TIP3    H234148   0.229   6.086  13.610 -0.4039  0.0333 -0.4348
 4245TIP3   OH234149   1.747   1.274  17.112 -0.4115  0.0263 -0.3496
 4245TIP3    H134150   1.829   1.320  17.095 -0.1248 -0.6056 -0.7148
 4245TIP3    H234151   1.699   1.331  17.172 -0.2381  0.9819 -1.0985
 4246TIP3   OH234152   3.815   5.357   2.879 -0.3082  0.1814  0.5193
 4246TIP3    H134153   3.728   5.319   2.882 -1.1959  2.0353 -0.2127
 4246TIP3    H234154   3.809   5.426   2.813  2.5914 -1.6924 -1.9875
 4247TIP3   OH234155   1.375   2.150  12.930 -0.4153  0.2447  0.2181
 4247TIP3    H134156   1.361   2.057  12.949 -0.8637  0.0586 -0.9920
 4247TIP3    H234157   1.433   2.180  13.001  1.7568 -1.5393 -0.6890
 4248TIP3   OH234158   4.524   6.574  14.467 -0.3592 -0.0077  0.4246
 4248TIP3    H134159   4.526   6.653  14.521 -0.0591  1.0443 -1.0448
 4248TIP3    H234160   4.614   6.562  14.438 -0.4994 -0.5831  0.2082
 4249TIP3   OH234161   5.005   2.923  12.943  0.1138  0.0147 -0.5829
 4249TIP3    H134162   5.005   2.983  13.018 -2.6881 -2.6599  1.7609
 4249TIP3    H234163   4.939   2.959  12.884 -0.8825 -0.2367  0.3600
 4250TIP3   OH234164   0.525   5.660   5.655  0.2129  0.0835  0.2135
 4250TIP3    H134165   0.541   5.589   5.592 -1.3562 -1.1765  1.1576
 4250TIP3    H234166   0.605   5.662   5.709 -0.3562 -2.2173  1.2885
 4251TIP3   OH234167   1.148   6.306   5.698 -0.0089 -0.8151  0.3349
 4251TIP3    H134168   1.154   6.401   5.685  0.2174 -0.8791 -0.0509
 4251TIP3    H234169   1.093   6.276   5.626 -0.8336 -0.8685  0.9676
 4252TIP3   OH234170   3.079   6.280  16.659 -0.2460  0.4801 -0.4337
 4252TIP3    H134171   3.010   6.269  16.725  0.0228  1.4025  0.0189
 4252TIP3    H234172   3.048   6.230  16.583 -1.1705  0.4637 -0.0608
 4253TIP3   OH234173   6.000   5.270   2.686  0.0391 -0.3058 -0.2082
 4253TIP3    H134174   6.042   5.225   2.613 -0.5328 -0.5179 -0.4094
 4253TIP3    H234175   6.020   5.363   2.670  1.0679 -0.4574  0.1142
 4254TIP3   OH234176   0.032   0.770  10.721 -0.3950  0.0614 -0.7117
 4254TIP3    H134177   0.005   0.755  10.811 -0.8490 -0.9227 -1.0104
 4254TIP3    H234178   0.096   0.842  10.728 -1.5081  1.0146  0.2136
 4255TIP3   OH234179   2.281   3.277   3.781 -0.3647 -0.4893  0.0533
 4255TIP3    H134180   2.191   3.267   3.811 -0.4009  0.2606  0.1998
 4255TIP3    H234181   2.285   3.227   3.699 -1.1934  0.3458 -0.5050
 4256TIP3   OH234182   4.196   5.385  16.051 -0.2206  0.0612  0.1098
 4256TIP3    H134183   4.171   5.392  15.959 -1.1194  1.4383  0.4301
 4256TIP3    H234184   4.115   5.400  16.099  0.8754  3.3531  1.1822
 4257TIP3   OH234185   0.201   4.116   3.683  0.3804 -0.1413 -0.2526
 4257TIP3    H134186   0.249   4.144   3.761 -2.4548  0.4475  1.4140
 4257TIP3    H234187   0.266   4.070   3.631  2.3792 -0.7492  2.5363
 4258TIP3   OH234188   3.770   5.914   5.599 -0.0375  0.2236  0.4032
 4258TIP3    H134189   3.776   5.855   5.674  2.7758 -0.1187  0.0006
 4258TIP3    H234190   3.804   5.998   5.631 -2.1224  1.1386  0.4098
 4259TIP3   OH234191   2.497   2.883   2.420  0.0417  0.1137 -0.1080
 4259TIP3    H134192   2.437   2.953   2.393 -0.8110 -1.0642 -1.4034
 4259TIP3    H234193   2.577   2.901   2.372  0.4926  1.2454  1.0201
 4260TIP3   OH234194   5.996   3.007  15.795  0.2530 -1.0170 -0.6080
 4260TIP3    H134195   6.078   3.056  15.800 -0.0148 -0.5766 -0.4713
 4260TIP3    H234196   6.013   2.939  15.729  0.8026 -1.0805 -0.4092
 4261TIP3   OH234197   5.182   6.073  15.775  0.8222  0.1854  0.4018
 4261TIP3    H134198   5.206   6.113  15.692 -0.0881 -2.2665 -1.1611
 4261TIP3    H234199   5.265   6.049  15.816  1.2764 -0.8672 -1.0540
 4262TIP3   OH234200   4.931   5.147  16.273 -0.4133 -0.4125 -1.4535
 4262TIP3    H134201   4.907   5.063  16.314 -0.2894 -0.5334 -1.6266
 4262TIP3    H234202   4.971   5.122  16.190  0.2624 -0.2064 -1.1893
 4263TIP3   OH234203   3.985   1.724  11.471  0.2695 -0.7273  0.5032
 4263TIP3    H134204   3.944   1.703  11.388 -1.2233 -0.5959  1.1718
 4263TIP3    H234205   3.918   1.772  11.520  2.6553  3.6905 -0.0494
 4264TIP3   OH234206   6.552   1.920  13.996 -0.5979  0.7300  0.2182
 4264TIP3    H134207   6.582   1.881  14.078 -0.5717  0.4293  0.0666
 4264TIP3    H234208   6.618   1.986  13.975 -0.0728  0.1206 -0.0778
 4265TIP3   OH234209   3.718   0.997   5.733  0.1179  0.6325 -0.0721
 4265TIP3    H134210   3.812   0.997   5.752  0.0221  0.7521  0.4081
 4265TIP3    H234211   3.686   0.917   5.775 -0.0056  0.6104 -0.2060
 4266TIP3   OH234212   3.588   6.106   4.000  0.0086 -0.1085  0.4672
 4266TIP3    H134213   3.653   6.055   3.950  1.6362  2.5265 -0.3407
 4266TIP3    H234214   3.617   6.099   4.091  1.9143  1.5031  0.0608
 4267TIP3   OH234215   3.869   1.843   2.364 -0.3773  0.0931  0.1671
 4267TIP3    H134216   3.946   1.874   2.316 -0.6590  0.9746  0.2622
 4267TIP3    H234217   3.807   1.816   2.297  0.5337 -2.0202  0.0931
 4268TIP3   OH234218   3.631   5.100  16.841  0.3355  0.3318  0.2168
 4268TIP3    H134219   3.598   5.156  16.771 -1.7526 -0.2275  0.6757
 4268TIP3    H234220   3.602   5.012  16.817  2.1276 -0.3348  0.3459
 4269TIP3   OH234221   2.997   5.474   5.858 -0.6333 -0.1578  1.2649
 4269TIP3    H134222   3.001   5.534   5.783 -0.7696  0.7430  1.9611
 4269TIP3    H234223   2.989   5.387   5.818 -1.5362  0.3626  0.2412
 4270TIP3   OH234224   6.159   5.177  15.320  0.0479 -0.0760 -0.9740
 4270TIP3    H134225   6.217   5.168  15.396  1.1161 -1.0597 -1.8658
 4270TIP3    H234226   6.196   5.118  15.254 -1.5608 -0.1744 -1.8438
 4271TIP3   OH234227   3.712   4.385  11.914 -0.1226 -0.2218 -0.2556
 4271TIP3    H134228   3.791   4.433  11.939 -0.8073  0.6159  0.3596
 4271TIP3    H234229   3.640   4.444  11.936 -0.9088 -0.7777 -1.2547
 4272TIP3   OH234230   1.761   6.227   2.824 -0.8338  0.1430 -0.2011
 4272TIP3    H134231   1.723   6.286   2.889  1.0216  0.8839  0.2792
 4272TIP3    H234232   1.836   6.188   2.868 -1.0627 -1.3527 -1.0665
 4273TIP3   OH234233   5.396   3.993  14.298 -0.1803  0.6388 -0.8995
 4273TIP3    H134234   5.301   4.000  14.299 -0.1671  1.9481 -2.8945
 4273TIP3    H234235   5.424   4.050  14.226  2.0969  0.0383 -0.5863
 4274TIP3   OH234236   4.432   3.823   2.413 -0.5373  0.2342  0.2717
 4274TIP3    H134237   4.358   3.777   2.453 -1.9080  2.6727  0.7356
 4274TIP3    H234238   4.495   3.832   2.484  0.7314 -2.6141 -0.3331
 4275TIP3   OH234239   4.813   1.779  16.219  0.3891 -0.1132  0.0655
 4275TIP3    H134240   4.797   1.760  16.127  2.5613  1.2715 -0.6849
 4275TIP3    H234241   4.835   1.695  16.258  1.7054 -0.4169 -1.2550
 4276TIP3   OH234242   3.529   3.731  11.979 -0.4431 -0.6598 -0.3761
 4276TIP3    H134243   3.527   3.792  11.906  1.4658 -0.6818 -0.5171
 4276TIP3    H234244   3.504   3.783  12.055 -3.3785 -0.8515 -1.0970
 4277TIP3   OH234245   1.466   6.619   1.287  0.3840  0.0328  0.2549
 4277TIP3    H134246   1.510   6.549   1.334  1.8144  0.1405 -0.8450
 4277TIP3    H234247   1.410   6.661   1.352  1.4194 -0.5321  1.5393
 4278TIP3   OH234248   1.175   1.327  15.582  0.2282  0.2672 -0.3300
 4278TIP3    H134249   1.260   1.296  15.614  1.8293  4.2996 -0.0294
 4278TIP3    H234250   1.187   1.335  15.488  0.4589  1.4606 -0.2104
 4279TIP3   OH234251   5.155   3.500  16.681  0.6116  0.0730 -0.6576
 4279TIP3    H134252   5.167   3.595  16.674  1.7744  0.0394  0.4814
 4279TIP3    H234253   5.242   3.463  16.665  0.2051 -0.8083 -0.9347
 4280TIP3   OH234254   5.915   0.833  11.445  0.2141 -0.0148 -0.5677
 4280TIP3    H134255   5.954   0.810  11.361 -0.6365 -0.4475 -0.8584
 4280TIP3    H234256   5.946   0.765  11.506  1.4164  0.7094 -0.3489
 4281TIP3   OH234257   3.916   0.329  14.221 -0.5093  0.8568  0.5452
 4281TIP3    H134258   3.972   0.273  14.168 -1.6212  0.7605 -0.5684
 4281TIP3    H234259   3.974   0.397  14.254  0.3874  0.3982 -0.0465
 4282TIP3   OH234260   6.425   6.143   2.098 -0.0111  0.0421  0.6296
 4282TIP3    H134261   6.337   6.134   2.060  0.2047 -0.4734  0.2399
 4282TIP3    H234262   6.413   6.204   2.170 -0.7250 -0.1375  0.6768
 4283TIP3   OH234263   1.916   1.798   1.485  0.3406  0.6359 -0.1595
 4283TIP3    H134264   1.825   1.775   1.466  0.3768  0.8541 -0.6221
 4283TIP3    H234265   1.944   1.734   1.551 -0.6766  1.6385  1.3115
 4284TIP3   OH234266   4.025   0.409   0.614  0.2236 -0.6715  0.4144
 4284TIP3    H134267   4.020   0.431   0.707 -0.3646 -1.0644  0.4820
 4284TIP3    H234268   3.963   0.469   0.572  0.4564 -0.5236  0.2824
 4285TIP3   OH234269   2.195   5.021   3.579 -0.0803 -0.2912 -0.2751
 4285TIP3    H134270   2.210   4.928   3.593 -1.7552 -0.3904  1.1444
 4285TIP3    H234271   2.283   5.059   3.575  0.6119 -1.7783  0.2703
 4286TIP3   OH234272   3.278   2.444  16.258  0.4036 -0.5929 -0.4032
 4286TIP3    H134273   3.302   2.466  16.348  0.8241 -0.3697 -0.5691
 4286TIP3    H234274   3.340   2.377  16.232 -0.3468 -1.3911 -0.1879
 4287TIP3   OH234275   4.943   4.153  15.265 -0.3432 -0.7886  0.6723
 4287TIP3    H134276   5.029   4.117  15.245 -0.7321 -1.2840 -0.1636
 4287TIP3    H234277   4.945   4.171  15.359  1.2862  0.8825  0.3515
 4288TIP3   OH234278   2.682   5.740  13.807  0.1065  0.3446  0.6109
 4288TIP3    H134279   2.714   5.825  13.835  0.1368 -0.0640  1.9230
 4288TIP3    H234280   2.587   5.751  13.799 -0.0374  0.2472  1.8969
 4289TIP3   OH234281   4.502   4.527   0.898 -0.1825  0.1112  0.0837
 4289TIP3    H134282   4.486   4.590   0.968 -0.0344  0.9727 -0.6366
 4289TIP3    H234283   4.592   4.497   0.912  0.0411  0.7025 -0.0553
 4290TIP3   OH234284   4.073   3.015  12.170  0.4759  0.6130  0.0281
 4290TIP3    H134285   4.157   3.058  12.187  0.4883  0.9368 -0.8024
 4290TIP3    H234286   4.074   2.938  12.227  1.2058  0.7776  0.2536
 4291TIP3   OH234287   5.974   2.835  15.555  0.2128 -0.1407  0.7885
 4291TIP3    H134288   6.024   2.754  15.543  0.6495  0.3586 -1.1011
 4291TIP3    H234289   5.892   2.819  15.508 -0.1865  0.1109  1.3931
 4292TIP3   OH234290   0.072   6.000  16.886 -0.0423 -0.1015  0.4531
 4292TIP3    H134291   0.117   6.035  16.963  0.8436  1.5717 -0.7814
 4292TIP3    H234292  -0.017   6.034  16.893  0.7829  2.4991 -0.6880
 4293TIP3   OH234293   0.685   6.315  16.595  0.3760 -0.0628  0.0802
 4293TIP3    H134294   0.603   6.359  16.618 -0.4939 -1.2079 -0.6782
 4293TIP3    H234295   0.752   6.382  16.602 -0.8404  1.2877 -0.7034
 4294TIP3   OH234296   0.381   4.131  14.023 -0.1275  0.5993  0.8846
 4294TIP3    H134297   0.364   4.051  13.974  0.6882  1.0668 -0.1909
 4294TIP3    H234298   0.476   4.138  14.028 -0.1517  0.2304  3.1431
 4295TIP3   OH234299   4.031   0.376  14.974 -0.3660  0.0902  0.0082
 4295TIP3    H134300   4.113   0.327  14.975 -1.6505 -2.1995 -0.2279
 4295TIP3    H234301   4.000   0.369  14.884 -1.0350  0.5679  0.1970
 4296TIP3   OH234302   0.974   3.075  16.936  0.2312  0.4896  0.1190
 4296TIP3    H134303   0.901   3.079  16.997  0.5719 -0.1842  0.5813
 4296TIP3    H234304   1.052   3.083  16.990  0.5220  0.4757 -0.2889
 4297TIP3   OH234305   3.563   3.817   1.532 -0.4854 -0.1075  0.2015
 4297TIP3    H134306   3.528   3.786   1.449  1.1582 -1.8875  0.0853
 4297TIP3    H234307   3.544   3.746   1.594 -0.2679  0.4692  0.9465
 4298TIP3   OH234308   6.650   5.941  12.595 -0.1786 -0.7900 -0.6961
 4298TIP3    H134309   6.719   5.916  12.533  0.0198 -3.3802  0.4533
 4298TIP3    H234310   6.629   5.860  12.641 -1.0997  0.8160  1.8826
 4299TIP3   OH234311   6.583   4.286  11.607 -0.2544 -0.3603  0.0327
 4299TIP3    H134312   6.671   4.292  11.568 -0.2516  2.0330  0.2676
 4299TIP3    H234313   6.524   4.288  11.532 -0.1477  0.6794 -0.0443
 4300TIP3   OH234314   2.382   0.182  10.531  0.5360  0.5240 -0.5088
 4300TIP3    H134315   2.402   0.259  10.584  1.6115  0.1048 -0.2706
 4300TIP3    H234316   2.286   0.179  10.528  0.4675  1.2352  0.4146
 4301TIP3   OH234317   4.275   2.742   6.086 -0.3542 -0.4200  0.6758
 4301TIP3    H134318   4.201   2.789   6.124  0.7159  1.9235  0.0079
 4301TIP3    H234319   4.351   2.774   6.134  0.5316 -0.7469 -0.4761
 4302TIP3   OH234320   2.178   0.658   5.288  0.0258  0.4096  0.3190
 4302TIP3    H134321   2.182   0.608   5.206  1.0963 -0.2060  0.7164
 4302TIP3    H234322   2.261   0.706   5.291  0.2854 -0.0610  1.3251
 4303TIP3   OH234323   6.107   4.365   4.479  0.4841 -0.4090  0.0012
 4303TIP3    H134324   6.051   4.318   4.541 -0.5182  1.0739  0.2908
 4303TIP3    H234325   6.196   4.340   4.503  0.1443  0.1692  2.1340
 4304TIP3   OH234326   0.370   4.857   3.372  0.1180 -0.2913 -0.1866
 4304TIP3    H134327   0.398   4.769   3.348 -1.2716 -0.9527  0.5306
 4304TIP3    H234328   0.281   4.864   3.337  0.5117  1.1603 -0.9901
 4305TIP3   OH234329   1.466   1.474  16.360  0.1637  0.2408 -0.0456
 4305TIP3    H134330   1.542   1.417  16.377  0.8565  0.5434 -1.9418
 4305TIP3    H234331   1.402   1.449  16.427  1.3913 -1.0336  0.6990
 4306TIP3   OH234332   5.605   4.635   4.200 -0.5823 -0.5171 -0.5218
 4306TIP3    H134333   5.568   4.614   4.286 -0.2757  0.3076 -0.1769
 4306TIP3    H234334   5.649   4.555   4.172  0.1071 -0.5148  0.5087
 4307TIP3   OH234335   2.836   1.206   3.000 -0.4718  0.9812 -0.3874
 4307TIP3    H134336   2.811   1.205   3.093  0.4336  2.3450 -0.1037
 4307TIP3    H234337   2.832   1.114   2.974 -2.1956  0.7369  0.5857
 4308TIP3   OH234338   4.416   3.725  13.460 -0.1564  0.1448  0.4754
 4308TIP3    H134339   4.401   3.694  13.371  0.9786  1.7704 -0.3260
 4308TIP3    H234340   4.472   3.658  13.499 -1.2359 -0.9403  0.2543
 4309TIP3   OH234341   2.894   0.394  13.701 -0.2142  0.1653 -0.0500
 4309TIP3    H134342   2.985   0.416  13.680  0.0128  1.4461  1.9353
 4309TIP3    H234343   2.901   0.319  13.760 -0.3926  0.6178  0.5552
 4310TIP3   OH234344   2.282   1.013  12.770  0.0554  0.2339  0.8899
 4310TIP3    H134345   2.312   1.082  12.710 -1.2258  1.2324  1.3643
 4310TIP3    H234346   2.300   0.932  12.723 -0.3027  0.9699 -0.5829
 4311TIP3   OH234347   2.836   3.822  13.548 -0.5479 -0.1268  0.1111
 4311TIP3    H134348   2.752   3.785  13.524 -0.8624  0.1005  0.8303
 4311TIP3    H234349   2.823   3.917  13.542 -0.5206 -0.0754  0.7655
 4312TIP3   OH234350   2.998   6.618   3.471 -0.0900 -0.0935 -0.2237
 4312TIP3    H134351   3.081   6.614   3.519 -0.6832 -0.9445  0.7629
 4312TIP3    H234352   2.973   6.527   3.458 -0.9383  0.1538 -0.3983
 4313TIP3   OH234353   4.667   1.681  12.191 -0.3763 -0.2783  0.2576
 4313TIP3    H134354   4.599   1.622  12.159  0.7458 -2.2966  1.4169
 4313TIP3    H234355   4.683   1.653  12.281  2.2448 -0.1365 -0.0958
 4314TIP3   OH234356   1.295   5.502  15.775 -0.0775  0.4877 -0.1583
 4314TIP3    H134357   1.286   5.434  15.841 -0.5223  0.2121 -0.5002
 4314TIP3    H234358   1.209   5.543  15.771 -0.4382 -0.3295 -1.4509
 4315TIP3   OH234359   5.017   4.695   5.484  0.0368  0.0193  0.6142
 4315TIP3    H134360   5.068   4.712   5.405 -1.0291  1.3662  0.1594
 4315TIP3    H234361   5.056   4.751   5.551 -0.0660  0.1259  0.5870
 4316TIP3   OH234362   3.041   1.470  16.638  0.0634  0.0596 -0.1744
 4316TIP3    H134363   3.028   1.514  16.722  0.0180 -0.5235  0.1304
 4316TIP3    H234364   2.990   1.522  16.576 -0.3023  0.2144  0.2472
 4317TIP3   OH234365   5.190   3.886   3.483 -0.1681 -0.4364  0.1402
 4317TIP3    H134366   5.100   3.889   3.516 -0.1598  0.4215  0.1033
 4317TIP3    H234367   5.241   3.859   3.559 -0.2376  0.8731  0.6780
 4318TIP3   OH234368   2.437   6.504   2.500  0.7224 -0.2042 -0.1204
 4318TIP3    H134369   2.396   6.487   2.585  0.0855 -0.4512 -0.4732
 4318TIP3    H234370   2.441   6.599   2.494 -0.0791 -0.1650 -0.2004
 4319TIP3   OH234371   1.931   4.806   1.473 -0.2389 -0.2214  0.2064
 4319TIP3    H134372   1.941   4.770   1.385 -0.5165 -2.2190  0.9437
 4319TIP3    H234373   1.849   4.768   1.506 -0.0663  0.3701  1.3896
 4320TIP3   OH234374   3.480   1.006  11.941 -0.1244  0.4598 -0.5247
 4320TIP3    H134375   3.496   1.093  11.976 -0.6773  0.1927  0.4198
 4320TIP3    H234376   3.564   0.961  11.949  0.3240  1.0662 -1.5570
 4321TIP3   OH234377   4.673   5.863  11.619 -0.2865 -0.1614 -0.1117
 4321TIP3    H134378   4.609   5.809  11.666 -0.3252 -0.7454 -0.8098
 4321TIP3    H234379   4.625   5.943  11.598 -0.5216 -0.2392  0.1239
 4322TIP3   OH234380   3.233   4.777   0.347  0.0639 -0.1048 -0.0368
 4322TIP3    H134381   3.327   4.758   0.354  0.3568  1.4530  0.7311
 4322TIP3    H234382   3.219   4.793   0.254  0.6154 -0.1191 -0.1275
 4323TIP3   OH234383   5.107   5.528  15.101  0.0983 -0.3141 -0.3147
 4323TIP3    H134384   5.117   5.621  15.124  0.3016 -0.4900  0.3206
 4323TIP3    H234385   5.148   5.481  15.173  0.3039 -0.8967 -0.8043
 4324TIP3   OH234386   3.665   4.903   0.311  0.3370  0.2093 -0.1287
 4324TIP3    H134387   3.621   4.976   0.355 -0.9750  0.0668 -1.1509
 4324TIP3    H234388   3.671   4.930   0.220 -0.4983 -1.0986 -0.5999
 4325TIP3   OH234389   6.254   1.887  16.095 -0.1677  0.0241 -0.2028
 4325TIP3    H134390   6.196   1.948  16.140 -2.6641 -0.3098 -2.7337
 4325TIP3    H234391   6.219   1.800  16.117 -1.6269 -0.1388 -2.8345
 4326TIP3   OH234392   1.256   2.818  14.897 -0.2273 -0.6812 -0.1163
 4326TIP3    H134393   1.302   2.819  14.981 -0.6027 -1.2028  0.0947
 4326TIP3    H234394   1.164   2.805  14.919 -0.6341  1.2797 -0.4847
 4327TIP3   OH234395   5.731   6.468   1.124  0.4587 -0.7880 -0.2431
 4327TIP3    H134396   5.734   6.492   1.031  0.6199 -2.9120 -0.8313
 4327TIP3    H234397   5.676   6.536   1.164  0.6346  0.3378 -1.8189
 4328TIP3   OH234398   5.974   2.800  12.344  0.3557  0.2655 -0.2011
 4328TIP3    H134399   5.927   2.809  12.262 -0.8715 -1.9354  0.1794
 4328TIP3    H234400   6.066   2.792  12.319  0.1300  0.7933 -1.2407
 4329TIP3   OH234401   1.550   4.935  14.483  0.3677  0.0572 -0.0507
 4329TIP3    H134402   1.548   4.850  14.526  1.0111 -0.7355 -1.5234
 4329TIP3    H234403   1.491   4.926  14.408  2.3980  0.0085 -1.7384
 4330TIP3   OH234404   3.749   4.681   3.615  0.2177 -0.1448 -0.8445
 4330TIP3    H134405   3.789   4.744   3.675  0.5906 -0.9753 -0.2075
 4330TIP3    H234406   3.810   4.675   3.542 -0.4189  1.1565 -1.5359
 4331TIP3   OH234407   0.805   4.850  14.039  0.3487 -0.1870  0.5236
 4331TIP3    H134408   0.801   4.917  13.970  2.8804  0.1693  0.6275
 4331TIP3    H234409   0.798   4.899  14.121 -1.1956 -0.4573  0.5778
 4332TIP3   OH234410   3.158   3.128  17.253  0.3045 -0.3559  0.4714
 4332TIP3    H134411   3.129   3.160  17.339 -0.8657  0.3070 -0.1454
 4332TIP3    H234412   3.128   3.038  17.250  0.8138 -0.5481  0.9592
 4333TIP3   OH234413   6.729   3.554  11.149  0.5364 -0.4437 -0.1182
 4333TIP3    H134414   6.718   3.459  11.147 -1.1332 -0.4399  2.7684
 4333TIP3    H234415   6.810   3.568  11.198  0.7106 -0.3710 -0.4245
 4334TIP3   OH234416   1.038   1.399  12.107 -0.8658 -0.0525 -0.1986
 4334TIP3    H134417   1.062   1.415  12.016 -0.8651 -1.0768 -0.3925
 4334TIP3    H234418   1.083   1.317  12.130  1.0564  1.3570  1.4723
 4335TIP3   OH234419   3.965   2.670  16.968 -0.4356 -0.1881  0.4792
 4335TIP3    H134420   3.902   2.728  16.924  0.9413  0.5665 -0.5828
 4335TIP3    H234421   4.051   2.699  16.936  0.3992 -1.8460  1.1006
 4336TIP3   OH234422   2.128   0.176  15.033  0.3138 -0.5026  0.3860
 4336TIP3    H134423   2.036   0.147  15.037  0.2633 -0.5652 -0.9551
 4336TIP3    H234424   2.161   0.141  14.951  1.4978 -0.3182  0.7695
 4337TIP3   OH234425   4.358   6.441  11.876 -0.1370  0.0124  0.2344
 4337TIP3    H134426   4.327   6.480  11.958  1.0080 -0.3946  0.8839
 4337TIP3    H234427   4.444   6.479  11.863 -0.7215  0.8651 -1.3537
 4338TIP3   OH234428   1.185   3.749  13.854 -0.0780 -0.5520  0.1888
 4338TIP3    H134429   1.184   3.825  13.795 -1.5255 -0.1369  0.7086
 4338TIP3    H234430   1.170   3.674  13.796  0.0948 -0.3189 -0.1630
 4339TIP3   OH234431   4.129   5.804  15.870  0.1221 -0.3559  0.1737
 4339TIP3    H134432   4.058   5.814  15.805  1.3205  0.1211 -1.1061
 4339TIP3    H234433   4.163   5.716  15.854  0.9868  0.0805 -0.4568
 4340TIP3   OH234434   1.131   1.267   6.006 -0.1852  0.1824  0.3232
 4340TIP3    H134435   1.156   1.305   6.090 -0.8914 -0.0899  0.6609
 4340TIP3    H234436   1.075   1.193   6.028 -2.5582  1.6619 -0.4249
 4341TIP3   OH234437   3.836   0.342  13.368  0.4620  0.2390  0.2473
 4341TIP3    H134438   3.892   0.409  13.328 -1.5518  0.8917 -1.6772
 4341TIP3    H234439   3.877   0.259  13.343  1.3029  0.7092  0.0195
 4342TIP3   OH234440   4.785   0.083  16.064  0.0936 -0.3217  0.2637
 4342TIP3    H134441   4.783   0.174  16.035 -0.5946 -0.0521  1.1155
 4342TIP3    H234442   4.721   0.039  16.008  0.0733 -0.1776  0.1730
 4343TIP3   OH234443   6.029   0.571  13.448 -0.1291 -0.3549  0.0941
 4343TIP3    H134444   5.954   0.564  13.390 -1.2485  1.4041  1.2083
 4343TIP3    H234445   6.102   0.594  13.390 -1.1831  1.2541 -0.6772
 4344TIP3   OH234446   5.302   3.803   3.740 -0.0916 -0.5347 -0.6856
 4344TIP3    H134447   5.392   3.829   3.762 -0.9554  0.4367  2.0361
 4344TIP3    H234448   5.303   3.707   3.744  0.1400 -0.4845  2.7819
 4345TIP3   OH234449   1.013   0.633   1.913 -0.4522  0.0988 -0.2823
 4345TIP3    H134450   0.970   0.691   1.850  0.1641  0.3796 -0.4527
 4345TIP3    H234451   0.976   0.657   1.998 -1.2606 -0.2565 -0.5243
 4346TIP3   OH234452   4.119   3.480   3.283 -0.3404  0.1319 -0.4545
 4346TIP3    H134453   4.136   3.419   3.355 -1.9258 -1.3634 -1.2720
 4346TIP3    H234454   4.065   3.549   3.322 -1.2314 -0.6965 -0.1817
 4347TIP3   OH234455   2.851   5.852   2.353  0.4338  0.1439 -0.0450
 4347TIP3    H134456   2.819   5.765   2.332  0.6734 -0.0208  0.2530
 4347TIP3    H234457   2.799   5.912   2.300  0.2356 -0.1798 -0.2098
 4348TIP3   OH234458   3.991   1.802   1.732  0.2408 -0.5608 -0.2918
 4348TIP3    H134459   4.072   1.853   1.728  0.7168 -1.3570 -1.7211
 4348TIP3    H234460   3.971   1.796   1.825 -0.1379  2.6520 -0.0511
 4349TIP3   OH234461   5.246   4.470  11.855 -0.2880 -0.3670  0.1043
 4349TIP3    H134462   5.275   4.557  11.883 -1.2753  0.0230 -0.0454
 4349TIP3    H234463   5.152   4.470  11.872 -0.3694 -1.2482 -0.3199
 4350TIP3   OH234464   5.841   4.754  14.341 -0.1776 -0.4583  0.4823
 4350TIP3    H134465   5.853   4.673  14.291  3.0380  0.8065 -1.1066
 4350TIP3    H234466   5.888   4.738  14.423  1.1903 -0.0321 -0.1731
 4351TIP3   OH234467   3.523   1.637   6.449  0.3096  0.5601 -0.1280
 4351TIP3    H134468   3.501   1.726   6.476 -1.3737  0.6298 -1.5686
 4351TIP3    H234469   3.448   1.584   6.475  1.1748 -0.4113  0.4781
 4352TIP3   OH234470   2.249   0.117   4.419  0.2031 -0.3901  0.5163
 4352TIP3    H134471   2.288   0.139   4.335 -0.3869  3.4837  1.0649
 4352TIP3    H234472   2.163   0.158   4.417 -0.9186 -2.4764  2.0806
 4353TIP3   OH234473   3.534   5.433  13.784 -0.0274  0.3510  0.2030
 4353TIP3    H134474   3.586   5.453  13.861  3.3021 -0.2792 -1.6780
 4353TIP3    H234475   3.530   5.337  13.782  0.1591  0.3525 -0.5333
 4354TIP3   OH234476   3.192   3.529  11.140 -0.1446  0.5290  0.7861
 4354TIP3    H134477   3.147   3.522  11.224 -0.4095 -0.7299  0.5561
 4354TIP3    H234478   3.198   3.439  11.108 -0.4653  1.0137 -0.7607
 4355TIP3   OH234479   5.979   4.307   6.133  0.1038  0.6364  0.0295
 4355TIP3    H134480   6.070   4.338   6.131  0.3214  0.0279  0.0111
 4355TIP3    H234481   5.941   4.349   6.210  1.4284 -1.7456  2.1409
 4356TIP3   OH234482   0.072   0.608  11.346  0.1007 -0.0715  0.4455
 4356TIP3    H134483  -0.022   0.588  11.348  0.1583 -0.4353 -0.2975
 4356TIP3    H234484   0.075   0.703  11.342 -0.1985  0.0541  2.1681
 4357TIP3   OH234485   0.107   0.746   1.156 -0.6533 -0.5664 -0.2695
 4357TIP3    H134486   0.164   0.794   1.215 -1.2236  0.7040 -0.7018
 4357TIP3    H234487   0.126   0.653   1.173  1.1265 -0.1996 -0.0303
 4358TIP3   OH234488   6.442   6.287   3.799  0.0691 -0.5179 -0.7802
 4358TIP3    H134489   6.415   6.377   3.817 -0.1207 -0.6955 -0.1574
 4358TIP3    H234490   6.361   6.243   3.770  0.2954 -0.3280 -1.7359
 4359TIP3   OH234491   4.397   0.976   1.589 -0.0730  0.4373 -0.2451
 4359TIP3    H134492   4.350   0.926   1.521  0.8311 -1.6850  0.5906
 4359TIP3    H234493   4.490   0.959   1.570  0.1978 -1.0713  2.0500
 4360TIP3   OH234494   6.324   5.286   6.199 -0.4133  0.0708  0.5609
 4360TIP3    H134495   6.240   5.309   6.159 -0.5928  0.3008  1.0620
 4360TIP3    H234496   6.351   5.206   6.154 -0.3809  0.5714 -0.3447
 4361TIP3   OH234497   2.449   0.511   0.060 -0.1710 -0.1747 -0.2959
 4361TIP3    H134498   2.505   0.538   0.132 -3.3236 -1.2641  2.8684
 4361TIP3    H234499   2.395   0.588   0.041 -0.2350 -0.2881 -0.5842
 4362TIP3   OH234500   3.934   2.302   6.337 -0.4031  0.1557  0.6092
 4362TIP3    H134501   4.022   2.273   6.362 -0.0844  0.9954  0.5186
 4362TIP3    H234502   3.900   2.345   6.416  0.5395  2.6628 -0.2302
 4363TIP3   OH234503   5.886   0.566  15.883  0.2516 -0.2200  0.0442
 4363TIP3    H134504   5.960   0.521  15.842 -0.0614  0.4082 -1.2621
 4363TIP3    H234505   5.822   0.575  15.813 -0.8016 -0.1629  0.9867
 4364TIP3   OH234506   2.451   3.987   1.766  0.1997 -0.0932  0.2864
 4364TIP3    H134507   2.389   3.942   1.822  1.3493 -1.8001  0.2674
 4364TIP3    H234508   2.462   3.929   1.690  3.0831 -0.7942  1.1025
 4365TIP3   OH234509   3.830   5.419   0.006 -0.4261  0.1811 -0.3510
 4365TIP3    H134510   3.876   5.378  -0.067  1.0152  0.0176  0.5866
 4365TIP3    H234511   3.751   5.458  -0.032 -0.7723 -1.6706 -1.6116
 4366TIP3   OH234512   4.751   6.542   2.846  0.3865 -0.2497  0.6405
 4366TIP3    H134513   4.751   6.446   2.846  0.0375 -0.2544  1.1807
 4366TIP3    H234514   4.662   6.566   2.823  0.1634 -0.0659  1.6768
 4367TIP3   OH234515   6.664   3.071  12.470 -0.1052 -0.6554  0.1402
 4367TIP3    H134516   6.630   3.124  12.543  1.6864 -0.8515  1.1640
 4367TIP3    H234517   6.642   2.981  12.494 -1.9272 -0.5433 -0.9338
 4368TIP3   OH234518   5.297   0.917  14.308 -0.0821  0.6048  0.0061
 4368TIP3    H134519   5.321   0.836  14.354 -0.8533  0.0956 -0.4504
 4368TIP3    H234520   5.211   0.940  14.345 -0.8359  0.0449 -1.3345
 4369TIP3   OH234521   2.134   5.778   1.791  0.0098  0.3617 -0.6540
 4369TIP3    H134522   2.131   5.858   1.845  1.9212 -0.0995  0.2285
 4369TIP3    H234523   2.047   5.771   1.754 -1.2820  0.9883  2.0109
 4370TIP3   OH234524   4.843   6.196   4.925  0.2421 -0.4650 -0.3025
 4370TIP3    H134525   4.754   6.167   4.906 -0.3788  1.8463 -1.2772
 4370TIP3    H234526   4.899   6.130   4.883 -1.0557 -0.6478 -1.8300
 4371TIP3   OH234527   3.795   3.636  11.951  0.4086 -0.2902  0.1496
 4371TIP3    H134528   3.715   3.687  11.937 -0.0198 -1.1360 -0.5815
 4371TIP3    H234529   3.834   3.675  12.030 -1.2045 -0.4506  1.0779
 4372TIP3   OH234530   0.970   4.126   5.900  0.2814 -0.1565  0.2347
 4372TIP3    H134531   0.877   4.146   5.907  0.8217  2.5641  1.2577
 4372TIP3    H234532   0.982   4.046   5.951 -1.6638 -1.4905 -1.2471
 4373TIP3   OH234533   4.307   3.938  17.097  0.1962  0.0097  0.5754
 4373TIP3    H134534   4.231   3.888  17.069  0.5105  0.4857 -1.3255
 4373TIP3    H234535   4.361   3.876  17.146 -0.2142 -1.0507 -0.2870
 4374TIP3   OH234536   5.056   1.873   0.580  0.2819  0.3790 -0.0789
 4374TIP3    H134537   5.063   1.778   0.586  0.1720  0.2643 -1.4528
 4374TIP3    H234538   4.992   1.897   0.647 -1.8657 -0.8326 -1.5679
 4375TIP3   OH234539   2.021   0.051  12.726 -0.2537 -0.1382 -0.0042
 4375TIP3    H134540   2.078  -0.026  12.724  1.3777  1.0052 -0.2241
 4375TIP3    H234541   2.029   0.089  12.639 -1.3031  0.0974 -0.0066
 4376TIP3   OH234542   4.723   1.293  14.286  0.0749  0.3149 -0.5431
 4376TIP3    H134543   4.762   1.214  14.251  0.3871  0.2418 -0.0370
 4376TIP3    H234544   4.783   1.321  14.356  0.5807  1.6347 -1.4678
 4377TIP3   OH234545   2.779   3.174   4.082  0.7658 -0.2003  0.1270
 4377TIP3    H134546   2.842   3.102   4.082 -0.6858 -1.5367 -1.0037
 4377TIP3    H234547   2.825   3.246   4.039  1.8784 -0.7993  0.2690
 4378TIP3   OH234548   5.557   2.268   5.338  0.5707  0.3220 -0.2545
 4378TIP3    H134549   5.623   2.300   5.399  0.6660  1.3474 -0.8670
 4378TIP3    H234550   5.578   2.311   5.255  2.2548 -3.2343 -1.8972
 4379TIP3   OH234551   0.666   5.760  14.596 -0.6820  0.0144 -0.3744
 4379TIP3    H134552   0.732   5.732  14.533 -0.3581  1.9229 -0.9561
 4379TIP3    H234553   0.671   5.696  14.667  1.0276 -0.4943 -0.9064
 4380TIP3   OH234554   5.093   6.462   2.085 -0.8710 -0.2572 -0.5034
 4380TIP3    H134555   5.152   6.522   2.129  0.1510  0.4833 -2.7274
 4380TIP3    H234556   5.121   6.375   2.112  0.4917  0.1381 -0.5906
 4381TIP3   OH234557   5.063   0.918   3.413 -0.1457 -0.4002  0.2474
 4381TIP3    H134558   5.005   0.851   3.447  0.1832 -0.4182  0.7789
 4381TIP3    H234559   5.141   0.870   3.385  0.3859 -0.1621  1.3005
 4382TIP3   OH234560   3.285   0.568  12.887  0.4033  0.0274 -0.3894
 4382TIP3    H134561   3.192   0.567  12.862  0.5989 -0.6398 -1.1356
 4382TIP3    H234562   3.284   0.578  12.982 -0.4859 -1.4197 -0.2106
 4383TIP3   OH234563   3.460   4.716  16.978 -0.4744 -0.0543  0.2395
 4383TIP3    H134564   3.526   4.756  17.034  1.5184 -0.8814 -1.3888
 4383TIP3    H234565   3.428   4.641  17.028  1.1349 -0.6799  0.3845
 4384TIP3   OH234566   3.905   3.645  12.265 -0.5785  0.4181 -0.3349
 4384TIP3    H134567   3.867   3.557  12.263  0.2127  0.0353  0.4142
 4384TIP3    H234568   3.992   3.632  12.303 -0.8508  1.6688  0.8016
 4385TIP3   OH234569   2.094   0.253  16.526 -0.2388  0.1697 -0.1956
 4385TIP3    H134570   2.159   0.205  16.475 -0.6839 -0.2017 -0.4192
 4385TIP3    H234571   2.081   0.335  16.478  0.9692  0.8002  0.5089
 4386TIP3   OH234572   2.965   4.226   1.457 -0.5676 -0.5750  0.9245
 4386TIP3    H134573   2.890   4.199   1.405 -0.9774  0.8126  0.7473
 4386TIP3    H234574   2.994   4.308   1.417  1.9842 -1.7954  0.0803
 4387TIP3   OH234575   1.347   5.778  10.858  0.9289 -0.2267 -0.5052
 4387TIP3    H134576   1.260   5.737  10.863  1.3863 -1.4096 -1.6197
 4387TIP3    H234577   1.332   5.860  10.810  0.0159  0.9428  1.6525
 4388TIP3   OH234578   6.738   1.857   3.769  0.1154  0.0281  0.3558
 4388TIP3    H134579   6.776   1.882   3.853 -0.1516  1.6084  0.0361
 4388TIP3    H234580   6.657   1.907   3.763 -1.2298 -2.0310  0.2815
 4389TIP3   OH234581   5.537   1.041   1.990  0.1406  0.5669  0.0721
 4389TIP3    H134582   5.570   1.130   1.975 -0.2562  0.5193 -1.1611
 4389TIP3    H234583   5.613   0.985   1.977  0.6481  0.7563  1.8644
 4390TIP3   OH234584   1.548   2.931  14.858  0.5525  0.4040 -0.1622
 4390TIP3    H134585   1.528   2.914  14.766  0.6436  2.0680 -0.5242
 4390TIP3    H234586   1.487   2.876  14.906 -0.0103  0.0614 -1.2288
 4391TIP3   OH234587   2.641   6.133   2.749  0.5770  0.6383 -0.8681
 4391TIP3    H134588   2.564   6.110   2.697 -1.2037  0.1396  1.8133
 4391TIP3    H234589   2.702   6.061   2.735  0.1239  0.4651 -2.1128
 4392TIP3   OH234590   5.840   5.402  16.474  0.3101 -0.0794  0.3334
 4392TIP3    H134591   5.877   5.314  16.483 -1.6582 -0.9142  1.0755
 4392TIP3    H234592   5.846   5.422  16.380 -0.9617 -1.9009 -0.2000
 4393TIP3   OH234593   4.270   4.977  13.723  0.4856  0.4687  0.6521
 4393TIP3    H134594   4.238   4.893  13.756  1.8945 -0.1558  0.4994
 4393TIP3    H234595   4.273   4.966  13.628  2.3209  0.0300  0.7209
 4394TIP3   OH234596   0.511   0.182  16.403  0.2109  0.6156  0.3735
 4394TIP3    H134597   0.496   0.224  16.319  1.0964  1.0155  0.4067
 4394TIP3    H234598   0.587   0.227  16.440  0.1617  0.0935  1.1529
 4395TIP3   OH234599   0.993   5.637  12.444 -0.0986  0.0867 -0.1043
 4395TIP3    H134600   0.923   5.652  12.381 -0.3497 -1.9792 -0.3678
 4395TIP3    H234601   0.948   5.606  12.523  0.4785 -0.7112 -0.0846
 4396TIP3   OH234602   6.360   2.557   3.199  0.3833 -0.6074  0.0647
 4396TIP3    H134603   6.313   2.532   3.120  0.9986 -0.2352 -0.4295
 4396TIP3    H234604   6.426   2.488   3.210 -0.5570 -1.3826  1.0196
 4397TIP3   OH234605   6.695   3.063   0.108  0.2029 -0.1559 -0.5100
 4397TIP3    H134606   6.675   3.004   0.181 -0.0318  1.0404  0.4308
 4397TIP3    H234607   6.673   3.150   0.142  1.7877  0.6185 -1.3911
 4398TIP3   OH234608   1.288   1.916  13.020  0.2088 -0.0302  0.4233
 4398TIP3    H134609   1.249   1.960  13.096  0.0866 -0.3063  0.5212
 4398TIP3    H234610   1.253   1.827  13.023 -0.3904  0.1697 -0.3891
 4399TIP3   OH234611   2.547   6.182   3.355 -0.3652  0.5704  0.0023
 4399TIP3    H134612   2.579   6.184   3.445 -0.7261 -1.6523  0.2464
 4399TIP3    H234613   2.452   6.187   3.363 -0.4096  0.1723 -0.2306
 4400TIP3   OH234614   5.713   1.002  14.115 -0.1776  0.6435  0.5374
 4400TIP3    H134615   5.788   1.060  14.100  1.3859 -1.6608 -1.5625
 4400TIP3    H234616   5.700   0.959  14.031 -2.4941 -0.6371  1.4722
 4401TIP3   OH234617   6.655   5.939  10.847  0.2859 -0.3450  0.7683
 4401TIP3    H134618   6.675   5.887  10.924  2.1303 -0.1880  0.4390
 4401TIP3    H234619   6.739   5.950  10.803 -0.7451 -0.7237 -1.4542
 4402TIP3   OH234620   5.479   5.055   6.247  0.0226  0.4628 -0.2325
 4402TIP3    H134621   5.387   5.047   6.224 -1.0324 -1.5506  3.7596
 4402TIP3    H234622   5.524   5.064   6.164 -3.7478  2.1044 -2.3536
 4403TIP3   OH234623   5.238   3.830  16.088  0.4641 -1.4016  0.2643
 4403TIP3    H134624   5.186   3.786  16.155 -0.3820  0.4353  0.8974
 4403TIP3    H234625   5.281   3.902  16.134  1.0550 -1.0000 -0.8813
 4404TIP3   OH234626   3.356   4.797   4.091  0.1588  0.2770 -0.5151
 4404TIP3    H134627   3.342   4.786   3.997 -1.5371 -0.7475 -0.1862
 4404TIP3    H234628   3.391   4.712   4.120  0.3379  0.4677 -0.1667
 4405TIP3   OH234629   1.915   5.131   0.681 -0.2016  0.0889 -0.1594
 4405TIP3    H134630   1.896   5.042   0.709 -0.0117  0.0231 -0.2388
 4405TIP3    H234631   1.931   5.124   0.587  1.1717 -0.0174  0.0648
 4406TIP3   OH234632   6.279   4.432   4.829  0.2497  0.0396  0.2556
 4406TIP3    H134633   6.370   4.459   4.844 -0.1557  2.2641 -0.8193
 4406TIP3    H234634   6.285   4.360   4.766  1.2913 -0.5030  0.9484
 4407TIP3   OH234635   5.874   4.508  15.592  0.0379  0.3898 -0.4628
 4407TIP3    H134636   5.890   4.425  15.546  0.5131  0.9196 -1.2770
 4407TIP3    H234637   5.901   4.575  15.529  1.0556  1.1302  0.7407
 4408TIP3   OH234638   4.474   1.492   3.704 -0.5423 -0.5243  0.3391
 4408TIP3    H134639   4.509   1.581   3.692 -0.2502 -0.6728  0.0880
 4408TIP3    H234640   4.427   1.473   3.623  2.0671 -1.8142 -0.9936
 4409TIP3   OH234641   6.139   0.825  12.488  0.7069  0.0464 -0.2420
 4409TIP3    H134642   6.202   0.883  12.446 -0.9150  1.3712 -0.9621
 4409TIP3    H234643   6.087   0.789  12.416 -0.8476  0.8094  0.4563
 4410TIP3   OH234644   2.855   0.642   0.607  0.1426  0.3874 -0.0027
 4410TIP3    H134645   2.817   0.729   0.594  1.1122  0.8458  0.1506
 4410TIP3    H234646   2.848   0.627   0.701 -1.5245 -0.4227 -0.2253
 4411TIP3   OH234647   0.450   0.608  14.904 -0.2767  0.0463  0.7855
 4411TIP3    H134648   0.495   0.595  14.988 -2.2289 -0.8435  1.7490
 4411TIP3    H234649   0.461   0.701  14.885 -0.5282  0.4603  2.4905
 4412TIP3   OH234650   1.209   0.936  15.382  0.0597 -0.9562  0.0381
 4412TIP3    H134651   1.205   1.015  15.437  0.7227  0.9079 -2.4305
 4412TIP3    H234652   1.248   0.869  15.440 -0.1181  0.6113  2.0942
 4413TIP3   OH234653   4.930   2.557   0.055  0.2252 -0.2902  0.3446
 4413TIP3    H134654   5.003   2.560  -0.007  0.7386  0.7877  0.9649
 4413TIP3    H234655   4.919   2.464   0.075  1.3100 -0.4926  0.0855
 4414TIP3   OH234656   2.233   2.627   0.466  0.4644 -0.0212  0.2485
 4414TIP3    H134657   2.167   2.621   0.396  0.3472 -1.6486  0.4487
 4414TIP3    H234658   2.269   2.715   0.458 -1.1366  0.6168 -0.4201
 4415TIP3   OH234659   2.928   6.382   0.689 -0.4433 -0.6960 -0.1704
 4415TIP3    H134660   2.941   6.296   0.728  0.8405  0.4165  2.0739
 4415TIP3    H234661   3.004   6.394   0.632  0.4820 -0.2785  1.1063
 4416TIP3   OH234662   0.778   6.058   2.310  0.4878  0.0822  0.5012
 4416TIP3    H134663   0.802   5.982   2.363 -0.3065 -1.1108 -0.7838
 4416TIP3    H234664   0.819   6.042   2.225 -1.6798 -0.1800 -0.5688
 4417TIP3   OH234665   0.903   1.354  14.483  0.5223 -0.6934 -0.3320
 4417TIP3    H134666   0.851   1.283  14.520 -0.2224 -0.1038 -0.2204
 4417TIP3    H234667   0.845   1.430  14.484  0.4361 -0.6567 -2.7744
 4418TIP3   OH234668   5.174   5.925   0.815  0.1959  0.5064  0.1284
 4418TIP3    H134669   5.248   5.935   0.755 -0.0901  0.5123 -0.2229
 4418TIP3    H234670   5.099   5.905   0.759 -0.2624  1.4205  0.3868
 4419TIP3   OH234671   1.641   3.575   3.740  0.0279 -0.0868 -0.4731
 4419TIP3    H134672   1.612   3.613   3.823  1.1500  1.8678 -0.9325
 4419TIP3    H234673   1.560   3.550   3.695 -0.6135 -0.8214  1.0090
 4420TIP3   OH234674   3.378   6.454  11.911 -0.8762  0.1269 -0.2082
 4420TIP3    H134675   3.434   6.529  11.889 -0.3451  0.0075  0.6682
 4420TIP3    H234676   3.292   6.476  11.875  0.1411 -0.5591 -3.3871
 4421TIP3   OH234677   0.497   1.593   3.747 -0.1064 -0.3148  0.0282
 4421TIP3    H134678   0.474   1.654   3.817 -1.4482 -0.9132  0.1409
 4421TIP3    H234679   0.593   1.585   3.752 -0.1029  0.3080  1.2278
 4422TIP3   OH234680   1.560   3.690   6.175  0.5431 -0.3459 -0.5901
 4422TIP3    H134681   1.621   3.619   6.161  0.9582  0.1222 -1.1866
 4422TIP3    H234682   1.486   3.649   6.220  1.3113 -0.9018  0.2088
 4423TIP3   OH234683   6.619   2.375  12.358 -0.4591  0.0146 -0.5177
 4423TIP3    H134684   6.566   2.413  12.428  0.3864 -0.0926  0.1840
 4423TIP3    H234685   6.664   2.301  12.398  1.2609  0.8888 -0.7202
 4424TIP3   OH234686   2.316   4.228  14.910  0.1770 -0.3241 -0.4512
 4424TIP3    H134687   2.321   4.179  14.992  0.0373  1.1780  0.4717
 4424TIP3    H234688   2.397   4.278  14.906  0.3302 -0.6123 -1.4081
 4425TIP3   OH234689   3.801   4.409  16.531 -0.1105 -0.1266  0.0567
 4425TIP3    H134690   3.813   4.389  16.624 -1.5690 -1.6624 -0.0421
 4425TIP3    H234691   3.874   4.467  16.510  0.0290  0.6011  2.2450
 4426TIP3   OH234692   3.620   5.746  14.324  0.1088 -0.0983  0.0254
 4426TIP3    H134693   3.582   5.831  14.345  0.7499 -0.0520  1.0693
 4426TIP3    H234694   3.691   5.765  14.262 -2.1681 -0.2947 -2.8395
 4427TIP3   OH234695   2.707   0.496   1.132 -0.3835  0.1654  0.0267
 4427TIP3    H134696   2.663   0.438   1.194  0.6032 -0.0084  0.5833
 4427TIP3    H234697   2.781   0.445   1.099  0.4820  1.0892  0.5039
 4428TIP3   OH234698   2.200   6.516   5.997 -0.0421  0.1640  0.1276
 4428TIP3    H134699   2.148   6.580   6.045  1.7963  0.4875  1.8351
 4428TIP3    H234700   2.285   6.559   5.985  1.1272 -1.7875  1.0214
 4429TIP3   OH234701   0.803   0.696   5.285 -0.2658  0.0838 -0.4007
 4429TIP3    H134702   0.727   0.663   5.237  0.2570 -0.0567 -1.1480
 4429TIP3    H234703   0.794   0.657   5.373 -1.6390  0.9701 -0.1227
 4430TIP3   OH234704   2.519   0.545   5.425  0.1964  0.4063 -0.0962
 4430TIP3    H134705   2.525   0.638   5.403 -1.7134 -0.1285 -3.6240
 4430TIP3    H234706   2.611   0.518   5.435  0.9062  2.3259 -0.8030
 4431TIP3   OH234707   0.060   5.885  12.373  0.5561  0.3829  0.5411
 4431TIP3    H134708   0.038   5.798  12.339  0.1430  0.8914 -0.5243
 4431TIP3    H234709   0.153   5.879  12.395  0.2862 -0.6404  1.5157
 4432TIP3   OH234710   5.609   1.233  11.305 -0.6394 -0.0263  0.1943
 4432TIP3    H134711   5.581   1.322  11.327  0.6121  0.2495  0.7327
 4432TIP3    H234712   5.704   1.236  11.309 -0.5779 -1.3608  0.0781
 4433TIP3   OH234713   3.282   4.051  16.068  0.0291  0.0693  0.0619
 4433TIP3    H134714   3.303   4.108  15.994 -0.5151  2.1940  1.4492
 4433TIP3    H234715   3.358   4.058  16.126 -0.9778  1.2591  1.2964
 4434TIP3   OH234716   3.939   0.360   2.291 -0.1613  0.0810  0.2027
 4434TIP3    H134717   3.865   0.303   2.269  0.4704 -0.9763  0.7337
 4434TIP3    H234718   3.930   0.435   2.232 -2.6723  0.8984  1.4486
 4435TIP3   OH234719   5.953   1.016   0.600  0.0664  0.0514 -0.6049
 4435TIP3    H134720   5.958   0.997   0.506  0.7850  1.1460 -0.8069
 4435TIP3    H234721   5.973   1.110   0.606  2.6071 -0.5017  0.8685
 4436TIP3   OH234722   1.707   6.505  11.547  0.2392 -0.5955 -0.1310
 4436TIP3    H134723   1.776   6.553  11.501 -0.1302  1.0757  0.9510
 4436TIP3    H234724   1.637   6.570  11.559 -0.5747 -1.6051  0.8131
 4437TIP3   OH234725   3.097   4.744   1.864  0.1546  0.1655  0.2575
 4437TIP3    H134726   3.023   4.803   1.853  0.3769  0.2498 -0.8616
 4437TIP3    H234727   3.109   4.704   1.778 -0.3604 -1.9609  1.1095
 4438TIP3   OH234728   0.175   2.579  13.843 -0.1751  0.1399  0.0270
 4438TIP3    H134729   0.099   2.635  13.859 -1.2419 -1.4511  0.7426
 4438TIP3    H234730   0.225   2.584  13.925 -1.7090 -2.0286  1.2060
 4439TIP3   OH234731   3.803   6.320  10.938 -0.0461  0.1967  0.4198
 4439TIP3    H134732   3.800   6.256  10.867 -0.9251 -0.5951  1.1540
 4439TIP3    H234733   3.800   6.405  10.893 -0.5069 -0.2883 -0.4929
 4440TIP3   OH234734   6.596   3.947   0.218 -0.5365  0.1802 -0.4453
 4440TIP3    H134735   6.651   4.025   0.214  0.3374 -0.2603  1.8304
 4440TIP3    H234736   6.517   3.975   0.264  0.2317 -0.4712  1.3405
 4441TIP3   OH234737   3.778   2.854  15.295  0.1281  0.1006 -0.1927
 4441TIP3    H134738   3.731   2.827  15.216  0.4739 -1.5339  0.1117
 4441TIP3    H234739   3.834   2.779  15.316  1.7629  1.4242  0.3094
 4442TIP3   OH234740   2.577   4.288  15.612 -0.0940 -0.7610  0.3824
 4442TIP3    H134741   2.547   4.372  15.647  1.8655 -0.0784  0.5590
 4442TIP3    H234742   2.592   4.305  15.519  0.0293 -0.9993  0.3583
 4443TIP3   OH234743   5.169   2.903  13.614  1.2259  0.0108 -0.1526
 4443TIP3    H134744   5.105   2.936  13.551  0.7310 -0.0125  0.3309
 4443TIP3    H234745   5.206   2.982  13.653  1.0437  0.0193  0.0071
 4444TIP3   OH234746   1.282   5.140  17.066  0.5694  0.0553  0.1372
 4444TIP3    H134747   1.207   5.188  17.101  0.8026 -0.0253  0.7595
 4444TIP3    H234748   1.351   5.206  17.061 -0.1841  0.7705 -2.7879
 4445TIP3   OH234749   1.212   3.825   0.534  0.4768 -0.4617  0.0098
 4445TIP3    H134750   1.228   3.914   0.501 -1.5100 -0.1795 -0.3569
 4445TIP3    H234751   1.298   3.784   0.537  1.2518  0.9479 -1.3921
 4446TIP3   OH234752   3.387   0.192  15.875  0.2272 -0.6409  0.1961
 4446TIP3    H134753   3.444   0.265  15.850  1.4409 -1.8220 -0.6019
 4446TIP3    H234754   3.409   0.174  15.966  1.7787 -1.6112 -0.3300
 4447TIP3   OH234755   4.535   3.729   5.450  0.9081 -0.6695  0.3897
 4447TIP3    H134756   4.625   3.736   5.480  1.4308 -0.9305 -1.0650
 4447TIP3    H234757   4.525   3.798   5.384  0.2271 -1.0221  0.1064
 4448TIP3   OH234758   3.299   0.246   5.976  0.1268  0.1006  0.4117
 4448TIP3    H134759   3.279   0.155   5.998 -0.8419  0.3812  0.7358
 4448TIP3    H234760   3.356   0.276   6.047  0.3141 -0.2003  0.3913
 4449TIP3   OH234761   1.799   5.435   1.961 -0.9276  0.7232 -0.4286
 4449TIP3    H134762   1.830   5.345   1.969  1.1157  1.5030  1.4868
 4449TIP3    H234763   1.826   5.462   1.873  0.7756  0.2457 -0.0832
 4450TIP3   OH234764   1.434   3.411   5.252  0.0916  0.2497 -0.0943
 4450TIP3    H134765   1.476   3.421   5.338  0.3752  3.9078 -0.4960
 4450TIP3    H234766   1.340   3.420   5.270  0.1643  1.2337 -0.1273
 4451TIP3   OH234767   4.485   0.957  14.703 -0.1852  0.3457 -0.0533
 4451TIP3    H134768   4.456   1.023  14.640 -0.6501 -1.5111 -1.8716
 4451TIP3    H234769   4.468   0.873  14.660 -1.1204 -1.0587  2.7903
 4452TIP3   OH234770   2.049   0.011  11.890  0.2269  0.4503  0.0258
 4452TIP3    H134771   1.963   0.048  11.869  0.4543  1.1103  0.2334
 4452TIP3    H234772   2.075  -0.035  11.811 -0.2796  0.3264 -0.0726
 4453TIP3   OH234773   2.390   4.946   5.966  0.1880 -0.0327 -0.3273
 4453TIP3    H134774   2.474   4.935   6.011  0.3506 -0.8188 -0.8112
 4453TIP3    H234775   2.357   4.858   5.954 -0.7274  0.2736 -0.1334
 4454TIP3   OH234776   3.806   3.374  12.244  0.1996  0.2722 -0.1966
 4454TIP3    H134777   3.815   3.279  12.240  2.3795  0.4609 -1.4334
 4454TIP3    H234778   3.725   3.392  12.196  0.3427 -0.8985 -0.9271
 4455TIP3   OH234779   6.628   4.519   6.740  0.1474  0.8594 -0.5050
 4455TIP3    H134780   6.550   4.487   6.696 -0.8497  2.2511  0.1788
 4455TIP3    H234781   6.680   4.560   6.671 -0.4161  1.1995 -0.7265
 4456TIP3   OH234782   1.505   6.051   5.337 -0.3953 -0.2077  0.3688
 4456TIP3    H134783   1.414   6.023   5.350 -1.0582  1.6728  0.1797
 4456TIP3    H234784   1.501   6.147   5.343  1.1543  0.0874 -1.9940
 4457TIP3   OH234785   3.823   6.137   4.887 -0.8056  0.0913 -0.1097
 4457TIP3    H134786   3.769   6.214   4.908  3.2559  2.7452  1.9839
 4457TIP3    H234787   3.806   6.075   4.958 -1.1923  0.8300  0.4592
 4458TIP3   OH234788   6.192   0.553   2.109 -0.1394  0.5663 -0.5150
 4458TIP3    H134789   6.218   0.540   2.018 -1.2699 -1.3124 -0.6084
 4458TIP3    H234790   6.162   0.644   2.112  3.1868  1.8209 -1.1275
 4459TIP3   OH234791   5.297   1.252  13.500 -0.1941 -0.1234 -0.1485
 4459TIP3    H134792   5.226   1.224  13.441  0.8802 -0.5931 -1.2788
 4459TIP3    H234793   5.276   1.342  13.522 -1.7639 -0.6180  0.5255
 4460TIP3   OH234794   5.546   3.187  14.505 -0.0861 -0.1850 -0.6233
 4460TIP3    H134795   5.593   3.270  14.511 -0.8480  0.2599 -0.6841
 4460TIP3    H234796   5.513   3.172  14.593 -1.3323  0.4226 -0.9523
 4461TIP3   OH234797   2.002   6.390   5.279  0.3089 -0.2052  0.0559
 4461TIP3    H134798   1.979   6.404   5.187  2.6765 -0.0427 -0.5956
 4461TIP3    H234799   2.032   6.299   5.282  1.3175  0.1211  0.3771
 4462TIP3   OH234800   4.938   3.910   2.046  0.5418 -0.0643  0.4365
 4462TIP3    H134801   4.913   3.957   2.126  2.6731  0.6633  0.7298
 4462TIP3    H234802   4.971   3.826   2.076 -1.1843 -0.9217  0.0679
 4463TIP3   OH234803   4.547   3.137   6.232  0.7710  0.0892  0.7007
 4463TIP3    H134804   4.609   3.073   6.199 -0.5858  0.0967 -2.1430
 4463TIP3    H234805   4.509   3.096   6.310  2.7675 -0.7910  1.2683
 4464TIP3   OH234806   4.512   2.237  16.317  0.3275  0.0997  0.4593
 4464TIP3    H134807   4.445   2.244  16.249 -0.6585 -1.4384  1.2431
 4464TIP3    H234808   4.585   2.191  16.274  0.2536  0.3383  0.0709
 4465TIP3   OH234809   2.449   1.823  15.043  0.3976  0.1341  0.0608
 4465TIP3    H134810   2.420   1.732  15.030 -0.1985  0.1697  1.0303
 4465TIP3    H234811   2.507   1.840  14.969  0.9085 -1.2036  0.1215
 4466TIP3   OH234812   5.206   1.177  12.856 -0.3496  0.0031  0.1608
 4466TIP3    H134813   5.210   1.130  12.773 -0.1311  0.4962 -0.1106
 4466TIP3    H234814   5.277   1.241  12.851  1.1086 -1.4131  1.6377
 4467TIP3   OH234815   6.061   1.641   5.410  0.1915 -0.4568 -0.5188
 4467TIP3    H134816   6.045   1.727   5.448 -1.5090 -0.9724 -0.0051
 4467TIP3    H234817   6.063   1.581   5.484 -0.4375 -1.0987 -1.0012
 4468TIP3   OH234818   3.243   0.289   3.163  0.0175 -0.0349  0.4092
 4468TIP3    H134819   3.161   0.262   3.121 -0.6293  1.1745  0.8435
 4468TIP3    H234820   3.312   0.255   3.106 -0.7897 -0.8876 -0.0818
 4469TIP3   OH234821   0.110   0.191   4.116  0.4809 -0.4146  0.2846
 4469TIP3    H134822   0.043   0.160   4.056  0.2550  0.2164  0.2069
 4469TIP3    H234823   0.167   0.115   4.129  0.5930 -0.5284 -0.8063
 4470TIP3   OH234824   5.415   6.658  14.102  0.5796  0.2598  0.0638
 4470TIP3    H134825   5.443   6.717  14.032  3.7466  1.3071  1.9884
 4470TIP3    H234826   5.433   6.571  14.069 -3.4607  0.1603 -2.5400
 4471TIP3   OH234827   5.424   6.695   5.775 -0.1355  1.0051  0.5178
 4471TIP3    H134828   5.388   6.689   5.863 -1.0550  1.0146  0.1556
 4471TIP3    H234829   5.412   6.608   5.738 -0.8107  1.3099  0.0095
 4472TIP3   OH234830   3.898   5.532  15.289 -0.5554  0.0804 -0.0901
 4472TIP3    H134831   3.804   5.550  15.291 -0.3928  0.8982  0.4312
 4472TIP3    H234832   3.908   5.466  15.220 -1.5031  0.0159 -0.1766
 4473TIP3   OH234833   0.557   4.727   4.613  0.0015 -0.4696  0.6774
 4473TIP3    H134834   0.588   4.811   4.579 -0.9517  0.7576  2.6618
 4473TIP3    H234835   0.548   4.672   4.535  0.2488  1.3954 -0.7501
 4474TIP3   OH234836   3.143   3.229   5.426 -0.1065  0.1027  0.1392
 4474TIP3    H134837   3.160   3.219   5.519  1.5311  1.3832  0.0190
 4474TIP3    H234838   3.178   3.149   5.386  0.2752  0.0969  0.4861
 4475TIP3   OH234839   2.535   0.625  13.668 -0.4894 -0.7216  0.5574
 4475TIP3    H134840   2.492   0.569  13.733  0.5628 -0.0821  1.8397
 4475TIP3    H234841   2.568   0.699  13.718  0.3949 -0.2344 -0.7050
 4476TIP3   OH234842   5.250   4.381  16.766 -0.2434  0.0820 -0.4668
 4476TIP3    H134843   5.322   4.441  16.787 -1.2952  1.4682 -0.6561
 4476TIP3    H234844   5.218   4.413  16.681 -1.2705 -0.3230 -0.2337
 4477TIP3   OH234845   4.704   4.426   4.749 -0.1286 -0.0023  0.3163
 4477TIP3    H134846   4.736   4.466   4.668  0.2345  0.3129  0.6137
 4477TIP3    H234847   4.766   4.356   4.767 -0.0919  0.0578  0.4279
 4478TIP3   OH234848   5.879   1.190   2.733 -0.1456 -0.8636 -0.5439
 4478TIP3    H134849   5.870   1.277   2.694 -0.8417 -0.2457  0.9172
 4478TIP3    H234850   5.790   1.156   2.735  0.0153 -1.2766 -0.3537
 4479TIP3   OH234851   3.143   4.262  15.264 -0.4251 -0.2711 -0.3835
 4479TIP3    H134852   3.095   4.228  15.188  0.2153 -0.5127 -0.6820
 4479TIP3    H234853   3.207   4.194  15.285  0.3409  0.3941 -0.4961
 4480TIP3   OH234854   5.024   0.406   4.189  0.0679 -0.0885 -0.5608
 4480TIP3    H134855   5.002   0.443   4.274 -2.8082 -0.7165 -0.9357
 4480TIP3    H234856   4.954   0.436   4.130  1.1943 -0.8242 -2.3727
 4481TIP3   OH234857   2.885   0.068   5.948  0.6072  0.0713 -0.2614
 4481TIP3    H134858   2.842   0.150   5.969 -0.5368 -0.5681 -0.0189
 4481TIP3    H234859   2.923   0.039   6.031 -1.3735 -0.9880  0.3364
 4482TIP3   OH234860   0.401   6.118  14.911  0.3059 -0.3893 -0.0633
 4482TIP3    H134861   0.316   6.144  14.946  0.6584 -0.5487  0.9442
 4482TIP3    H234862   0.464   6.174  14.956  0.5964  1.4525 -2.5593
 4483TIP3   OH234863   2.670   5.528   3.574  0.1130  0.1106 -0.1910
 4483TIP3    H134864   2.633   5.548   3.488 -0.4219 -0.4993 -0.1071
 4483TIP3    H234865   2.718   5.447   3.561 -0.7074 -0.4626  0.2775
 4484TIP3   OH234866   5.213   3.393   5.622  0.2498 -0.5408 -0.0671
 4484TIP3    H134867   5.257   3.478   5.615 -2.5863  1.0508 -0.5463
 4484TIP3    H234868   5.264   3.334   5.567  2.6661  0.6364  0.7683
 4485TIP3   OH234869   6.287   6.185  15.847  0.4628 -0.1332  0.1107
 4485TIP3    H134870   6.237   6.146  15.776 -1.0783 -1.0487  1.6267
 4485TIP3    H234871   6.301   6.276  15.819 -1.0286 -0.1806 -0.8943
 4486TIP3   OH234872   1.844   5.603   5.328 -0.1691 -0.1107  0.4969
 4486TIP3    H134873   1.856   5.652   5.247  1.7718  0.1524  0.8803
 4486TIP3    H234874   1.780   5.654   5.378 -2.6503 -1.1204 -1.4539
 4487TIP3   OH234875   4.062   1.220  16.246  0.4339 -0.2716 -0.0654
 4487TIP3    H134876   4.059   1.241  16.340  0.2186  0.2169 -0.1790
 4487TIP3    H234877   3.971   1.218  16.219  0.3597 -2.3825  0.1499
 4488TIP3   OH234878   3.602   5.765  11.339 -0.3456  0.1641  0.3494
 4488TIP3    H134879   3.573   5.812  11.418 -1.1281  2.0151 -0.9765
 4488TIP3    H234880   3.531   5.704  11.320  1.0681 -2.3652  2.5978
 4489TIP3   OH234881   1.338   2.127  14.782 -0.4076 -0.5451 -0.1299
 4489TIP3    H134882   1.334   2.216  14.749 -0.2594 -0.5895 -0.2705
 4489TIP3    H234883   1.305   2.073  14.710  0.9861 -0.7515 -0.6415
 4490TIP3   OH234884   6.561   4.464  16.978  0.0732 -0.1104 -0.0348
 4490TIP3    H134885   6.519   4.548  16.996  0.0533 -0.3408  1.0964
 4490TIP3    H234886   6.643   4.468  17.027 -0.1345 -0.9255  0.3925
 4491TIP3   OH234887   4.180   2.276   6.452  0.5919 -0.0183 -0.1234
 4491TIP3    H134888   4.250   2.262   6.388  1.4944 -0.6197  0.9507
 4491TIP3    H234889   4.216   2.341   6.512  0.4154 -0.6558  0.6888
 4492TIP3   OH234890   2.476   1.754  10.721  0.0924 -0.5345 -0.1323
 4492TIP3    H134891   2.429   1.691  10.667 -0.1341 -0.2028 -0.3208
 4492TIP3    H234892   2.549   1.783  10.666  0.8254 -1.4102  0.3280
 4493TIP3   OH234893   2.010   4.715  11.731  0.3418  0.7830 -0.1772
 4493TIP3    H134894   2.031   4.687  11.642  0.2384 -0.4706  0.1677
 4493TIP3    H234895   2.090   4.698  11.781 -0.0668  0.1038  0.2564
 4494TIP3   OH234896   6.408   2.956   3.795 -0.3319 -0.4396 -0.2416
 4494TIP3    H134897   6.417   2.872   3.842 -0.7634 -0.4357 -0.1470
 4494TIP3    H234898   6.320   2.986   3.817  0.1491  0.4924  0.4706
 4495TIP3   OH234899   3.910   5.200  11.285  0.0931 -0.4058  0.0603
 4495TIP3    H134900   3.931   5.269  11.348  0.3025  1.2908 -1.7972
 4495TIP3    H234901   3.987   5.194  11.229 -0.5876 -0.9618 -0.8514
 4496TIP3   OH234902   2.440   6.535  17.191  0.3559 -0.3728  0.5036
 4496TIP3    H134903   2.426   6.521  17.285 -1.4337  0.3423  0.3832
 4496TIP3    H234904   2.397   6.619  17.173  3.0389  0.9098 -0.4593
 4497TIP3   OH234905   0.065   2.530  13.521  0.0295  0.4274  0.2037
 4497TIP3    H134906   0.103   2.495  13.603 -0.7003  0.8552  0.7343
 4497TIP3    H234907   0.045   2.452  13.469  0.0554  0.1260  0.6363
 4498TIP3   OH234908   3.841   1.781   3.364  0.0468 -0.0094  0.7463
 4498TIP3    H134909   3.792   1.749   3.288 -0.8782  0.0603  1.2978
 4498TIP3    H234910   3.916   1.722   3.371 -1.8173 -2.4414  1.9984
 4499TIP3   OH234911   5.942   2.703   1.209 -0.3721  0.0825 -0.0478
 4499TIP3    H134912   5.922   2.744   1.293  0.6375  1.6137 -0.5214
 4499TIP3    H234913   5.984   2.620   1.233 -0.4780  0.3049  0.9671
 4500TIP3   OH234914   4.044   5.486  13.935 -0.2842  0.0799  0.1762
 4500TIP3    H134915   4.118   5.486  13.996  1.1591  1.0095 -1.4673
 4500TIP3    H234916   4.000   5.402  13.950  1.6924 -0.9559  0.5424
 4501TIP3   OH234917   1.500   5.334   4.738 -0.0332 -0.5568  0.1594
 4501TIP3    H134918   1.518   5.339   4.644  0.9998  0.7299  0.4002
 4501TIP3    H234919   1.425   5.275   4.745  0.8102 -1.8855 -1.3396
 4502TIP3   OH234920   0.264   3.718  15.175 -0.5050  0.0620  0.4422
 4502TIP3    H134921   0.308   3.796  15.140 -0.1167 -0.1228  0.5092
 4502TIP3    H234922   0.334   3.654  15.184 -1.0250 -0.6937 -0.7535
 4503TIP3   OH234923   3.531   4.948   1.454  0.0801  0.1611 -0.6340
 4503TIP3    H134924   3.614   4.933   1.408 -0.6154  1.3136 -2.4008
 4503TIP3    H234925   3.557   4.971   1.543  1.6003 -0.5977 -0.8427
 4504TIP3   OH234926   0.014   1.572   3.351 -0.3192 -0.4957  0.0284
 4504TIP3    H134927  -0.002   1.623   3.430  0.6942 -0.2659  0.1002
 4504TIP3    H234928  -0.073   1.544   3.322 -0.7941  0.4018  0.5639
 4505TIP3   OH234929   2.604   0.837   6.661  0.4991 -0.0304 -0.0259
 4505TIP3    H134930   2.609   0.833   6.756 -0.4873  0.4584  0.0674
 4505TIP3    H234931   2.511   0.849   6.643  0.3089 -2.6091 -1.1708
 4506TIP3   OH234932   4.772   1.628   0.813  0.0745  0.3771 -1.1167
 4506TIP3    H134933   4.734   1.591   0.892 -0.8921  0.3499 -1.5819
 4506TIP3    H234934   4.866   1.636   0.833  0.0888 -1.0012 -0.5078
 4507TIP3   OH234935   0.087   3.953  16.411  0.6721  0.3429  0.7859
 4507TIP3    H134936   0.116   3.892  16.479 -0.9305  0.3701  1.5233
 4507TIP3    H234937   0.027   4.012  16.456 -1.5330 -0.4777 -0.8958
 4508TIP3   OH234938   5.016   2.478   1.140 -0.3762 -0.0012  0.1029
 4508TIP3    H134939   5.033   2.427   1.219 -0.3395 -0.0248  0.0799
 4508TIP3    H234940   5.094   2.466   1.086 -0.9605 -1.1332 -0.5440
 4509TIP3   OH234941   3.439   4.323   0.489 -0.2176  0.0841 -0.5862
 4509TIP3    H134942   3.447   4.228   0.493 -0.4099  0.0623 -0.6958
 4509TIP3    H234943   3.364   4.343   0.545  0.4463  0.2640  0.2606
 4510TIP3   OH234944   6.350   1.650  15.722 -0.1806  0.0451  0.4596
 4510TIP3    H134945   6.266   1.608  15.738 -0.2106 -0.1119 -0.0777
 4510TIP3    H234946   6.334   1.743  15.736 -0.1310 -0.1034  1.5864
 4511TIP3   OH234947   0.226   1.931   5.197 -0.1363  0.2117  0.6576
 4511TIP3    H134948   0.290   2.002   5.188 -0.1213  0.2557  1.1233
 4511TIP3    H234949   0.144   1.969   5.164 -0.1277  0.4418  0.9022
 4512TIP3   OH234950   0.373   2.307   2.425 -0.0500  0.1459 -0.3337
 4512TIP3    H134951   0.335   2.352   2.350  0.5202  0.9284 -0.1722
 4512TIP3    H234952   0.419   2.376   2.473  0.3171 -0.5043  0.2675
 4513TIP3   OH234953   2.566   3.078   4.213  0.0720  0.0118  0.4598
 4513TIP3    H134954   2.494   3.138   4.195 -0.3169 -1.2559 -2.8647
 4513TIP3    H234955   2.640   3.114   4.165  0.0601 -1.6579 -0.8746
 4514TIP3   OH234956   1.967   5.741  13.615  0.5433  1.0542 -0.3191
 4514TIP3    H134957   1.940   5.751  13.524  0.2514 -1.3511 -0.5627
 4514TIP3    H234958   2.058   5.711  13.609  0.1031 -0.4182  0.0976
 4515TIP3   OH234959   4.698   1.423   1.018 -0.1625 -0.2660  0.1252
 4515TIP3    H134960   4.780   1.390   1.057  0.0691 -0.1272 -0.2385
 4515TIP3    H234961   4.632   1.358   1.043 -0.2639  0.4122  1.7413
 4516TIP3   OH234962   4.603   0.220   4.619 -0.4689 -0.6058 -0.4512
 4516TIP3    H134963   4.527   0.171   4.588 -1.2255 -0.9965  1.8269
 4516TIP3    H234964   4.677   0.161   4.603 -0.6403 -0.3683 -2.3462
 4517TIP3   OH234965   3.236   2.900   2.604  0.0839 -0.0992  0.1431
 4517TIP3    H134966   3.142   2.919   2.596  0.2860  0.1612 -1.9131
 4517TIP3    H234967   3.252   2.905   2.699 -1.9671 -0.1831  0.5557
 4518TIP3   OH234968   2.998   2.382   3.137  0.1422 -0.5618 -0.0588
 4518TIP3    H134969   2.950   2.300   3.148 -1.0271  0.1689  0.5797
 4518TIP3    H234970   2.958   2.423   3.060 -0.5566  0.2065  0.6753
 4519TIP3   OH234971   6.192   3.753  13.011 -0.4755  0.0898  0.8919
 4519TIP3    H134972   6.189   3.713  13.098 -1.3324  0.7670  1.1831
 4519TIP3    H234973   6.110   3.727  12.970 -0.0899 -0.2019  0.2844
 4520TIP3   OH234974   5.933   0.794   4.740  0.1427 -0.0260 -0.3778
 4520TIP3    H134975   5.902   0.703   4.745 -1.6693  0.5884  0.3537
 4520TIP3    H234976   5.983   0.797   4.658  0.7062 -1.8030 -0.1527
 4521TIP3   OH234977   1.778   5.697  12.881  0.2819 -0.0024 -0.4373
 4521TIP3    H134978   1.718   5.770  12.895  0.7542  1.0373 -3.1945
 4521TIP3    H234979   1.856   5.720  12.930  0.1146  0.9285 -0.5965
 4522TIP3   OH234980   2.933   5.345  12.247 -0.4287 -0.1086  0.3334
 4522TIP3    H134981   2.899   5.255  12.245 -1.8113  0.3932  0.2094
 4522TIP3    H234982   2.887   5.389  12.176  0.3167  0.6775  0.3309
 4523TIP3   OH234983   1.210   6.635  11.235  0.7054  0.4895  1.1195
 4523TIP3    H134984   1.213   6.547  11.197 -1.9161  0.3154  1.1399
 4523TIP3    H234985   1.255   6.691  11.172 -1.2966 -0.2086 -1.0682
 4524TIP3   OH234986   0.390   2.597  15.027 -0.4472 -0.5250 -0.3321
 4524TIP3    H134987   0.312   2.628  15.074 -0.2108  0.3604 -0.5180
 4524TIP3    H234988   0.456   2.664  15.044 -0.2091 -0.4457 -1.5183
 4525TIP3   OH234989   0.286   3.990   0.650  0.1218  0.0091  0.0565
 4525TIP3    H134990   0.242   3.912   0.683  0.1778 -1.0112 -2.1242
 4525TIP3    H234991   0.249   4.004   0.563  1.3906  1.3596 -0.3094
 4526TIP3   OH234992   0.043   4.477   1.708 -0.2341 -0.4265 -0.2423
 4526TIP3    H134993  -0.003   4.560   1.694 -0.1225 -0.3652 -0.2560
 4526TIP3    H234994   0.052   4.440   1.620 -0.8806 -0.7800 -0.1598
 4527TIP3   OH234995   1.688   2.095   2.140 -0.0660  0.4181  0.1461
 4527TIP3    H134996   1.694   2.059   2.228  0.7264  0.1012 -0.0297
 4527TIP3    H234997   1.602   2.067   2.108 -0.3924  0.6062  0.8383
 4528TIP3   OH234998   4.228   6.124  15.905 -0.5526 -0.3699 -0.7447
 4528TIP3    H134999   4.204   6.041  15.863  0.1289 -0.5314 -0.8296
 4528TIP3    H235000   4.323   6.129  15.894 -0.6695  0.7796 -1.3933
 4529TIP3   OH235001   2.259   4.014  15.956 -0.6660  0.7388  0.2771
 4529TIP3    H135002   2.313   4.034  15.879  0.9067 -0.5528  0.9894
 4529TIP3    H235003   2.188   4.079  15.953  0.7820  2.3574 -0.8341
 4530TIP3   OH235004   6.512   3.310   1.313  0.4760  0.1504  0.0713
 4530TIP3    H135005   6.474   3.387   1.271  0.6329  0.2466  0.1016
 4530TIP3    H235006   6.606   3.327   1.312  0.6076 -0.5092 -0.8619
 4531TIP3   OH235007   1.106   1.867   3.544 -0.0484 -0.9277 -0.2072
 4531TIP3    H135008   1.115   1.962   3.550 -0.8938 -0.7713 -1.1941
 4531TIP3    H235009   1.166   1.833   3.610 -0.0740  0.3031  0.4749
 4532TIP3   OH235010   5.313   1.707  13.411  0.6913  0.4373  0.1576
 4532TIP3    H135011   5.268   1.662  13.340 -2.3801  3.0714  0.1755
 4532TIP3    H235012   5.286   1.660  13.490  0.9065 -0.1332 -0.1022
 4533TIP3   OH235013   6.465   3.575  13.046 -0.1110  0.0563  0.1690
 4533TIP3    H135014   6.433   3.497  13.091 -2.1885  1.6370  1.6694
 4533TIP3    H235015   6.411   3.581  12.967 -1.4580  1.0146  1.1067
 4534TIP3   OH235016   6.691   2.224  14.141  0.0881 -0.0309 -0.0762
 4534TIP3    H135017   6.771   2.177  14.117  0.0939 -0.9734  1.6077
 4534TIP3    H235018   6.720   2.291  14.203 -0.3462  0.0124  0.0849
 4535TIP3   OH235019   0.850   5.082  12.387  0.4504 -0.0816  0.1447
 4535TIP3    H135020   0.862   5.158  12.330  2.3086  0.3018  0.9743
 4535TIP3    H235021   0.919   5.021  12.361 -0.0079 -0.8084  0.5781
 4536TIP3   OH235022   5.562   3.461   6.397 -0.2777 -0.4132  0.4183
 4536TIP3    H135023   5.481   3.410   6.397 -0.1873 -0.5559  0.3310
 4536TIP3    H235024   5.619   3.417   6.335  0.9295 -2.0129  2.5113
 4537TIP3   OH235025   0.661   3.871  14.936  0.2250  0.4703  0.1067
 4537TIP3    H135026   0.691   3.825  14.858  0.6682 -1.6217  1.4242
 4537TIP3    H235027   0.717   3.949  14.941  0.2152  0.6254 -1.5969
 4538TIP3   OH235028   0.366   0.011  15.895 -0.0388  0.4001  0.2486
 4538TIP3    H135029   0.445   0.065  15.901  0.9568 -1.0270  0.6107
 4538TIP3    H235030   0.392  -0.073  15.933 -1.5046 -0.3651 -0.3700
 4539TIP3   OH235031   6.277   1.332  12.372  0.0132  0.2710  0.4949
 4539TIP3    H135032   6.311   1.280  12.299 -0.0862  2.1877 -0.9659
 4539TIP3    H235033   6.182   1.326  12.363  0.0015  0.5876  0.4118
 4540TIP3   OH235034   5.024   5.769   3.873  0.2238 -0.6164  0.2404
 4540TIP3    H135035   5.118   5.752   3.866  0.4243  1.0089 -1.4941
 4540TIP3    H235036   4.986   5.725   3.797  0.0551  1.5849 -1.0238
 4541TIP3   OH235037   1.526   3.288  14.153  0.2392  0.7161  0.1743
 4541TIP3    H135038   1.554   3.292  14.244 -0.6482 -2.1630  0.6509
 4541TIP3    H235039   1.581   3.353  14.108  1.0681  1.8096  2.6195
 4542TIP3   OH235040   3.299   2.915   2.873 -0.1094  0.4564 -0.1103
 4542TIP3    H135041   3.366   2.983   2.870 -1.1415  1.5743  1.1028
 4542TIP3    H235042   3.255   2.928   2.957 -2.1944  0.1043 -1.0872
 4543TIP3   OH235043   1.166   3.476  16.555  0.0343 -0.3860 -0.3234
 4543TIP3    H135044   1.212   3.545  16.603  0.0396 -0.9366  0.4894
 4543TIP3    H235045   1.082   3.515  16.531 -0.5510 -0.4982  1.3584
 4544TIP3   OH235046   2.884   2.812  16.823 -0.5954  0.0146 -0.0037
 4544TIP3    H135047   2.789   2.825  16.816 -0.6154 -0.1698 -0.0764
 4544TIP3    H235048   2.918   2.841  16.738 -0.7505 -1.4143 -0.5720
 4545TIP3   OH235049   4.861   2.104   2.140 -0.5613  0.2448 -0.3475
 4545TIP3    H135050   4.887   2.077   2.052 -2.4656 -0.9731 -0.5843
 4545TIP3    H235051   4.902   2.039   2.198  1.1319  1.3487 -0.2249
 4546TIP3   OH235052   2.508   2.901   3.964  0.0672  0.4174 -0.2963
 4546TIP3    H135053   2.487   2.846   4.039  1.0759  0.9582  0.4129
 4546TIP3    H235054   2.566   2.969   4.000  0.9075  0.4420 -1.6405
 4547TIP3   OH235055   5.874   2.607  11.122  0.4117 -0.3713  0.0142
 4547TIP3    H135056   5.829   2.681  11.082 -0.0216 -0.3056  0.6014
 4547TIP3    H235057   5.965   2.616  11.095  0.4034  0.5100  0.2636
 4548TIP3   OH235058   2.331   1.748  16.556 -0.2660 -0.0675  0.8639
 4548TIP3    H135059   2.351   1.842  16.550  0.1950 -0.2141 -0.2133
 4548TIP3    H235060   2.268   1.733  16.486 -0.0551 -0.6247  0.7878
 4549TIP3   OH235061   0.232   5.281   4.243 -0.4407  0.6951 -0.4674
 4549TIP3    H135062   0.268   5.308   4.328  0.2664  2.9324 -1.3969
 4549TIP3    H235063   0.307   5.244   4.196 -0.6898  0.0190 -0.3312
 4550TIP3   OH235064   5.035   2.314  11.156 -0.2115  0.2438 -0.2612
 4550TIP3    H135065   4.972   2.245  11.135  0.7632 -0.6191 -0.3833
 4550TIP3    H235066   5.096   2.273  11.217 -1.2681  1.8223  2.0336
 4551TIP3   OH235067   3.794   4.683   5.335 -0.3492 -0.3525 -0.9903
 4551TIP3    H135068   3.846   4.756   5.369  0.4897 -1.1366 -0.5413
 4551TIP3    H235069   3.778   4.707   5.244  0.0802  0.3021 -0.9084
 4552TIP3   OH235070   2.729   1.126   2.729  0.0459 -0.2667  0.4037
 4552TIP3    H135071   2.818   1.160   2.726  0.3479 -1.1028 -0.6428
 4552TIP3    H235072   2.734   1.042   2.683 -1.6538  0.5265 -1.3739
 4553TIP3   OH235073   3.530   3.180   5.007  0.2457 -0.2060  0.2127
 4553TIP3    H135074   3.543   3.240   5.080  0.6581  0.7158 -0.5862
 4553TIP3    H235075   3.582   3.103   5.028 -2.1700 -1.3958  2.4152
 4554TIP3   OH235076   5.412   1.003  13.829  0.2694 -0.0829 -0.2756
 4554TIP3    H135077   5.350   0.951  13.881  1.0982 -0.6044  0.2131
 4554TIP3    H235078   5.395   1.093  13.856 -1.9872  0.0944 -1.9775
 4555TIP3   OH235079   4.829   6.361   1.631  0.3898  0.0303  0.4363
 4555TIP3    H135080   4.740   6.394   1.619  1.7756  4.1245 -0.0973
 4555TIP3    H235081   4.872   6.377   1.548  2.0986 -0.2488  1.2210
 4556TIP3   OH235082   3.354   6.189  16.654 -0.6531  1.0113 -0.2178
 4556TIP3    H135083   3.263   6.214  16.669 -1.2279 -0.5526 -0.8917
 4556TIP3    H235084   3.352   6.094  16.648  0.9329  0.9908 -0.8974
 4557TIP3   OH235085   2.287   0.745  13.778  0.1253  0.0444  0.3247
 4557TIP3    H135086   2.247   0.706  13.856 -0.9184 -0.3758 -0.4091
 4557TIP3    H235087   2.314   0.832  13.807  0.9339 -0.5635  1.5062
 4558TIP3   OH235088   2.399   1.211  14.164 -0.1107  0.2251 -0.1868
 4558TIP3    H135089   2.489   1.182  14.148 -0.2174 -0.2631  0.0883
 4558TIP3    H235090   2.380   1.182  14.253  0.2740  2.3982  0.6773
 4559TIP3   OH235091   3.776   4.416  14.247 -0.0458  0.0727  0.3192
 4559TIP3    H135092   3.720   4.403  14.323  0.0895  0.3225  0.4607
 4559TIP3    H235093   3.754   4.503  14.215  1.7741  1.0855  1.6500
 4560TIP3   OH235094   6.042   5.934  11.205  0.3114 -0.1115  0.0103
 4560TIP3    H135095   5.984   5.859  11.189 -2.0129  1.1023  2.0404
 4560TIP3    H235096   5.992   6.010  11.173  1.4298  0.8591  0.4917
 4561TIP3   OH235097   2.984   1.548   6.075  0.4297 -0.2350  0.3762
 4561TIP3    H135098   2.895   1.580   6.088  0.5806  0.1812  0.4143
 4561TIP3    H235099   2.974   1.454   6.060  0.1197 -0.5428  2.2134
 4562TIP3   OH235100   2.683   3.516   1.407 -0.0969 -0.9823  0.5401
 4562TIP3    H135101   2.751   3.581   1.425 -1.8314  0.5576  1.8186
 4562TIP3    H235102   2.614   3.564   1.363 -0.7768 -2.3214  0.0919
 4563TIP3   OH235103   5.762   3.721  14.740 -0.0920  1.0635 -0.4389
 4563TIP3    H135104   5.842   3.761  14.775 -1.1674  2.2385  0.7686
 4563TIP3    H235105   5.738   3.777  14.666  1.0857 -0.2660 -1.8806
 4564TIP3   OH235106   1.639   3.187   2.809 -0.0100  0.5131 -0.7983
 4564TIP3    H135107   1.587   3.194   2.889 -0.2338 -0.0242 -0.8909
 4564TIP3    H235108   1.574   3.178   2.739  0.1760  1.2654 -1.0758
 4565TIP3   OH235109   0.146   3.714   4.973 -0.0937 -0.0163  0.0108
 4565TIP3    H135110   0.202   3.734   5.048 -2.0437 -1.7779  2.0927
 4565TIP3    H235111   0.182   3.632   4.939 -0.5092 -0.3811  0.4365
 4566TIP3   OH235112   1.718   5.748  12.069  0.6507  0.1759  0.5000
 4566TIP3    H135113   1.642   5.806  12.061  0.3581 -0.2761 -0.0674
 4566TIP3    H235114   1.687   5.677  12.126 -0.3041 -1.4917 -1.9425
 4567TIP3   OH235115   1.363   6.019  15.716 -0.9589  0.1697  0.3955
 4567TIP3    H135116   1.359   5.933  15.757  0.4493  0.8588  2.1033
 4567TIP3    H235117   1.273   6.051  15.720 -1.3533 -0.9043  0.4515
 4568TIP3   OH235118   0.622   4.211  15.786  0.6240 -0.1787 -0.1157
 4568TIP3    H135119   0.639   4.289  15.733  1.1799 -1.9834 -2.7784
 4568TIP3    H235120   0.538   4.179  15.755  0.4943 -0.7664  0.8032
 4569TIP3   OH235121   2.250   3.100   6.220 -0.4159 -1.0949 -0.2439
 4569TIP3    H135122   2.320   3.043   6.187  0.2661  0.2619 -1.1881
 4569TIP3    H235123   2.194   3.115   6.144  0.1643  0.5810 -0.3663
 4570TIP3   OH235124   0.218   4.550   2.541  0.1621  0.2783 -0.2972
 4570TIP3    H135125   0.190   4.642   2.550  0.7777  0.6666 -1.9357
 4570TIP3    H235126   0.145   4.508   2.495 -1.0165 -0.6003  2.1861
 4571TIP3   OH235127   5.500   1.160   2.462 -0.1085  0.3659 -0.7049
 4571TIP3    H135128   5.435   1.230   2.471  0.1905  0.7116 -1.1501
 4571TIP3    H235129   5.457   1.095   2.407 -1.3692 -1.0493  1.7823
 4572TIP3   OH235130   4.686   5.643   1.068 -0.0303  0.3329 -0.3146
 4572TIP3    H135131   4.696   5.574   1.134  0.8904 -0.0806 -0.8663
 4572TIP3    H235132   4.670   5.595   0.986  0.5256  0.7753 -0.6848
 4573TIP3   OH235133   2.496   2.143   3.780 -0.5299  0.0946  0.4751
 4573TIP3    H135134   2.553   2.153   3.704  1.2382  0.7549  1.7960
 4573TIP3    H235135   2.438   2.219   3.778  0.4353  0.8545  0.4967
 4574TIP3   OH235136   2.862   4.284  16.565  0.1165 -0.6260  0.9043
 4574TIP3    H135137   2.904   4.365  16.538  1.2520 -1.9293 -1.6248
 4574TIP3    H235138   2.768   4.302  16.559  0.3287  0.0840 -1.2981
 4575TIP3   OH235139   6.694   4.052  16.582 -0.4112  0.4609 -0.4040
 4575TIP3    H135140   6.726   4.058  16.671  1.7192  0.7035 -1.1399
 4575TIP3    H235141   6.600   4.034  16.591 -0.3345  0.9748  1.8516
 4576TIP3   OH235142   3.916   5.731   4.494 -0.1736 -0.2080  0.1898
 4576TIP3    H135143   3.919   5.729   4.590 -0.4275  1.3350  0.2388
 4576TIP3    H235144   4.003   5.762   4.468 -0.2219 -0.2859 -0.0682
 4577TIP3   OH235145   3.056   3.759  11.063  0.0276 -0.2347 -0.8161
 4577TIP3    H135146   3.115   3.702  11.114  0.9267  0.7086 -0.7704
 4577TIP3    H235147   2.970   3.742  11.100  0.9169  2.5599  3.2813
 4578TIP3   OH235148   2.963   4.904   2.742  0.5754 -0.9271  0.2659
 4578TIP3    H135149   3.030   4.962   2.777 -0.8793  2.2455 -1.7793
 4578TIP3    H235150   2.972   4.911   2.647  0.0089 -3.8245 -0.1095
 4579TIP3   OH235151   1.866   3.000  16.528 -0.1755  0.4143  0.2257
 4579TIP3    H135152   1.816   3.021  16.607  1.1399  1.9777  0.6979
 4579TIP3    H235153   1.870   2.904  16.527 -1.7292  0.3104  1.0590
 4580TIP3   OH235154   0.974   0.608   6.003  0.3704 -0.1370 -0.4607
 4580TIP3    H135155   0.983   0.666   6.078 -1.0942 -1.0875  0.5022
 4580TIP3    H235156   1.006   0.524   6.033 -1.0492 -0.7471 -0.5690
 4581TIP3   OH235157   0.176   3.927  12.278 -0.2065 -0.2972 -0.6679
 4581TIP3    H135158   0.176   3.867  12.353  1.5575 -0.7951 -1.0117
 4581TIP3    H235159   0.171   3.869  12.201  1.8248 -0.1137 -1.0192
 4582TIP3   OH235160   1.852   3.849  15.321 -0.1833 -0.2711  0.5714
 4582TIP3    H135161   1.849   3.900  15.403  2.1302 -0.0130  0.5475
 4582TIP3    H235162   1.937   3.807  15.322 -0.2448 -0.5321 -1.5692
 4583TIP3   OH235163   3.438   3.559   2.384  0.0043 -0.6562 -0.5007
 4583TIP3    H135164   3.410   3.609   2.308  0.6294  0.7399  0.1584
 4583TIP3    H235165   3.525   3.526   2.360  0.2834 -0.0538 -0.3149
 4584TIP3   OH235166   3.695   2.516  15.733 -0.0620 -0.0659  0.5418
 4584TIP3    H135167   3.716   2.581  15.666  1.5834 -0.2914  0.7957
 4584TIP3    H235168   3.648   2.447  15.685  1.5570 -0.4892 -0.5439
 4585TIP3   OH235169   4.636   4.186   1.829  0.2786  0.0646  0.7295
 4585TIP3    H135170   4.644   4.108   1.884  1.2477  0.6976  1.5343
 4585TIP3    H235171   4.620   4.153   1.741  0.5565 -1.0380  1.0849
 4586TIP3   OH235172   0.425   4.926  15.027 -0.1530  0.8724  0.2696
 4586TIP3    H135173   0.391   4.880  15.103 -0.7792 -0.2755 -0.6628
 4586TIP3    H235174   0.517   4.900  15.022 -0.0947  0.9975  0.6568
 4587TIP3   OH235175   0.748   5.526  14.782 -0.1587 -0.0406 -0.2138
 4587TIP3    H135176   0.681   5.493  14.842 -0.9856  2.0656  0.1219
 4587TIP3    H235177   0.813   5.567  14.839 -0.6333  1.4173 -0.6566
 4588TIP3   OH235178   2.364   0.597   2.805 -0.5506  0.1910 -0.0051
 4588TIP3    H135179   2.406   0.625   2.886  0.3281 -1.1437  0.0243
 4588TIP3    H235180   2.300   0.666   2.786  0.4969  1.4256  0.8337
 4589TIP3   OH235181   3.762   2.595  15.191  0.0953  0.1853  0.3409
 4589TIP3    H135182   3.693   2.605  15.125  1.7015  0.5417 -1.3975
 4589TIP3    H235183   3.817   2.524  15.156  0.2511 -0.5765  2.0311
 4590TIP3   OH235184   1.546   1.151  16.530 -0.3332  0.1525 -0.2570
 4590TIP3    H135185   1.605   1.226  16.525 -1.4496  1.1565  1.0853
 4590TIP3    H235186   1.527   1.140  16.623 -0.3604 -1.6950 -0.4266
 4591TIP3   OH235187   3.860   3.796  13.361  0.5237  0.2256  0.4492
 4591TIP3    H135188   3.910   3.792  13.442 -0.0987  0.1695  0.8399
 4591TIP3    H235189   3.849   3.889  13.343  0.3815  0.2361  0.6003
 4592TIP3   OH235190   0.413   0.414  13.305  0.2316  0.4641 -0.6461
 4592TIP3    H135191   0.496   0.461  13.296  0.7966 -0.2215  0.6527
 4592TIP3    H235192   0.359   0.473  13.358  0.7430 -0.0846  0.5107
 4593TIP3   OH235193   0.476   6.270   5.787 -0.7057 -0.1594 -0.2982
 4593TIP3    H135194   0.382   6.281   5.780 -0.9194 -1.2640  0.6221
 4593TIP3    H235195   0.489   6.177   5.803  0.5764 -0.1130 -0.8810
 4594TIP3   OH235196   2.933   2.314   4.289 -0.5466  0.2566 -0.1672
 4594TIP3    H135197   2.990   2.279   4.221 -0.5805  0.2263 -0.1803
 4594TIP3    H235198   2.991   2.363   4.347 -0.5938  0.7432 -0.5207
 4595TIP3   OH235199   4.290   5.418  17.122  0.3656  0.3888  0.1060
 4595TIP3    H135200   4.266   5.474  17.048 -0.6043  1.4177  1.1574
 4595TIP3    H235201   4.285   5.329  17.087  1.9510  0.9124 -1.6076
 4596TIP3   OH235202   1.150   1.011   0.151  0.3103 -0.5805  0.2625
 4596TIP3    H135203   1.188   0.926   0.171 -0.0172 -1.2193 -1.6841
 4596TIP3    H235204   1.081   0.993   0.087  0.3831  1.1612 -0.3744
 4597TIP3   OH235205   0.219   5.246  16.057 -0.0577  0.1541 -0.4509
 4597TIP3    H135206   0.256   5.321  16.103  1.0114 -0.2637 -0.6148
 4597TIP3    H235207   0.257   5.250  15.969 -2.3551  1.1606 -1.4805
 4598TIP3   OH235208   6.549   1.664  16.424 -0.4763  0.1481 -0.5484
 4598TIP3    H135209   6.531   1.716  16.346  1.1333 -0.5513 -1.4167
 4598TIP3    H235210   6.465   1.623  16.446 -1.0134  0.5937 -1.7203
 4599TIP3   OH235211   6.249   1.077  16.440  0.8792  0.0144  0.4975
 4599TIP3    H135212   6.310   1.149  16.428 -0.1766  0.6596 -1.3699
 4599TIP3    H235213   6.189   1.083  16.366 -2.0794  0.0233  2.6840
 4600TIP3   OH235214   3.978   5.424   5.200  0.7678  0.0674 -0.3391
 4600TIP3    H135215   3.929   5.494   5.244  0.3332 -0.3743 -0.1126
 4600TIP3    H235216   3.945   5.423   5.111 -0.0092 -0.5538 -0.0606
 4601TIP3   OH235217   5.428   1.153   2.894 -0.5920 -0.5173 -0.7578
 4601TIP3    H135218   5.481   1.084   2.932  0.4135  0.2419 -0.7333
 4601TIP3    H235219   5.362   1.107   2.842 -1.6015 -1.5641  1.3329
 4602TIP3   OH235220   0.236   5.090   4.645  0.1670  0.8771  0.1399
 4602TIP3    H135221   0.160   5.051   4.688  1.0592  0.4575  1.4153
 4602TIP3    H235222   0.292   5.015   4.624  1.5569  1.3476  1.9226
 4603TIP3   OH235223   5.551   2.251  12.409  0.2525 -0.2575  0.4769
 4603TIP3    H135224   5.575   2.158  12.410 -0.5553 -0.4738  0.9376
 4603TIP3    H235225   5.455   2.251  12.402  0.3827  0.5776 -4.2193
 4604TIP3   OH235226   0.807   0.601   4.225  0.5790 -0.4585 -0.0117
 4604TIP3    H135227   0.747   0.664   4.266  2.1315  0.9720  0.1556
 4604TIP3    H235228   0.822   0.535   4.292 -1.6665 -1.4841 -0.4420
 4605TIP3   OH235229   5.427   0.403   2.471  0.0598 -0.2362 -0.2265
 4605TIP3    H135230   5.400   0.466   2.404  0.5750  0.1330 -0.0869
 4605TIP3    H235231   5.476   0.455   2.535 -2.2657 -0.1414  1.6085
 4606TIP3   OH235232   2.333   4.705   3.307 -0.2324  0.3124  0.0085
 4606TIP3    H135233   2.247   4.730   3.339 -0.5372 -0.8531  0.1673
 4606TIP3    H235234   2.394   4.750   3.366 -0.7326  0.8361  0.1355
 4607TIP3   OH235235   2.836   6.306   1.992  0.0236  0.2540  0.5432
 4607TIP3    H135236   2.902   6.340   1.931  0.8657 -2.3605 -0.1531
 4607TIP3    H235237   2.752   6.334   1.954  0.5386 -0.9581 -1.7208
 4608TIP3   OH235238   1.191   5.446  15.418  0.0090 -0.4054 -0.6233
 4608TIP3    H135239   1.209   5.440  15.325 -0.6576  0.5181 -0.8244
 4608TIP3    H235240   1.144   5.529  15.429 -1.4129 -1.2757  0.2751
 4609TIP3   OH235241   2.891   6.665   2.247  0.1948  0.1148  0.4097
 4609TIP3    H135242   2.859   6.690   2.334 -0.0372  1.5836 -0.0733
 4609TIP3    H235243   2.828   6.600   2.216 -0.4035  0.4678  0.8582
 4610TIP3   OH235244   6.000   1.031  14.062  0.3405 -0.0242 -0.4190
 4610TIP3    H135245   6.007   1.068  14.150  0.6360 -3.8055  1.3511
 4610TIP3    H235246   6.087   1.046  14.024 -0.1172  2.6207 -0.6355
 4611TIP3   OH235247   0.025   0.418   2.488 -0.2973 -0.3179  0.9791
 4611TIP3    H135248  -0.056   0.368   2.498 -0.7425  0.2780  0.4508
 4611TIP3    H235249   0.019   0.456   2.401  0.8133 -0.6998  0.7240
 4612TIP3   OH235250   5.156   3.558   4.107 -0.4464 -0.1613  0.2666
 4612TIP3    H135251   5.190   3.469   4.116  2.3831  0.9583  1.8466
 4612TIP3    H235252   5.198   3.608   4.177 -0.4707  2.8254 -1.6529
 4613TIP3   OH235253   1.273   2.309   2.704 -0.2204 -0.0082  0.1911
 4613TIP3    H135254   1.287   2.257   2.783  2.0767  1.5119  0.9005
 4613TIP3    H235255   1.307   2.255   2.633 -0.1258 -0.4552  0.5733
 4614TIP3   OH235256   1.740   1.204  15.874  0.7986  0.0481 -0.4158
 4614TIP3    H135257   1.746   1.129  15.815 -1.5606  1.3864 -2.5926
 4614TIP3    H235258   1.652   1.199  15.911  0.1060  2.2884 -1.5637
 4615TIP3   OH235259   0.020   4.425   4.915 -0.0647  0.1620 -0.0379
 4615TIP3    H135260   0.010   4.338   4.952  0.0640 -0.2635 -0.9693
 4615TIP3    H235261   0.043   4.409   4.823  0.4645  1.1683 -0.0942
 4616TIP3   OH235262   4.111   5.362  14.210 -0.5544  0.2195  0.0013
 4616TIP3    H135263   4.057   5.290  14.244  0.3454  0.0953  1.2477
 4616TIP3    H235264   4.100   5.433  14.274  1.8928 -0.3324  1.1715
 4617TIP3   OH235265   3.934   4.532   1.836 -0.1891  0.0776  0.0636
 4617TIP3    H135266   3.901   4.445   1.814  1.5787 -0.6987  0.2535
 4617TIP3    H235267   4.030   4.522   1.832  0.0578  2.4135 -1.4261
 4618TIP3   OH235268   6.123   1.112  17.104 -0.6271  0.5527  0.0498
 4618TIP3    H135269   6.209   1.148  17.127  0.2948 -1.2785 -0.3689
 4618TIP3    H235270   6.124   1.024  17.139 -1.7299 -0.0394 -1.3155
 4619TIP3   OH235271   0.602   2.066   2.144 -0.1049  0.1343 -0.2350
 4619TIP3    H135272   0.524   2.105   2.106  0.1713  1.3314  0.3946
 4619TIP3    H235273   0.637   2.132   2.203  1.7819 -0.0867 -1.0079
 4620TIP3   OH235274   4.374   1.447   1.826 -0.0228 -0.6035 -0.1387
 4620TIP3    H135275   4.388   1.380   1.892  0.6804 -0.3298  0.0005
 4620TIP3    H235276   4.431   1.420   1.753  0.2175 -0.1983 -0.1036
 4621TIP3   OH235277   0.638   0.816  11.284 -0.1830 -0.3529  0.5163
 4621TIP3    H135278   0.650   0.907  11.256  0.4993 -1.1381 -1.9914
 4621TIP3    H235279   0.716   0.796  11.335  2.5281 -1.0211 -3.4307
 4622TIP3   OH235280   3.990   5.771   4.752  0.0594  0.3529 -0.7367
 4622TIP3    H135281   4.032   5.848   4.789  1.5026  0.1639 -1.8913
 4622TIP3    H235282   4.063   5.716   4.723 -0.9460 -1.1866 -0.4681
 4623TIP3   OH235283   6.586   0.662  16.412 -0.2513  0.1027  0.2614
 4623TIP3    H135284   6.635   0.744  16.402 -1.9194  1.0242 -0.7246
 4623TIP3    H235285   6.577   0.628  16.323 -1.5837  0.0803  0.3868
 4624TIP3   OH235286   2.613   1.331  13.200  0.2500 -0.0897  0.2372
 4624TIP3    H135287   2.588   1.300  13.114  1.3458 -1.1238  0.2583
 4624TIP3    H235288   2.571   1.270  13.261  0.5787 -0.1948  0.3654
 4625TIP3   OH235289   3.974   6.037  16.432  0.0488  0.2374 -0.1638
 4625TIP3    H135290   3.921   6.035  16.512 -0.0183 -0.0449 -0.2135
 4625TIP3    H235291   4.061   6.009  16.461 -0.1005 -0.3656 -0.2784
 4626TIP3   OH235292   2.033   5.343   0.444  0.1259 -0.4169  0.2156
 4626TIP3    H135293   2.110   5.360   0.499 -0.6359 -1.1172  1.5259
 4626TIP3    H235294   2.015   5.428   0.402  0.6534  0.1683  1.1395
 4627TIP3   OH235295   2.725   6.318   1.433  0.0324 -0.2973 -0.2588
 4627TIP3    H135296   2.761   6.245   1.384 -0.3045 -1.0458  0.5657
 4627TIP3    H235297   2.688   6.376   1.367 -0.1101 -1.1066 -0.9048
 4628TIP3   OH235298   0.986   5.087   1.712 -0.0090 -0.2393  0.1220
 4628TIP3    H135299   1.023   5.045   1.634 -2.5303  0.2236 -1.4359
 4628TIP3    H235300   0.971   5.016   1.774  1.6515 -0.6745  0.0545
 4629TIP3   OH235301   0.802   2.141  12.558 -0.3197 -0.1998  0.0352
 4629TIP3    H135302   0.880   2.151  12.612 -0.7473 -1.7412  1.0183
 4629TIP3    H235303   0.749   2.219  12.578  0.4881  0.3202  0.1810
 4630TIP3   OH235304   5.398   4.417   5.067 -0.0666 -0.3189  0.1506
 4630TIP3    H135305   5.358   4.357   5.004 -1.8518  1.3150 -0.3786
 4630TIP3    H235306   5.378   4.379   5.152 -1.3905 -0.4059 -0.1694
 4631TIP3   OH235307   5.139   4.059   1.386 -0.3211  0.2980 -0.4732
 4631TIP3    H135308   5.137   4.044   1.292  1.7875  2.3229 -0.9233
 4631TIP3    H235309   5.222   4.104   1.402 -1.1792  1.1457  2.1979
 4632TIP3   OH235310   4.527   2.510  13.779  0.3588 -0.0144 -0.2469
 4632TIP3    H135311   4.472   2.564  13.723 -1.1066 -1.1586  0.0193
 4632TIP3    H235312   4.611   2.555  13.781  0.3907  0.2522 -3.0773
 4633TIP3   OH235313   2.414   0.972  15.507  0.1083 -0.0057  0.4661
 4633TIP3    H135314   2.406   1.067  15.501  1.2515  0.1019  0.3916
 4633TIP3    H235315   2.461   0.958  15.590  0.3112 -0.4787  0.2734
 4634TIP3   OH235316   2.260   1.360   0.545 -0.4890  0.3157 -0.2032
 4634TIP3    H135317   2.289   1.302   0.474 -0.2433  1.1725 -0.8255
 4634TIP3    H235318   2.257   1.447   0.504  1.7874  1.2302  1.3978
 4635TIP3   OH235319   1.903   5.690   4.853  0.1057 -0.3916  0.0176
 4635TIP3    H135320   1.978   5.726   4.806 -1.8199  0.4873 -2.6301
 4635TIP3    H235321   1.884   5.608   4.809 -0.2280 -0.8368  0.9645
 4636TIP3   OH235322   2.031   5.278   3.325 -0.2368 -0.2010  0.1673
 4636TIP3    H135323   2.056   5.205   3.268 -1.6555  0.0653 -0.8514
 4636TIP3    H235324   2.020   5.238   3.411  0.7002 -0.8472  0.0034
 4637TIP3   OH235325   2.388   0.301   2.927  0.1805  0.2944 -0.5433
 4637TIP3    H135326   2.330   0.238   2.970  1.4121 -0.5392 -0.0632
 4637TIP3    H235327   2.343   0.385   2.937 -1.4102 -0.4618 -1.0471
 4638TIP3   OH235328   3.196   1.824  11.260 -0.0046 -0.1161 -0.3291
 4638TIP3    H135329   3.248   1.774  11.323  0.9829 -0.2542 -1.2297
 4638TIP3    H235330   3.107   1.792  11.272  0.5569 -1.9567 -0.7143
 4639TIP3   OH235331   0.182   5.796  13.006  0.3791 -0.1814  0.1629
 4639TIP3    H135332   0.217   5.716  12.966  2.9304  1.1483 -0.4938
 4639TIP3    H235333   0.087   5.786  12.999  0.6055 -3.0133 -0.1138
 4640TIP3   OH235334   0.962   3.714  15.261 -0.8696  0.0519  0.3186
 4640TIP3    H135335   0.871   3.684  15.264 -0.9150 -0.2990 -2.0535
 4640TIP3    H235336   0.959   3.804  15.291 -2.0340  0.0621  0.2240
 4641TIP3   OH235337   5.013   3.092  13.153  0.2789  0.1237  0.2207
 4641TIP3    H135338   5.057   3.176  13.143  0.3429 -0.0566 -1.1816
 4641TIP3    H235339   4.974   3.095  13.241  0.5882  1.4620  0.3224
 4642TIP3   OH235340   5.043   0.307  16.120  0.5221  0.1791 -0.2384
 4642TIP3    H135341   5.087   0.318  16.036 -0.4724 -0.7069 -0.8899
 4642TIP3    H235342   4.962   0.261  16.099 -0.5434  1.4144  0.9825
 4643TIP3   OH235343   1.596   2.433  15.961 -0.7421  0.4594  0.6295
 4643TIP3    H135344   1.625   2.484  16.037  0.8993 -0.4964  0.6982
 4643TIP3    H235345   1.557   2.354  15.998  2.4842 -1.3132  0.5965
 4644TIP3   OH235346   5.066   1.027  12.293  0.0001 -0.6111 -0.2272
 4644TIP3    H135347   5.158   1.048  12.283 -0.1855  0.2234 -0.2691
 4644TIP3    H235348   5.022   1.080  12.226 -0.5880 -0.2873  0.4005
 4645TIP3   OH235349   4.064   5.674  16.363  0.1352 -0.1840  0.0472
 4645TIP3    H135350   3.969   5.673  16.375  0.1315 -0.7638  0.0322
 4645TIP3    H235351   4.084   5.764  16.337 -0.2627  0.2402  1.1529
 4646TIP3   OH235352   2.881   0.178  12.250  0.0787 -0.4508 -0.0882
 4646TIP3    H135353   2.831   0.146  12.174 -0.2194 -1.6031  0.5723
 4646TIP3    H235354   2.972   0.176  12.220 -0.1071  0.0882 -0.7438
 4647TIP3   OH235355   5.423   6.084  11.567 -0.6066  0.8090  0.5270
 4647TIP3    H135356   5.334   6.102  11.538 -0.7845 -0.3764  0.2850
 4647TIP3    H235357   5.420   6.093  11.662 -0.7445  1.7383  0.4398
 4648TIP3   OH235358   4.369   3.952  15.402  0.4380 -0.2113 -0.2328
 4648TIP3    H135359   4.378   3.921  15.312  2.5260  1.0288 -0.5029
 4648TIP3    H235360   4.343   4.044  15.393 -1.6165 -0.6564  0.5088
 4649TIP3   OH235361   0.091   6.601  11.794 -0.3469  0.0327  0.3218
 4649TIP3    H135362   0.176   6.585  11.752 -1.0492  1.2345 -1.6812
 4649TIP3    H235363   0.099   6.560  11.880  1.7858 -1.0471 -0.3199
 4650TIP3   OH235364   1.868   1.707   2.183 -0.3548 -0.6222 -0.2826
 4650TIP3    H135365   1.912   1.639   2.235  0.4233 -1.0952 -1.5107
 4650TIP3    H235366   1.775   1.697   2.203 -0.1257 -1.1742  0.5538
 4651TIP3   OH235367   2.910   6.632   0.758  0.7110 -0.0157  0.3650
 4651TIP3    H135368   2.818   6.655   0.748  0.7149  0.3065  1.0221
 4651TIP3    H235369   2.916   6.542   0.725  0.2689  0.1452 -0.1648
 4652TIP3   OH235370   1.562   5.648   1.867 -0.4647  0.1221  0.1539
 4652TIP3    H135371   1.503   5.598   1.810 -0.5050 -1.0351  1.1674
 4652TIP3    H235372   1.587   5.586   1.935  0.4829  1.1441  0.7640
 4653TIP3   OH235373   0.417   1.562   1.997 -0.1456 -0.1386 -0.1637
 4653TIP3    H135374   0.482   1.606   2.052  0.1022  0.5573 -0.9836
 4653TIP3    H235375   0.345   1.625   1.990 -0.4623 -0.4925 -0.0919
 4654TIP3   OH235376   1.969   1.557   4.542  0.0088 -0.5434 -0.2500
 4654TIP3    H135377   2.031   1.611   4.493  0.4031 -1.5888 -0.9402
 4654TIP3    H235378   2.021   1.483   4.574 -0.3987 -0.2446  1.1671
 4655TIP3   OH235379   3.744   4.011   3.942 -0.0526 -0.4613 -0.1764
 4655TIP3    H135380   3.662   4.060   3.942 -0.5388 -1.2604  0.0191
 4655TIP3    H235381   3.719   3.922   3.919  0.7579 -0.7224 -0.0769
 4656TIP3   OH235382   2.369   1.587  13.911 -0.2771 -0.6660  0.2529
 4656TIP3    H135383   2.296   1.563  13.968 -1.7760 -0.2401 -1.3858
 4656TIP3    H235384   2.414   1.504  13.894  0.7981 -0.6895  2.6995
 4657TIP3   OH235385   3.559   3.814   2.078 -0.4745 -0.4515 -0.5015
 4657TIP3    H135386   3.485   3.761   2.109 -0.1646 -0.8806 -0.4882
 4657TIP3    H235387   3.519   3.878   2.018 -0.8046 -0.9032 -0.7661
 4658TIP3   OH235388   1.872   5.607   0.672  0.2779  0.1967  0.0290
 4658TIP3    H135389   1.906   5.544   0.608 -0.6590  0.3789 -0.6686
 4658TIP3    H235390   1.825   5.553   0.736  1.1776  0.0184  0.5621
 4659TIP3   OH235391   0.056   2.172  11.270 -0.4246 -0.1723 -0.0938
 4659TIP3    H135392   0.141   2.164  11.313 -0.5394 -0.4785  0.0750
 4659TIP3    H235393   0.054   2.100  11.207 -1.0109 -0.8337  0.6690
 4660TIP3   OH235394   4.823   3.324   0.391 -0.0268 -0.4390  0.5916
 4660TIP3    H135395   4.729   3.310   0.401  0.0552 -1.3578  0.1401
 4660TIP3    H235396   4.841   3.404   0.441 -1.1932  0.2324 -0.0467
 4661TIP3   OH235397   3.478   1.183  12.542 -0.1416  0.3213  0.2381
 4661TIP3    H135398   3.499   1.114  12.480 -1.7789  1.5176 -1.7969
 4661TIP3    H235399   3.516   1.154  12.625  0.6007 -2.1980 -0.8973
 4662TIP3   OH235400   6.138   3.636  17.103  0.0432  0.6051  0.2497
 4662TIP3    H135401   6.137   3.544  17.127 -0.8755  0.2269 -1.1427
 4662TIP3    H235402   6.155   3.637  17.009  0.6185  1.8867  0.3470
 4663TIP3   OH235403   2.038   4.804  14.263  0.5165  0.9748 -0.2825
 4663TIP3    H135404   1.954   4.816  14.307  0.9913  2.3506  0.2802
 4663TIP3    H235405   2.032   4.715  14.227 -0.3320  0.2002  1.5794
 4664TIP3   OH235406   2.714   2.223  14.759 -0.1078 -0.0804  0.1737
 4664TIP3    H135407   2.679   2.281  14.826  0.4125 -0.0521  0.4276
 4664TIP3    H235408   2.763   2.280  14.700 -2.8611  0.3569 -1.8930
 4665TIP3   OH235409   1.147   0.701   5.327  0.5288  0.2411  0.2591
 4665TIP3    H135410   1.140   0.649   5.247 -1.4722  0.9690 -0.0936
 4665TIP3    H235411   1.181   0.639   5.392 -1.1262 -1.3846 -0.3107
 4666TIP3   OH235412   0.050   2.123  16.030  0.7292 -0.1495  0.4036
 4666TIP3    H135413   0.109   2.178  15.978 -0.8919 -0.0664 -1.4706
 4666TIP3    H235414   0.037   2.045  15.977 -2.2501  0.6381 -0.2242
 4667TIP3   OH235415   0.477   2.163  17.101 -0.1343  1.2585 -0.7912
 4667TIP3    H135416   0.440   2.175  17.014 -1.8563 -0.2644 -0.3364
 4667TIP3    H235417   0.488   2.069  17.109  1.4355  1.4915  0.1013
 4668TIP3   OH235418   2.152   1.927  12.365  0.3671 -0.6006  0.3295
 4668TIP3    H135419   2.143   1.939  12.271 -0.2821 -0.7683  0.3633
 4668TIP3    H235420   2.064   1.905  12.395  0.4532 -0.0088  1.0569
 4669TIP3   OH235421   1.517   4.637   3.666  0.0865  0.2335  0.0000
 4669TIP3    H135422   1.453   4.686   3.616 -0.6618 -0.6549  0.0513
 4669TIP3    H235423   1.465   4.586   3.729  0.9736  0.9783  1.3780
 4670TIP3   OH235424   0.785   3.648  12.281 -0.8798  0.3947  0.1370
 4670TIP3    H135425   0.779   3.739  12.253 -0.3441  0.3616 -0.1075
 4670TIP3    H235426   0.695   3.616  12.278 -1.2666  1.2663  1.4641
 4671TIP3   OH235427   1.788   4.977  12.347 -0.6786 -0.6657  0.5497
 4671TIP3    H135428   1.844   5.051  12.326  1.0108 -1.5553  1.7245
 4671TIP3    H235429   1.752   4.997  12.433  0.6303 -1.6237  1.3633
 4672TIP3   OH235430   1.415   0.402   1.146 -0.2342 -0.3609 -0.0277
 4672TIP3    H135431   1.326   0.438   1.142 -0.0985 -0.1075 -1.6777
 4672TIP3    H235432   1.469   0.475   1.177 -0.6184 -0.5767  1.1767
 4673TIP3   OH235433   4.369   4.309  12.147 -0.2505 -0.0736  0.1534
 4673TIP3    H135434   4.381   4.291  12.054  0.4798  0.8801  0.0547
 4673TIP3    H235435   4.402   4.230  12.190 -0.6293 -0.5401 -0.3877
 4674TIP3   OH235436   4.752   3.405  12.471  1.0921 -0.3381 -0.6907
 4674TIP3    H135437   4.745   3.363  12.557 -0.7348  0.3649 -0.4438
 4674TIP3    H235438   4.706   3.345  12.411  1.2054 -0.1849 -0.9347
 4675TIP3   OH235439   6.704   5.936   5.698 -0.0067  0.0278 -0.5665
 4675TIP3    H135440   6.649   5.906   5.770 -0.2717 -0.2084 -0.8677
 4675TIP3    H235441   6.782   5.971   5.741  0.9246 -2.2698 -0.2269
 4676TIP3   OH235442   3.825   3.035  14.821 -0.2354  0.1916 -0.0792
 4676TIP3    H135443   3.836   3.130  14.823  1.1344  0.1098 -1.4016
 4676TIP3    H235444   3.895   3.001  14.878  0.1337 -0.0415 -0.6543
 4677TIP3   OH235445   5.069   1.812   4.338 -0.1622 -0.3192 -0.5796
 4677TIP3    H135446   5.042   1.770   4.257  0.3521 -0.9197 -0.4457
 4677TIP3    H235447   5.164   1.818   4.331 -0.1161 -0.3709 -0.0229
 4678TIP3   OH235448   5.329   1.554   3.467  0.7794 -0.0319  0.2760
 4678TIP3    H135449   5.385   1.509   3.531 -0.0693  0.4578  1.3995
 4678TIP3    H235450   5.245   1.508   3.473  0.2837  0.8792  0.5153
 4679TIP3   OH235451   6.614   1.191   2.887  0.8051 -0.2727  0.6249
 4679TIP3    H135452   6.586   1.100   2.875 -0.3666 -0.0662  1.5635
 4679TIP3    H235453   6.649   1.217   2.802  0.7333 -1.4666  0.2195
 4680TIP3   OH235454   2.744   6.423  16.070 -0.3572 -0.2504  0.7942
 4680TIP3    H135455   2.664   6.370  16.079 -1.2676  0.8182 -0.6808
 4680TIP3    H235456   2.787   6.389  15.992 -1.1479  1.3763 -0.3979
 4681TIP3   OH235457   0.319   2.311  12.771  0.8299  0.5964 -0.7716
 4681TIP3    H135458   0.344   2.383  12.714  1.4586  0.2038 -1.0042
 4681TIP3    H235459   0.398   2.291  12.821  0.6996  0.0077 -0.7869
 4682TIP3   OH235460   0.432   6.315   0.611 -0.4242  0.7263  0.2819
 4682TIP3    H135461   0.492   6.357   0.550 -2.8450  0.3960 -2.5801
 4682TIP3    H235462   0.353   6.370   0.609 -2.1902 -1.6392 -0.4294
 4683TIP3   OH235463   6.492   3.902   5.854  0.6448 -0.2961 -0.5152
 4683TIP3    H135464   6.415   3.953   5.879  1.3068  0.5703 -0.1899
 4683TIP3    H235465   6.526   3.867   5.936  1.2390  0.2615 -0.5170
 4684TIP3   OH235466   4.334   6.157   3.381  0.3556  0.0460  0.1609
 4684TIP3    H135467   4.287   6.197   3.308 -0.5552  1.7563  1.6061
 4684TIP3    H235468   4.270   6.096   3.419 -0.0468  0.9219  0.9342
 4685TIP3   OH235469   5.355   2.298   1.176 -0.4938 -0.0218 -0.0307
 4685TIP3    H135470   5.320   2.318   1.089  0.0124  0.9734 -0.0200
 4685TIP3    H235471   5.447   2.322   1.172 -0.3717 -0.3367  0.6603
 4686TIP3   OH235472   3.972   0.541  11.134 -0.0022 -0.0677 -0.6833
 4686TIP3    H135473   4.009   0.563  11.048  2.5619 -1.4581 -0.0220
 4686TIP3    H235474   4.009   0.606  11.193 -0.3219 -0.2000 -0.3337
 4687TIP3   OH235475   3.731   3.859  17.077 -0.3012  0.5955 -0.1645
 4687TIP3    H135476   3.826   3.848  17.076 -0.1847  1.5004  0.3919
 4687TIP3    H235477   3.712   3.912  17.000 -0.1365  1.9732  0.7104
 4688TIP3   OH235478   4.997   0.882  14.787  0.8232 -0.3189 -0.1006
 4688TIP3    H135479   5.034   0.795  14.770  1.9092  0.0178  0.3938
 4688TIP3    H235480   4.979   0.882  14.881 -0.0873 -0.3366 -0.2689
 4689TIP3   OH235481   0.775   2.226  17.117 -0.0024 -0.1881  0.5569
 4689TIP3    H135482   0.723   2.176  17.180 -3.5849  0.6557 -1.4764
 4689TIP3    H235483   0.788   2.167  17.043  1.0285 -0.0060  0.5746
 4690TIP3   OH235484   3.923   1.091   4.745  0.3120  0.6891  0.4137
 4690TIP3    H135485   3.872   1.010   4.741  0.6569  0.4616  0.5393
 4690TIP3    H235486   4.004   1.066   4.789  0.9154  0.8483 -0.5736
 4691TIP3   OH235487   2.585   1.000  16.686 -0.0607  0.0477 -0.1707
 4691TIP3    H135488   2.562   1.057  16.759 -1.8167 -0.0038 -0.6277
 4691TIP3    H235489   2.514   1.013  16.622  0.5818 -1.1020 -1.1703
 4692TIP3   OH235490   4.369   2.873   0.599  0.2566  0.0517  0.5771
 4692TIP3    H135491   4.395   2.800   0.542  1.3879  1.8000 -1.3230
 4692TIP3    H235492   4.274   2.869   0.602  0.2475 -0.9043 -0.3532
 4693TIP3   OH235493   5.182   4.209   6.433  0.4567 -0.1931 -0.1702
 4693TIP3    H135494   5.212   4.300   6.442  1.2090 -0.5645  1.2609
 4693TIP3    H235495   5.087   4.215   6.431  0.5057  0.6630 -0.7177
 4694TIP3   OH235496   5.819   6.047   1.599 -0.3316 -0.3689 -0.0174
 4694TIP3    H135497   5.764   6.122   1.621 -0.1455 -0.4064  0.5866
 4694TIP3    H235498   5.845   6.010   1.684  1.1304  0.0163 -0.2644
 4695TIP3   OH235499   3.571   1.758   4.297  0.5930 -0.2084 -0.1793
 4695TIP3    H135500   3.513   1.781   4.369  1.1678 -1.0976  0.5879
 4695TIP3    H235501   3.614   1.841   4.273 -1.2337  0.5451 -1.0269
 4696TIP3   OH235502   1.170   5.290  12.988 -0.7344  0.0086  0.1698
 4696TIP3    H135503   1.207   5.224  13.048 -1.9464  0.4570  1.4868
 4696TIP3    H235504   1.077   5.265  12.981 -1.2378  1.6040  0.7803
 4697TIP3   OH235505   1.416   6.511   1.024  0.0321  0.7360 -0.0965
 4697TIP3    H135506   1.349   6.444   1.035  1.5859 -0.7664  0.6364
 4697TIP3    H235507   1.411   6.564   1.103  0.4923 -0.1240  0.5231
 4698TIP3   OH235508   3.503   2.767   3.399 -0.1261  0.0591  0.3230
 4698TIP3    H135509   3.552   2.689   3.371  1.4867  1.6957 -1.8124
 4698TIP3    H235510   3.571   2.825   3.434 -0.8701  1.5313 -0.6263
 4699TIP3   OH235511   4.698   0.281   6.709 -0.0432  0.0783 -0.0893
 4699TIP3    H135512   4.718   0.357   6.653  0.2928 -0.2189 -0.3780
 4699TIP3    H235513   4.603   0.272   6.704  0.1461 -1.6014 -2.8519
 4700TIP3   OH235514   2.267   0.403   4.964  0.3870  0.4659  0.4233
 4700TIP3    H135515   2.336   0.440   5.019  1.2362  1.1840 -1.0781
 4700TIP3    H235516   2.187   0.447   4.995  1.0944  2.1473 -0.0173
 4701TIP3   OH235517   2.969   4.455  12.373 -0.2420 -0.2788  0.0577
 4701TIP3    H135518   2.954   4.548  12.358 -1.3891 -0.7387 -2.0238
 4701TIP3    H235519   2.970   4.416  12.286 -2.3628 -2.5824  0.9142
 4702TIP3   OH235520   4.933   5.067  13.718  0.5866  0.5205  0.4324
 4702TIP3    H135521   4.961   5.111  13.798  0.1762  1.9957 -0.2045
 4702TIP3    H235522   4.901   5.137  13.661  0.6478 -0.5118 -0.9437
 4703TIP3   OH235523   3.217   2.167   2.240 -0.7286  0.3298 -0.2592
 4703TIP3    H135524   3.209   2.250   2.287  0.8184  1.0985 -1.2833
 4703TIP3    H235525   3.308   2.140   2.252 -0.6579 -0.1536 -1.6331
 4704TIP3   OH235526   4.917   5.654  13.932 -0.2855 -0.0179 -0.3984
 4704TIP3    H135527   5.004   5.657  13.892 -0.0861 -0.5102 -0.0014
 4704TIP3    H235528   4.911   5.736  13.982  0.1209 -0.1885 -0.0694
 4705TIP3   OH235529   5.953   1.686   1.232  0.4510 -0.7020  0.0377
 4705TIP3    H135530   5.862   1.701   1.210  0.9603  2.5435 -0.2821
 4705TIP3    H235531   5.989   1.638   1.157 -0.2580  0.9663 -1.4219
 4706TIP3   OH235532   1.026   5.822  15.222  0.4645 -0.2988 -0.0656
 4706TIP3    H135533   1.057   5.772  15.298 -0.4386 -0.7612  0.0175
 4706TIP3    H235534   1.086   5.799  15.152  1.2542  0.0575  0.4804
 4707TIP3   OH235535   2.916   0.425   0.437 -0.1356 -0.1847  0.2145
 4707TIP3    H135536   2.833   0.378   0.429 -0.5946  0.7603 -0.8138
 4707TIP3    H235537   2.893   0.507   0.480  0.2470  0.1247 -0.1698
 4708TIP3   OH235538   3.881   4.718  14.468 -0.8332  0.1580  0.1834
 4708TIP3    H135539   3.911   4.628  14.458 -0.2534  0.1913  1.3810
 4708TIP3    H235540   3.826   4.734  14.392 -1.4452 -1.4092  0.2645
 4709TIP3   OH235541   0.663   0.979  14.392  0.2451  0.5643 -0.1640
 4709TIP3    H135542   0.630   0.919  14.325 -3.2661  0.8106  1.1434
 4709TIP3    H235543   0.662   0.928  14.473  1.9817  1.0059  0.1652
 4710TIP3   OH235544   1.587   0.201   3.022 -0.2114 -0.5428 -0.1535
 4710TIP3    H135545   1.678   0.174   3.020 -0.4500 -1.3090 -2.0395
 4710TIP3    H235546   1.590   0.293   3.048  1.0069 -0.8059  0.7188
 4711TIP3   OH235547   5.546   3.217   3.005 -0.1468  0.0115  0.2978
 4711TIP3    H135548   5.512   3.301   2.975 -0.3244 -0.5592 -1.1671
 4711TIP3    H235549   5.529   3.217   3.099 -2.5856  0.4865 -0.0768
 4712TIP3   OH235550   5.976   4.071   0.404 -0.2475 -0.2352  0.1781
 4712TIP3    H135551   6.053   4.090   0.350 -0.6598  2.0858  0.2786
 4712TIP3    H235552   5.989   3.982   0.434  0.8958 -0.9837 -2.2659
 4713TIP3   OH235553   0.505   0.658   3.382 -0.1398  0.0521  0.2981
 4713TIP3    H135554   0.540   0.746   3.368  0.9711 -0.5036 -0.5845
 4713TIP3    H235555   0.420   0.658   3.338 -0.4032  0.8430  0.7924
 4714TIP3   OH235556   4.629   3.745  11.446 -0.0056 -0.1588 -0.4350
 4714TIP3    H135557   4.702   3.684  11.434  1.0849  0.4922  2.0251
 4714TIP3    H235558   4.568   3.697  11.502 -0.2763  0.1756 -0.4464
 4715TIP3   OH235559   4.643   0.848  16.091 -0.1335 -0.3666  0.8896
 4715TIP3    H135560   4.710   0.799  16.139 -0.4267  0.0464  1.7420
 4715TIP3    H235561   4.677   0.937  16.087 -0.3157 -0.3037  0.7224
 4716TIP3   OH235562   6.388   6.770  14.113 -0.6090  0.1005 -0.9791
 4716TIP3    H135563   6.453   6.715  14.069 -0.4029  0.2325 -0.8431
 4716TIP3    H235564   6.439   6.819  14.178 -0.7682  0.5559 -1.1947
 4717TIP3   OH235565   4.281   6.324  16.603  0.0635 -1.0172  0.0291
 4717TIP3    H135566   4.219   6.253  16.619 -1.1769  0.2492  1.0674
 4717TIP3    H235567   4.293   6.365  16.689 -0.6024  1.0886 -0.8213
 4718TIP3   OH235568   5.870   2.813   2.804  0.2247 -0.5045  0.0619
 4718TIP3    H135569   5.842   2.721   2.799 -1.5234 -0.0337  0.5984
 4718TIP3    H235570   5.830   2.846   2.883 -0.5875  1.1870 -1.0013
 4719TIP3   OH235571   1.308   4.205   1.671 -0.0344 -0.5630  0.1852
 4719TIP3    H135572   1.239   4.197   1.604  2.0586 -0.2209 -2.1534
 4719TIP3    H235573   1.270   4.265   1.736 -2.1884 -0.9417 -0.6178
 4720TIP3   OH235574   5.352   2.763  14.903  0.0909 -0.4362 -0.0639
 4720TIP3    H135575   5.359   2.724  14.816  0.7072 -0.8742  0.1808
 4720TIP3    H235576   5.437   2.804  14.918 -0.6577  1.3688 -0.4764
 4721TIP3   OH235577   2.948   0.920  12.857  0.2771  0.3815 -0.5719
 4721TIP3    H135578   2.939   0.980  12.783  0.3883 -0.1818 -1.0599
 4721TIP3    H235579   3.019   0.861  12.830  0.2453  0.1060 -0.0577
 4722TIP3   OH235580   2.829   4.136   1.869 -0.0833  0.3560 -0.4540
 4722TIP3    H135581   2.778   4.149   1.789  1.1202 -0.3332 -1.3561
 4722TIP3    H235582   2.881   4.057   1.853  1.4198  1.1302  0.3403
 4723TIP3   OH235583   1.758   4.067   5.404  0.3418 -0.1537  0.2499
 4723TIP3    H135584   1.848   4.057   5.433  0.6532 -1.5968 -1.0523
 4723TIP3    H235585   1.705   4.041   5.480  1.0130  0.1457  0.8328
 4724TIP3   OH235586   0.907   4.477  12.600 -0.4117 -0.1333  0.4465
 4724TIP3    H135587   0.895   4.450  12.509  0.9089  3.1394 -0.8381
 4724TIP3    H235588   0.818   4.496  12.631 -0.7372  0.6027 -0.8551
 4725TIP3   OH235589   0.586   1.111   3.101 -0.6289  0.0341  0.4986
 4725TIP3    H135590   0.650   1.183   3.107  1.9106 -2.1730  2.1897
 4725TIP3    H235591   0.517   1.136   3.163  0.0792  1.1078  0.8884
 4726TIP3   OH235592   4.523   0.345   3.080 -0.4450  0.1696  0.6884
 4726TIP3    H135593   4.609   0.316   3.050 -0.9187 -0.4640 -0.1062
 4726TIP3    H235594   4.508   0.427   3.033 -0.5483 -0.0567  0.3218
 4727TIP3   OH235595   1.680   0.672  16.705  0.4501  0.7014  0.1069
 4727TIP3    H135596   1.665   0.682  16.611 -0.0968 -1.2787 -0.0704
 4727TIP3    H235597   1.755   0.613  16.711 -1.2319 -1.5162  0.8049
 4728TIP3   OH235598   6.380   5.674   4.616 -0.0518 -0.2342 -0.2051
 4728TIP3    H135599   6.449   5.650   4.678 -0.3094  0.1055  0.2161
 4728TIP3    H235600   6.350   5.760   4.645  0.6204  0.4707 -1.4963
 4729TIP3   OH235601   0.764   6.123  14.008  0.3014  0.0700  0.2013
 4729TIP3    H135602   0.722   6.119  14.093  1.8508  1.5850  1.0778
 4729TIP3    H235603   0.692   6.127  13.945 -0.8545 -1.1265  1.4029
 4730TIP3   OH235604   5.656   3.662  15.012  0.1268 -0.6936  0.5787
 4730TIP3    H135605   5.675   3.591  14.950  0.4034 -0.7215  0.6951
 4730TIP3    H235606   5.605   3.725  14.961  0.3118 -0.7392  0.3351
 4731TIP3   OH235607   5.525   3.478   0.919  0.4928 -0.0846  0.1013
 4731TIP3    H135608   5.533   3.547   0.984 -1.0084  0.8787 -0.6752
 4731TIP3    H235609   5.478   3.519   0.846 -0.2747 -1.8562 -0.4570
 4732TIP3   OH235610   0.602   3.715   0.243 -0.0537 -0.1415  0.3914
 4732TIP3    H135611   0.513   3.681   0.227  0.0981 -1.0198  1.2683
 4732TIP3    H235612   0.644   3.645   0.294  0.8869  0.6056  0.6485
 4733TIP3   OH235613   5.831   2.754  10.864  0.3085  0.5512 -0.3945
 4733TIP3    H135614   5.747   2.767  10.820  1.1402  1.1538 -1.8655
 4733TIP3    H235615   5.868   2.676  10.823  0.6697  0.5424 -0.0598
 4734TIP3   OH235616   6.146   6.619  10.550 -0.5067 -0.4525 -1.0425
 4734TIP3    H135617   6.122   6.532  10.516  2.8040 -0.7278 -3.0586
 4734TIP3    H235618   6.176   6.602  10.639 -0.8246 -1.2031 -1.0699
 4735TIP3   OH235619   2.901   6.083  15.825  0.0378  0.1737  0.3439
 4735TIP3    H135620   2.896   5.990  15.803  1.1783  0.1641  0.0671
 4735TIP3    H235621   2.902   6.084  15.921 -1.6902  0.0279  0.4016
 4736TIP3   OH235622   3.249   3.875   1.621 -0.0354  0.1187  0.0026
 4736TIP3    H135623   3.176   3.847   1.677  0.0126  2.5048  1.3734
 4736TIP3    H235624   3.258   3.969   1.638  2.4264  0.1848 -1.2489
 4737TIP3   OH235625   4.371   1.775   5.741  0.6205 -0.4508  0.0117
 4737TIP3    H135626   4.409   1.742   5.659 -1.0554  0.8326 -1.3412
 4737TIP3    H235627   4.277   1.773   5.726  0.3419  1.7666  1.1203
 4738TIP3   OH235628   1.022   6.695  11.892  0.5817 -0.0962 -0.5528
 4738TIP3    H135629   0.986   6.643  11.964 -0.8454 -0.6998 -1.6677
 4738TIP3    H235630   1.089   6.639  11.853  1.7127  0.4202  0.5523
 4739TIP3   OH235631   3.450   4.030  10.722 -0.1688  0.8576  0.3334
 4739TIP3    H135632   3.454   3.957  10.784  0.8769  0.6307  0.0249
 4739TIP3    H235633   3.372   4.013  10.669  0.1617 -0.1548  0.1458
 4740TIP3   OH235634   0.392   5.340  10.791  0.3189 -0.0237 -0.1365
 4740TIP3    H135635   0.400   5.273  10.859 -0.9370 -0.4568 -0.4027
 4740TIP3    H235636   0.437   5.417  10.828 -2.7123  0.7144  2.4459
 4741TIP3   OH235637   3.414   2.458   6.093  0.2458 -0.4439 -0.4094
 4741TIP3    H135638   3.418   2.397   6.019  1.1262  0.5069 -1.1864
 4741TIP3    H235639   3.490   2.436   6.147  0.3171 -0.3229 -0.4590
 4742TIP3   OH235640   5.058   5.712   0.081  0.4724  0.0090 -0.1687
 4742TIP3    H135641   5.105   5.635   0.048  1.2807  0.8320 -0.9985
 4742TIP3    H235642   4.995   5.734   0.012  1.0740  0.7906 -0.4856
 4743TIP3   OH235643   4.932   6.285   0.804 -0.0704 -0.4780 -0.2774
 4743TIP3    H135644   4.953   6.276   0.711 -0.6729 -2.0994 -0.2927
 4743TIP3    H235645   4.990   6.224   0.849  1.2496  1.3442  0.6136
 4744TIP3   OH235646   2.227   6.319   0.646  0.2744 -0.5292 -0.0807
 4744TIP3    H135647   2.220   6.312   0.742  0.1754  0.4064 -0.0078
 4744TIP3    H235648   2.293   6.254   0.622 -0.3061 -1.3726  0.5222
 4745TIP3   OH235649   2.137   4.474  15.911  0.3203 -0.0120  0.2299
 4745TIP3    H135650   2.230   4.491  15.928 -0.0588  3.1815 -0.3629
 4745TIP3    H235651   2.093   4.497  15.992 -0.2651  2.4459 -0.7185
 4746TIP3   OH235652   3.685   2.033   5.084  0.0359 -0.1021  0.0532
 4746TIP3    H135653   3.767   2.065   5.122 -0.9968 -0.0663  2.4288
 4746TIP3    H235654   3.685   2.065   4.994  1.0701  2.8382  1.0147
 4747TIP3   OH235655   6.158   5.007  14.016  0.1070 -0.1590 -0.0357
 4747TIP3    H135656   6.069   4.972  14.021  0.3600 -0.9693 -0.8448
 4747TIP3    H235657   6.215   4.930  14.023  0.7951  0.4345  1.3839
 4748TIP3   OH235658   5.025   2.395  11.672 -0.0108 -0.3294  0.3306
 4748TIP3    H135659   5.055   2.486  11.662  0.1674 -0.4145  0.0972
 4748TIP3    H235660   5.007   2.386  11.765 -0.4699  0.0876  0.2886
 4749TIP3   OH235661   4.131   3.156   1.346  0.0712 -0.3027  0.0948
 4749TIP3    H135662   4.202   3.177   1.407  0.2039 -1.5489  0.3862
 4749TIP3    H235663   4.092   3.077   1.382 -1.2190  0.1376 -0.2940
 4750TIP3   OH235664   0.836   5.988   1.331  0.0526 -0.5840  0.3488
 4750TIP3    H135665   0.847   6.083   1.345 -1.5795 -0.4206  0.7034
 4750TIP3    H235666   0.749   5.969   1.365  0.3496 -2.2288  0.2534
 4751TIP3   OH235667   1.495   6.636  16.716 -0.2897 -0.0703  0.0323
 4751TIP3    H135668   1.414   6.678  16.687  0.1510 -0.3462 -1.6888
 4751TIP3    H235669   1.563   6.676  16.662  0.6068 -0.4868  0.8390
 4752TIP3   OH235670   5.585   5.400   3.445  0.5695 -0.3988 -0.1337
 4752TIP3    H135671   5.634   5.451   3.509  0.4278 -1.0572  0.5189
 4752TIP3    H235672   5.646   5.334   3.415  0.7113  0.0617 -0.8748
 4753TIP3   OH235673   2.628   3.743  11.741 -0.5378 -0.5168 -0.3248
 4753TIP3    H135674   2.600   3.745  11.832  2.1010  1.6315  0.5742
 4753TIP3    H235675   2.617   3.651  11.714 -0.7742 -1.3540  2.3674
 4754TIP3   OH235676   0.675   2.491  16.547 -0.0710  0.0954  0.2103
 4754TIP3    H135677   0.696   2.579  16.518  1.1420 -0.2604 -0.0152
 4754TIP3    H235678   0.669   2.498  16.642  0.9028  0.2362  0.2621
 4755TIP3   OH235679   0.476   3.797   6.743 -0.6032  0.2165 -0.0179
 4755TIP3    H135680   0.382   3.780   6.734 -0.4197 -0.8199 -0.1564
 4755TIP3    H235681   0.483   3.892   6.746 -1.4634  0.4327 -2.4355
 4756TIP3   OH235682   6.534   0.508   5.960 -0.8739 -0.2455 -0.7205
 4756TIP3    H135683   6.465   0.442   5.956 -0.6196 -0.5299 -0.4826
 4756TIP3    H235684   6.536   0.535   6.052 -0.3496 -0.5871 -0.6254
 4757TIP3   OH235685   6.306   4.793  12.672  0.2221 -0.3170 -0.0832
 4757TIP3    H135686   6.314   4.846  12.593 -0.3418  0.7285  0.5532
 4757TIP3    H235687   6.389   4.745  12.676  1.2709  1.4131 -0.0352
 4758TIP3   OH235688   2.252   6.603   6.421  0.5279  0.1660 -0.3456
 4758TIP3    H135689   2.164   6.566   6.429  1.4342 -1.8525  0.9546
 4758TIP3    H235690   2.255   6.672   6.487 -0.0330  0.1638 -0.3106
 4759TIP3   OH235691   0.557   6.121  16.073 -0.1431 -0.7254  0.2560
 4759TIP3    H135692   0.646   6.122  16.109 -0.3265  0.7352  0.7392
 4759TIP3    H235693   0.502   6.095  16.146 -0.2709 -0.0492  0.4061
 4760TIP3   OH235694   1.764   2.473   5.829  0.0875  0.5597 -0.1448
 4760TIP3    H135695   1.755   2.529   5.752  0.1045 -0.1465 -0.6815
 4760TIP3    H235696   1.674   2.448   5.851  0.1750 -1.0978 -1.3883
 4761TIP3   OH235697   1.087   0.914   3.587  0.2373  0.1547 -0.1120
 4761TIP3    H135698   1.066   0.944   3.498 -1.4184  1.0690  0.5420
 4761TIP3    H235699   1.074   0.992   3.642  4.1398  0.4734  0.6508
 4762TIP3   OH235700   4.947   0.134   4.190  0.2184  0.6001  0.0268
 4762TIP3    H135701   5.003   0.200   4.150 -1.8633  1.4904 -1.5935
 4762TIP3    H235702   4.975   0.130   4.281  0.4286  3.7429  0.1871
 4763TIP3   OH235703   1.988   2.928   5.422  0.4363  0.9633  0.3035
 4763TIP3    H135704   2.057   2.993   5.439 -0.6314  2.0581  0.5775
 4763TIP3    H235705   1.909   2.979   5.409 -0.4275 -0.2889  0.4229
 4764TIP3   OH235706   5.579   1.886   4.999  0.4188  0.2366  0.3096
 4764TIP3    H135707   5.578   1.929   5.085 -1.5301 -0.1144  0.5084
 4764TIP3    H235708   5.487   1.872   4.978  0.8317  0.3845 -1.8999
 4765TIP3   OH235709   4.225   1.915   4.979  0.5084 -0.0938  0.4242
 4765TIP3    H135710   4.286   1.956   4.918 -0.0693 -0.7577 -0.6297
 4765TIP3    H235711   4.140   1.956   4.958  0.4284  0.2304  1.3180
 4766TIP3   OH235712   1.213   2.565   4.557  0.0986 -0.2076  0.1824
 4766TIP3    H135713   1.156   2.603   4.623 -0.2740 -0.5866  0.0794
 4766TIP3    H235714   1.157   2.505   4.508  0.5902 -0.6121  0.1045
 4767TIP3   OH235715   3.561   1.209   2.505 -0.4035  0.4003 -0.4200
 4767TIP3    H135716   3.645   1.165   2.519 -0.0599  0.7686 -1.2495
 4767TIP3    H235717   3.579   1.302   2.522 -0.9618  0.3253  0.6634
 4768TIP3   OH235718   3.721   0.308   6.245 -0.0046  0.4134 -0.2258
 4768TIP3    H135719   3.719   0.226   6.294  2.1896  0.9001  0.7811
 4768TIP3    H235720   3.629   0.336   6.241 -0.3590  0.4203  3.8232
 4769TIP3   OH235721   2.220   0.960  13.307  0.0081 -0.0318 -0.2834
 4769TIP3    H135722   2.279   0.921  13.372 -1.1942 -1.1518  0.1776
 4769TIP3    H235723   2.147   0.994  13.359 -0.7049 -0.4496 -0.9995
 4770TIP3   OH235724   3.973   3.485   2.218  0.2633  0.4032 -0.0369
 4770TIP3    H135725   3.982   3.496   2.313  4.1591 -0.5118 -0.0946
 4770TIP3    H235726   3.992   3.392   2.204 -2.1877  0.0638 -1.6655
 4771TIP3   OH235727   0.970   3.673  17.145 -0.7127  0.4041  0.2209
 4771TIP3    H135728   0.937   3.730  17.075  0.6229 -0.1539 -0.9217
 4771TIP3    H235729   1.025   3.731  17.199 -1.7313  0.8332  0.8243
 4772TIP3   OH235730   2.660   4.625  14.091 -0.1269 -0.5047 -0.3768
 4772TIP3    H135731   2.644   4.630  13.997 -1.3496  1.3366 -0.1237
 4772TIP3    H235732   2.592   4.565  14.124 -1.4620  0.9459 -0.3658
 4773TIP3   OH235733   1.807   0.300   5.636  0.0664 -0.2031  0.2889
 4773TIP3    H135734   1.881   0.273   5.581 -0.4359 -0.1397 -0.4383
 4773TIP3    H235735   1.837   0.379   5.680  0.6096 -0.4621  0.3891
 4774TIP3   OH235736   3.604   1.237  16.233 -0.0430 -0.6538 -0.3867
 4774TIP3    H135737   3.656   1.194  16.301  0.0420  2.3823  1.6554
 4774TIP3    H235738   3.516   1.202  16.244 -0.3075  0.6012  2.1965
 4775TIP3   OH235739   5.564   3.816  11.653 -0.5263  0.2117 -0.0586
 4775TIP3    H135740   5.595   3.728  11.630  3.0502  1.2327  0.2102
 4775TIP3    H235741   5.605   3.873  11.587  0.0415  1.9660  1.7325
 4776TIP3   OH235742   0.191   1.390   1.294  0.8773 -1.0017  0.3676
 4776TIP3    H135743   0.208   1.324   1.361 -0.5585 -1.5193  0.2457
 4776TIP3    H235744   0.107   1.428   1.318  0.1037 -1.5221 -1.3822
 4777TIP3   OH235745   3.314   4.317   1.129  0.4138 -0.3145  0.1836
 4777TIP3    H135746   3.349   4.406   1.133 -3.3571  1.2975  2.1790
 4777TIP3    H235747   3.327   4.282   1.217 -0.3823 -0.7623  0.1318
 4778TIP3   OH235748   5.939   6.312  13.865 -0.1602  0.6105 -0.3357
 4778TIP3    H135749   5.943   6.382  13.930 -0.7754 -0.2249  0.6331
 4778TIP3    H235750   5.850   6.318  13.829 -0.0913  0.5543 -0.5175
 4779TIP3   OH235751   1.606   2.558   3.790 -0.2317 -0.4399  0.2333
 4779TIP3    H135752   1.672   2.493   3.764  0.5412 -0.1318  1.3688
 4779TIP3    H235753   1.612   2.561   3.886 -1.9661 -0.4637  0.3733
 4780TIP3   OH235754   3.649   5.318  12.098  0.4978  0.2587 -0.0464
 4780TIP3    H135755   3.658   5.327  12.003  0.6724 -0.6265 -0.1210
 4780TIP3    H235756   3.700   5.240  12.120 -1.1192 -0.7120  0.4893
 4781TIP3   OH235757   2.277   1.284   5.234  0.0584  0.2741  0.1449
 4781TIP3    H135758   2.257   1.357   5.293  1.0369 -0.5495  1.5763
 4781TIP3    H235759   2.240   1.309   5.150 -1.0794  1.6690  1.0278
 4782TIP3   OH235760   4.937   1.872  17.051  0.1399  0.1450 -0.2776
 4782TIP3    H135761   4.936   1.954  17.001  0.2019  1.1313  1.2745
 4782TIP3    H235762   4.952   1.899  17.141  0.6656 -1.6337  0.2098
 4783TIP3   OH235763   1.895   5.818   5.814 -0.2437  0.1480  0.0666
 4783TIP3    H135764   1.853   5.753   5.870 -0.6431  1.5504  1.4677
 4783TIP3    H235765   1.978   5.777   5.788 -0.2292 -0.6970  1.3588
 4784TIP3   OH235766   5.719   3.971  11.475 -0.3284 -0.6643 -0.6244
 4784TIP3    H135767   5.694   4.060  11.498 -2.3610 -1.3558  0.1368
 4784TIP3    H235768   5.743   3.975  11.383 -0.6056  0.6394 -0.6513
 4785TIP3   OH235769   6.074   1.787  13.659  0.2602  0.5176  0.0699
 4785TIP3    H135770   6.045   1.874  13.685  1.1937  1.0045 -0.4745
 4785TIP3    H235771   6.162   1.800  13.623 -0.5098 -0.2519 -2.2941
 4786TIP3   OH235772   4.704   2.186   0.343  0.4467 -0.0969  0.0101
 4786TIP3    H135773   4.636   2.243   0.308  1.0126  0.8347  0.4096
 4786TIP3    H235774   4.669   2.157   0.427  0.0766 -0.5222 -0.2781
 4787TIP3   OH235775   1.431   2.760  16.077 -0.4588  0.5251  0.6531
 4787TIP3    H135776   1.420   2.697  16.005 -0.7892 -0.2669  1.3751
 4787TIP3    H235777   1.393   2.841  16.043 -0.8912  0.0815  0.0335
 4788TIP3   OH235778   1.595   5.966  11.869 -0.1042  0.0744  0.6727
 4788TIP3    H135779   1.559   6.025  11.803 -0.1310 -0.9903 -0.3006
 4788TIP3    H235780   1.685   5.994  11.880  0.3466 -0.6332 -0.9288
 4789TIP3   OH235781   5.402   1.283   6.391  0.4284 -0.1887  0.5994
 4789TIP3    H135782   5.343   1.355   6.368  2.8173  1.6314 -0.3515
 4789TIP3    H235783   5.462   1.322   6.454  0.9425 -1.8108  1.1496
 4790TIP3   OH235784   1.425   3.715  15.777  0.3141 -0.3989 -0.4081
 4790TIP3    H135785   1.474   3.700  15.858 -1.7470 -0.7487  0.8319
 4790TIP3    H235786   1.391   3.804  15.786 -0.8580 -0.8348 -0.3405
 4791TIP3   OH235787   5.868   3.410   4.742  0.2759  0.2896  0.5271
 4791TIP3    H135788   5.827   3.450   4.666 -2.1384  1.0327  2.0825
 4791TIP3    H235789   5.844   3.317   4.736  0.1876  0.3249  0.3303
 4792TIP3   OH235790   2.237   1.401  17.201 -0.2525  0.3031  0.2931
 4792TIP3    H135791   2.292   1.422  17.277  0.9074  0.1399 -0.4781
 4792TIP3    H235792   2.298   1.392  17.129 -1.4898  2.2032 -1.0726
 4793TIP3   OH235793   3.134   5.520   2.084  0.4113  0.2335 -0.2220
 4793TIP3    H135794   3.039   5.510   2.084  0.6256 -3.6503 -2.9877
 4793TIP3    H235795   3.165   5.453   2.144  1.4329 -0.9836 -2.0272
 4794TIP3   OH235796   1.582   3.779  12.532 -0.2144 -0.0897  0.2272
 4794TIP3    H135797   1.516   3.792  12.464 -0.7501 -1.3900  0.4762
 4794TIP3    H235798   1.651   3.843  12.512 -1.2364  0.8301 -0.4164
 4795TIP3   OH235799   6.656   2.999  13.713  0.9026 -0.2604 -0.1668
 4795TIP3    H135800   6.747   3.023  13.730  0.1457  1.0053  2.7027
 4795TIP3    H235801   6.612   3.083  13.699 -0.0700 -0.7753 -0.2275
 4796TIP3   OH235802   2.049   3.014  17.161 -0.4651 -0.0666 -0.2959
 4796TIP3    H135803   1.998   2.945  17.119 -1.3563  0.3990 -0.0143
 4796TIP3    H235804   2.036   2.999  17.255 -1.2983  0.9136 -0.2363
 4797TIP3   OH235805   3.259   2.872   3.429 -0.1713  0.0848  0.0431
 4797TIP3    H135806   3.282   2.955   3.470  1.6703  0.3424 -1.4070
 4797TIP3    H235807   3.338   2.819   3.434 -0.8117 -0.9700 -0.5324
 4798TIP3   OH235808   3.097   6.743   4.958 -0.1515  0.1396 -0.4843
 4798TIP3    H135809   3.018   6.691   4.976  0.1318 -0.1200  0.0174
 4798TIP3    H235810   3.069   6.834   4.972 -1.2167  0.3569 -3.3413
 4799TIP3   OH235811   2.547   0.361  16.942 -0.0112 -0.1059 -0.5838
 4799TIP3    H135812   2.497   0.442  16.935 -1.3355 -0.9148 -1.0310
 4799TIP3    H235813   2.535   0.333  17.033  1.8146  0.9930  0.0487
 4800TIP3   OH235814   3.697   4.355   3.854  0.5145  0.5139  0.0003
 4800TIP3    H135815   3.614   4.385   3.816 -0.3011 -1.5652  0.0323
 4800TIP3    H235816   3.683   4.359   3.948  0.5273  0.3516  0.0086
 4801TIP3   OH235817   6.225   3.685   0.835  0.0229  0.2936 -0.3230
 4801TIP3    H135818   6.245   3.649   0.921  1.6964  1.2096 -0.2983
 4801TIP3    H235819   6.181   3.768   0.853 -0.1762  0.1974 -0.3621
 4802TIP3   OH235820   0.211   1.797  16.926 -0.5097  0.1256  0.2405
 4802TIP3    H135821   0.147   1.868  16.926 -1.8497 -1.0373  0.1748
 4802TIP3    H235822   0.281   1.827  16.868 -1.4309  1.0549 -0.4170
 4803TIP3   OH235823   4.756   6.586  15.858  0.0905  0.4395 -0.3979
 4803TIP3    H135824   4.818   6.514  15.844  0.9797  1.2070 -0.4645
 4803TIP3    H235825   4.750   6.593  15.953 -0.0838  0.2071 -0.3904
 4804TIP3   OH235826   0.006   5.709   5.323  0.0406  0.0401 -0.9552
 4804TIP3    H135827   0.049   5.779   5.273  1.6921 -0.9952 -1.0709
 4804TIP3    H235828   0.070   5.685   5.390 -0.8116 -0.8506 -0.4358
 4805TIP3   OH235829   2.963   2.842   3.372  0.1868 -0.1237 -0.0631
 4805TIP3    H135830   2.946   2.871   3.283 -1.8274  1.5228  0.7678
 4805TIP3    H235831   3.041   2.889   3.399 -0.5692  1.2573 -0.2055
 4806TIP3   OH235832   2.820   5.490   1.807 -0.0427  0.2439 -0.1517
 4806TIP3    H135833   2.860   5.564   1.761 -0.8161  1.3528  0.8932
 4806TIP3    H235834   2.743   5.468   1.755  0.7240 -0.4845 -0.9984
 4807TIP3   OH235835   3.190   5.596   5.641  0.2112 -0.6761  0.0327
 4807TIP3    H135836   3.095   5.592   5.632  0.3697 -1.5368 -1.8300
 4807TIP3    H235837   3.220   5.507   5.620  1.4094 -0.5963  1.2319
 4808TIP3   OH235838   4.224   4.275  17.138  0.2702  0.3588 -0.0821
 4808TIP3    H135839   4.175   4.230  17.207 -0.2934  0.1724 -0.5952
 4808TIP3    H235840   4.234   4.365  17.171  2.9987 -0.5189  1.7797
 4809TIP3   OH235841   4.565   0.923   3.978  0.1634  0.2992 -0.2151
 4809TIP3    H135842   4.591   0.949   4.067  1.5929  0.8325 -0.7645
 4809TIP3    H235843   4.562   0.827   3.982  1.8480  0.2154  0.0175
 4810TIP3   OH235844   5.391   1.121   3.975  0.6557 -0.0852  0.0432
 4810TIP3    H135845   5.440   1.178   3.915  0.0495 -0.8368 -1.1949
 4810TIP3    H235846   5.300   1.148   3.964  0.5534 -0.1027  0.7910
 4811TIP3   OH235847   3.559   1.795  12.100  0.8199  0.4233  0.1536
 4811TIP3    H135848   3.627   1.729  12.089  0.2550 -0.1523  0.0340
 4811TIP3    H235849   3.607   1.877  12.118  1.6480  0.5197 -2.1610
 4812TIP3   OH235850   2.703   6.134   5.359  0.0162  0.5314  0.1924
 4812TIP3    H135851   2.765   6.204   5.337 -0.7621  0.9513 -0.7500
 4812TIP3    H235852   2.755   6.071   5.409  1.9490 -0.4221 -2.7255
 4813TIP3   OH235853   6.472   2.485   4.457 -0.1448 -0.3866 -0.1771
 4813TIP3    H135854   6.406   2.547   4.424 -0.9158 -1.0143  0.1485
 4813TIP3    H235855   6.505   2.526   4.537 -0.7877 -0.4660  0.1395
 4814TIP3   OH235856   1.388   1.780   2.354 -0.7199 -0.0312  0.8301
 4814TIP3    H135857   1.306   1.733   2.372 -1.5419  1.5105  1.3482
 4814TIP3    H235858   1.390   1.851   2.420 -0.9824  2.3901 -1.5918
 4815TIP3   OH235859   2.000   5.870  11.192 -0.0327  0.5063  0.1451
 4815TIP3    H135860   1.933   5.917  11.142 -0.6834 -0.6258 -0.1042
 4815TIP3    H235861   2.049   5.821  11.125 -0.4057 -0.4129  0.5338
 4816TIP3   OH235862   2.556   4.169   4.856 -0.0294  0.6182 -0.7177
 4816TIP3    H135863   2.617   4.242   4.838  0.1797  0.6716  0.1166
 4816TIP3    H235864   2.574   4.146   4.948 -0.6952  0.0793 -0.7151
 4817TIP3   OH235865   5.259   1.567   4.293  0.6629  0.2642  0.3563
 4817TIP3    H135866   5.243   1.519   4.375  2.1572 -1.1709 -0.1345
 4817TIP3    H235867   5.320   1.637   4.319 -0.6615  1.2607  0.8707
 4818TIP3   OH235868   1.198   2.720  13.911  0.0453  0.1943  0.5997
 4818TIP3    H135869   1.286   2.683  13.924  0.7015  1.4202 -0.1774
 4818TIP3    H235870   1.141   2.643  13.903  1.0698 -0.6238  0.9682
 4819TIP3   OH235871   0.387   5.082   0.440  0.1142 -0.0312  0.4889
 4819TIP3    H135872   0.346   4.997   0.423 -2.4032  1.0568  0.6550
 4819TIP3    H235873   0.370   5.098   0.533 -0.3964  1.0863  0.2240
 4820TIP3   OH235874   4.965   1.501   4.284 -0.6691  0.2036 -0.3906
 4820TIP3    H135875   4.940   1.561   4.355  0.9400  2.4022 -1.5705
 4820TIP3    H235876   5.058   1.483   4.300 -0.5277 -0.0183 -1.4107
 4821TIP3   OH235877   2.887   6.379   4.394 -0.4205  0.5807  0.1285
 4821TIP3    H135878   2.867   6.336   4.312  0.6362 -1.6513  0.9611
 4821TIP3    H235879   2.802   6.398   4.433 -0.9550 -1.2583 -0.0644
 4822TIP3   OH235880   1.345   1.744   3.730  0.3007 -0.5960  0.3622
 4822TIP3    H135881   1.290   1.764   3.806  0.4518 -0.5656  0.4651
 4822TIP3    H235882   1.338   1.649   3.719 -0.0255 -0.5503  0.1782
 4823TIP3   OH235883   6.286   4.194   4.655  0.0491 -0.6025  0.2182
 4823TIP3    H135884   6.373   4.229   4.634 -1.2911  1.8889 -1.8553
 4823TIP3    H235885   6.295   4.100   4.645  2.3493 -0.3676 -0.5944
 4824TIP3   OH235886   5.842   2.977  11.851  0.5671 -0.1690  0.2309
 4824TIP3    H135887   5.751   3.007  11.856  0.3021 -0.6145 -1.2991
 4824TIP3    H235888   5.893   3.058  11.847  0.2094  0.0814  0.6319
 4825TIP3   OH235889   3.985   4.608  11.739  0.5430  0.2948 -0.4291
 4825TIP3    H135890   3.923   4.648  11.678 -1.9436 -2.5979 -0.0750
 4825TIP3    H235891   3.946   4.623  11.825  0.3281 -1.4855 -0.1841
 4826TIP3   OH235892   4.502   5.170   0.214 -0.0725 -0.1336  0.1840
 4826TIP3    H135893   4.433   5.131   0.160  0.1750 -0.8741  0.3935
 4826TIP3    H235894   4.477   5.262   0.222  0.1850  0.1249 -1.6604
 4827TIP3   OH235895   5.496   1.960   5.244 -0.2544  0.1533 -0.3132
 4827TIP3    H135896   5.402   1.960   5.230 -0.2285  1.5621 -0.5871
 4827TIP3    H235897   5.521   2.052   5.244  1.2862 -0.2081 -1.4247
 4828TIP3   OH235898   6.507   1.269   0.778 -0.4370 -0.7769 -0.0164
 4828TIP3    H135899   6.589   1.236   0.815 -0.4830  0.3189  1.1456
 4828TIP3    H235900   6.517   1.258   0.684  1.5179  0.2673  0.0101
 4829TIP3   OH235901   2.690   5.257   3.982  0.0599  0.2691 -0.3967
 4829TIP3    H135902   2.727   5.206   3.910  2.0826 -0.0926  0.8168
 4829TIP3    H235903   2.693   5.198   4.058 -1.2750  0.9013  0.1936
 4830TIP3   OH235904   4.527   5.307  11.878  0.2625  0.1161  0.0460
 4830TIP3    H135905   4.504   5.240  11.814 -0.6535  0.0294  0.4437
 4830TIP3    H235906   4.618   5.328  11.860 -0.6280  1.9842 -3.0478
 4831TIP3   OH235907   1.768   2.880   2.948 -0.5539 -0.0266 -0.5070
 4831TIP3    H135908   1.843   2.912   2.898 -0.8157 -0.6039 -1.2860
 4831TIP3    H235909   1.701   2.861   2.882 -0.3943 -2.2025 -0.1156
 4832TIP3   OH235910   2.512   3.649   3.154  0.1923  0.4033 -0.2923
 4832TIP3    H135911   2.591   3.597   3.167 -0.5336 -0.5006  0.6115
 4832TIP3    H235912   2.490   3.682   3.241 -0.9028 -0.0793 -0.3707
 4833TIP3   OH235913   4.171   2.136  13.991 -0.1666 -0.7237  0.6559
 4833TIP3    H135914   4.239   2.069  13.984 -1.7680 -2.3937  0.0261
 4833TIP3    H235915   4.217   2.219  13.984  1.8995 -1.7473  1.3252
 4834TIP3   OH235916   0.375   2.435  14.305 -0.1344 -0.5819 -0.5118
 4834TIP3    H135917   0.322   2.410  14.229 -1.5991  2.2037 -0.5422
 4834TIP3    H235918   0.461   2.455  14.269 -0.2006 -1.3187 -1.0960
 4835TIP3   OH235919   1.396   4.734   1.482 -0.1127 -0.3233 -0.0943
 4835TIP3    H135920   1.448   4.805   1.519  1.7752 -0.4545 -2.3039
 4835TIP3    H235921   1.337   4.777   1.420  0.3607 -0.5843 -0.7297
 4836TIP3   OH235922   1.578   3.135  12.413 -0.1763 -0.2491 -0.5229
 4836TIP3    H135923   1.621   3.194  12.475 -1.1993  1.2129 -1.1498
 4836TIP3    H235924   1.642   3.066  12.397  0.6407  0.0917  1.0803
 4837TIP3   OH235925   2.264   6.418   5.643  0.2201 -0.7770  0.1905
 4837TIP3    H135926   2.309   6.357   5.585 -0.4946 -1.2424  0.1218
 4837TIP3    H235927   2.253   6.369   5.725  0.5341 -0.3921  0.4659
 4838TIP3   OH235928   6.679   4.951   4.390  0.6694  0.2243  0.4651
 4838TIP3    H135929   6.687   4.981   4.481 -0.3482  1.4652  0.1833
 4838TIP3    H235930   6.716   5.022   4.338  0.1965  0.0490 -0.1328
 4839TIP3   OH235931   4.495   0.482   3.713 -0.2596 -0.4515  0.0230
 4839TIP3    H135932   4.506   0.566   3.668  0.6243 -0.2783  0.5351
 4839TIP3    H235933   4.571   0.476   3.771 -1.0593 -0.9304  1.0638
 4840TIP3   OH235934   1.360   6.292  14.095 -0.3103 -0.1162 -0.9505
 4840TIP3    H135935   1.336   6.333  14.012 -0.9152  0.4439 -0.5096
 4840TIP3    H235936   1.437   6.341  14.125  0.2845 -0.7216 -1.4769
 4841TIP3   OH235937   3.018   3.414  13.814  0.2708 -0.5209 -0.2950
 4841TIP3    H135938   3.071   3.379  13.886  1.5410 -0.7426 -1.3045
 4841TIP3    H235939   3.079   3.469  13.764 -0.9439  0.7670 -0.4178
 4842TIP3   OH235940   3.263   6.510   2.074 -0.0909  0.0062 -0.2417
 4842TIP3    H135941   3.343   6.563   2.070 -0.3042  0.3606  0.2479
 4842TIP3    H235942   3.267   6.457   1.994 -0.7254  1.9742 -1.6887
 4843TIP3   OH235943   1.981   3.664   5.045 -0.0350  0.2825 -0.5200
 4843TIP3    H135944   2.031   3.676   4.964  1.2770 -1.5115 -0.0506
 4843TIP3    H235945   2.037   3.701   5.113 -0.4294  0.3823 -0.2467
 4844TIP3   OH235946   6.141   3.590  15.663  0.7500 -0.8442 -0.0425
 4844TIP3    H135947   6.222   3.641  15.661  0.0277  0.4247  1.0924
 4844TIP3    H235948   6.100   3.609  15.578  1.7899 -1.8239 -0.7986
 4845TIP3   OH235949   5.705   4.014   1.910 -0.3977 -0.5313  0.6325
 4845TIP3    H135950   5.630   4.069   1.887  0.8203  1.7032  1.6822
 4845TIP3    H235951   5.773   4.038   1.847  1.2956  1.9068  3.1570
 4846TIP3   OH235952   0.262   5.709  11.837 -0.2988  0.4310 -0.2100
 4846TIP3    H135953   0.166   5.709  11.828 -0.7446 -0.0008  3.1882
 4846TIP3    H235954   0.289   5.793  11.800 -1.8455  0.2123 -2.0060
 4847TIP3   OH235955   5.828   6.395   3.589  0.7363 -0.0940 -0.1623
 4847TIP3    H135956   5.920   6.422   3.585  0.0228  2.4288 -3.0040
 4847TIP3    H235957   5.786   6.460   3.644  0.2852  0.1179 -0.7458
 4848TIP3   OH235958   1.995   2.288  12.868 -0.4599  0.1670  0.2559
 4848TIP3    H135959   1.956   2.260  12.784  0.1636 -0.2090  0.0900
 4848TIP3    H235960   1.990   2.211  12.923 -1.3983  0.5767  0.7749
 4849TIP3   OH235961   3.309   5.770   2.536  0.3162 -0.4275  0.2353
 4849TIP3    H135962   3.377   5.837   2.526 -1.7411  1.6150 -1.2200
 4849TIP3    H235963   3.246   5.790   2.466 -0.4736 -3.8908 -0.2178
 4850TIP3   OH235964   0.140   0.686  14.203  0.4774  0.3112 -0.6206
 4850TIP3    H135965   0.062   0.641  14.235  0.3009  1.1741  0.2085
 4850TIP3    H235966   0.180   0.624  14.143 -0.2462 -0.5857 -0.2080
 4851TIP3   OH235967   6.296   6.563  16.697  0.1384  0.1307  0.4711
 4851TIP3    H135968   6.285   6.657  16.680  2.5705  0.1091 -1.9535
 4851TIP3    H235969   6.354   6.560  16.773  2.6087  0.8240 -1.2242
 4852TIP3   OH235970   5.265   0.612   0.202  0.1092  0.0518  0.5125
 4852TIP3    H135971   5.174   0.643   0.197  0.0927 -0.0457  0.1245
 4852TIP3    H235972   5.296   0.642   0.287  0.0407  0.9982  0.2158
 4853TIP3   OH235973   1.463   0.252   4.305  0.0633  0.1644 -0.0820
 4853TIP3    H135974   1.414   0.266   4.386  2.0380 -0.9686  1.3940
 4853TIP3    H235975   1.480   0.157   4.303  1.0424  0.3395 -1.2274
 4854TIP3   OH235976   2.064   0.165   4.848  0.1877 -0.0884 -0.0028
 4854TIP3    H135977   2.069   0.070   4.834  2.4824 -0.0233  0.0262
 4854TIP3    H235978   1.988   0.177   4.905 -1.4759 -1.6608 -1.7309
 4855TIP3   OH235979   6.260   1.299   3.778  0.3977 -0.4336  0.2006
 4855TIP3    H135980   6.331   1.298   3.714 -0.9507  0.9933 -1.4061
 4855TIP3    H235981   6.275   1.378   3.830  0.3389 -0.4696  0.2726
 4856TIP3   OH235982   1.577   2.417  11.607  0.1388  0.4323 -0.0237
 4856TIP3    H135983   1.556   2.376  11.523  0.1652 -0.1495  0.2495
 4856TIP3    H235984   1.493   2.446  11.642  0.0934  0.3961 -0.1032
 4857TIP3   OH235985   2.513   0.298  14.994 -0.1278  0.4035  0.4461
 4857TIP3    H135986   2.484   0.225  15.048  1.1625 -1.2154 -0.9175
 4857TIP3    H235987   2.603   0.315  15.023  2.0678 -2.9488 -3.2602
 4858TIP3   OH235988   6.271   0.612   0.506  0.4120  0.0140  0.4033
 4858TIP3    H135989   6.184   0.579   0.483  0.3367  0.1088  0.5549
 4858TIP3    H235990   6.267   0.630   0.600  0.3919  0.6290  0.2879
 4859TIP3   OH235991   0.632   1.748  16.298  0.3758  0.3937 -0.2092
 4859TIP3    H135992   0.549   1.717  16.334  0.4276  1.4178  0.8651
 4859TIP3    H235993   0.673   1.670  16.260 -0.8093 -0.2315 -0.2584
 4860TIP3   OH235994   0.729   1.859  16.717  0.3792  0.1424  0.0374
 4860TIP3    H135995   0.672   1.795  16.760  0.8372 -0.4895 -0.2678
 4860TIP3    H235996   0.782   1.806  16.657  2.1710  0.5108  1.2163
 4861TIP3   OH235997   5.314   4.013  17.074 -0.3634 -0.1620  0.2521
 4861TIP3    H135998   5.312   4.086  17.135 -1.0684 -1.5587  1.9822
 4861TIP3    H235999   5.344   4.052  16.991 -1.2248  2.1623  0.9471
 4862TIP3   OH236000   6.569   1.320   1.912 -0.6548 -0.5881  0.3251
 4862TIP3    H136001   6.635   1.383   1.939  0.4730 -1.6970  0.2186
 4862TIP3    H236002   6.486   1.368   1.918 -0.1980  0.0019  3.1943
 4863TIP3   OH236003   0.783   6.774   5.564 -0.2873 -0.3262  0.1402
 4863TIP3    H136004   0.752   6.865   5.556 -0.1321 -0.2591  0.2868
 4863TIP3    H236005   0.735   6.726   5.497  0.9350  0.1980 -1.1499
 4864TIP3   OH236006   5.031   6.027  12.301 -0.1968  0.3936 -0.2406
 4864TIP3    H136007   4.984   5.948  12.275  0.2927 -1.0709  2.8638
 4864TIP3    H236008   5.123   6.006  12.285  0.0289 -0.1707  1.5556
 4865TIP3   OH236009   5.133   4.500  15.843 -0.1777 -0.1345  0.3951
 4865TIP3    H136010   5.207   4.462  15.795 -0.4389  0.0180 -0.1412
 4865TIP3    H236011   5.173   4.542  15.920  0.2462 -0.4051  0.3270
 4866TIP3   OH236012   1.643   2.886   5.548  0.4509 -0.4159 -0.1303
 4866TIP3    H136013   1.671   2.956   5.489  0.1637 -0.1896  0.0031
 4866TIP3    H236014   1.690   2.902   5.629  0.7878 -0.6834 -0.2700
 4867TIP3   OH236015   4.348   5.050   2.675 -0.3035 -0.2656  0.1995
 4867TIP3    H136016   4.268   5.016   2.715 -0.6777  0.4183  0.0516
 4867TIP3    H236017   4.349   5.143   2.698 -0.6977  0.2276 -1.6182
 4868TIP3   OH236018   5.076   3.099  12.119 -0.7939 -0.1545 -0.0781
 4868TIP3    H136019   5.017   3.126  12.189  0.5048 -1.3269  1.5184
 4868TIP3    H236020   5.158   3.144  12.137 -0.3333 -0.7394 -0.6463
 4869TIP3   OH236021   2.356   4.741   0.570  0.1937  0.2175 -0.6046
 4869TIP3    H136022   2.307   4.701   0.642  0.1799  0.1931 -0.6275
 4869TIP3    H236023   2.289   4.786   0.518  0.2802  0.7416 -0.2682
 4870TIP3   OH236024   2.217   3.654   2.715 -0.1765  0.0893  0.3267
 4870TIP3    H136025   2.134   3.610   2.732  1.1493 -3.2086 -0.9604
 4870TIP3    H236026   2.232   3.708   2.793 -2.5680 -0.7074  1.4412
 4871TIP3   OH236027   6.344   0.887   5.415  0.5901 -0.0978  0.1125
 4871TIP3    H136028   6.348   0.793   5.397 -0.8154 -0.2188  0.3526
 4871TIP3    H236029   6.435   0.912   5.429  1.0919 -1.2201 -0.9486
 4872TIP3   OH236030   2.949   3.773   2.652 -0.5456  0.2999 -0.0319
 4872TIP3    H136031   2.874   3.714   2.664 -1.0528  0.4267 -2.1792
 4872TIP3    H236032   2.910   3.860   2.650 -0.4376  0.3443 -1.5078
 4873TIP3   OH236033   6.314   6.713  11.715  0.3583 -0.9748  0.0640
 4873TIP3    H136034   6.228   6.741  11.748  0.1613 -1.5992  0.1031
 4873TIP3    H236035   6.377   6.755  11.773  0.1741  0.9653 -1.0439
 4874TIP3   OH236036   0.634   2.275  16.078 -0.6514  0.4935 -0.0252
 4874TIP3    H136037   0.670   2.293  15.991 -0.8341  1.4286  0.0876
 4874TIP3    H236038   0.703   2.224  16.121 -0.4227  0.3004 -0.6049
 4875TIP3   OH236039   1.656   1.523   5.618 -0.8161  0.4447 -0.1971
 4875TIP3    H136040   1.737   1.489   5.655 -1.5543  1.5147  2.6638
 4875TIP3    H236041   1.672   1.526   5.524  2.7621  1.3373  0.2829
 4876TIP3   OH236042   4.565   0.311  15.201  0.0402  0.2074  0.4039
 4876TIP3    H136043   4.471   0.313  15.221 -0.1678 -2.2943 -0.0323
 4876TIP3    H236044   4.607   0.313  15.287 -0.4719 -0.2246  0.6732
 4877TIP3   OH236045   4.632   2.769  12.173 -0.1022 -0.1018  0.0067
 4877TIP3    H136046   4.557   2.715  12.148 -0.2877 -0.2761  0.9124
 4877TIP3    H236047   4.617   2.790  12.265  2.0546 -2.0322  0.8984
 4878TIP3   OH236048   5.289   4.436   5.512  0.4581  0.1263 -0.5025
 4878TIP3    H136049   5.303   4.398   5.425 -1.9003  0.3449 -1.0350
 4878TIP3    H236050   5.315   4.527   5.503  0.1540  0.1667 -1.0116
 4879TIP3   OH236051   2.425   2.782  16.459  0.2809 -0.0676  0.3111
 4879TIP3    H136052   2.501   2.824  16.418  1.1447 -1.4193  0.4761
 4879TIP3    H236053   2.452   2.764  16.549  0.0933 -1.3614  0.1228
 4880TIP3   OH236054   3.130   1.745   6.442  0.4488 -0.2252 -0.1668
 4880TIP3    H136055   3.089   1.691   6.509 -1.3791  1.0874 -0.1354
 4880TIP3    H236056   3.168   1.819   6.489 -2.3762  1.6492 -0.5498
 4881TIP3   OH236057   6.159   3.426  13.002  0.1282 -0.3095 -0.1603
 4881TIP3    H136058   6.108   3.346  12.994 -0.7937 -0.1280  2.7414
 4881TIP3    H236059   6.231   3.403  13.061 -0.3086  1.0069  0.9436
 4882TIP3   OH236060   6.326   5.937  13.486 -0.6156  0.0137  0.0109
 4882TIP3    H136061   6.288   5.992  13.554  0.1868  0.4022  0.1616
 4882TIP3    H236062   6.285   5.851  13.498 -1.4122  0.4094  0.1722
 4883TIP3   OH236063   6.074   2.920   0.747  0.0553  0.6642 -0.1424
 4883TIP3    H136064   6.008   2.899   0.813  0.0073  0.9088 -0.1139
 4883TIP3    H236065   6.156   2.920   0.795 -0.2549  3.7025  0.5457
 4884TIP3   OH236066   4.357   0.003   4.221  0.2750 -0.3958 -0.2028
 4884TIP3    H136067   4.280  -0.010   4.165  0.0505  0.1528 -0.0238
 4884TIP3    H236068   4.431  -0.028   4.168 -0.1819 -1.9202  0.0083
 4885TIP3   OH236069   3.655   2.643  17.048 -0.5279  0.4440 -0.0658
 4885TIP3    H136070   3.698   2.700  17.112 -2.7516  0.7452  1.2773
 4885TIP3    H236071   3.653   2.557  17.090 -1.8506  0.6087  0.2695
 4886TIP3   OH236072   3.042   0.071   0.640  0.1750  0.6438 -0.2113
 4886TIP3    H136073   2.989  -0.006   0.661  0.3069  0.4980 -0.4088
 4886TIP3    H236074   3.022   0.134   0.709  0.3196  0.3075  0.1399
 4887TIP3   OH236075   2.982   5.726  13.743  1.1630 -0.1400 -0.0173
 4887TIP3    H136076   2.943   5.739  13.829  1.2763  0.5884 -0.0700
 4887TIP3    H236077   3.030   5.807  13.726  1.3977 -0.4030 -0.6280
 4888TIP3   OH236078   5.106   5.808  15.180 -0.4277 -0.0871  0.3713
 4888TIP3    H136079   5.164   5.782  15.252  0.1638  1.3900  0.4553
 4888TIP3    H236080   5.026   5.838  15.222 -0.2033  0.4746  0.3990
 4889TIP3   OH236081   0.798   3.906   2.766 -0.4573  0.4559 -0.0974
 4889TIP3    H136082   0.789   3.886   2.860  4.0861  1.9168  0.8971
 4889TIP3    H236083   0.853   3.984   2.763 -0.9010  0.8255 -4.0496
 4890TIP3   OH236084   4.801   0.851  15.053 -0.3820 -0.3818  0.2893
 4890TIP3    H136085   4.737   0.806  15.110 -1.5996 -1.8833 -2.0900
 4890TIP3    H236086   4.885   0.812  15.077 -0.5795  0.2327  2.1598
 4891TIP3   OH236087   1.611   2.280  16.608 -0.2960  0.0736 -0.0861
 4891TIP3    H136088   1.517   2.296  16.603 -0.3822  0.4562  2.0550
 4891TIP3    H236089   1.648   2.334  16.538 -1.6378  0.0118 -0.8733
 4892TIP3   OH236090   2.276   0.176  11.581 -0.6260  0.5124  0.5267
 4892TIP3    H136091   2.301   0.084  11.569  0.2379  0.9650 -1.6104
 4892TIP3    H236092   2.285   0.191  11.675  2.0347 -0.8443  0.5837
 4893TIP3   OH236093   0.611   0.139  16.747  0.0509  0.1766 -0.3056
 4893TIP3    H136094   0.635   0.202  16.680 -0.5527 -0.3887 -1.0776
 4893TIP3    H236095   0.579   0.192  16.820 -1.1361  0.7640 -1.2170
 4894TIP3   OH236096   0.712   1.857   5.654 -0.3412 -0.0758 -0.5710
 4894TIP3    H136097   0.687   1.821   5.739 -0.5616 -1.0776 -1.0524
 4894TIP3    H236098   0.640   1.833   5.595 -0.1026  0.4499 -1.0846
 4895TIP3   OH236099   4.365   4.925   1.291  0.3894 -0.1975  0.2118
 4895TIP3    H136100   4.396   5.015   1.303  1.7642 -0.5678 -0.4395
 4895TIP3    H236101   4.383   4.883   1.375 -1.0528  0.3189  0.8263
 4896TIP3   OH236102   6.528   2.250   0.206 -0.7995  0.1328  0.2040
 4896TIP3    H136103   6.607   2.205   0.175  0.0615  0.7548  1.4216
 4896TIP3    H236104   6.474   2.261   0.127  1.1520  1.3481 -1.0620
 4897TIP3   OH236105   4.960   5.173   1.903  0.0093  0.1314 -0.2559
 4897TIP3    H136106   4.870   5.143   1.921 -0.2826  0.7319 -0.6947
 4897TIP3    H236107   5.014   5.095   1.919 -0.2356  0.4469  2.7803
 4898TIP3   OH236108   4.952   4.482   0.696  0.0157 -0.3550 -0.0028
 4898TIP3    H136109   5.045   4.498   0.714  0.2396  0.4554 -1.6625
 4898TIP3    H236110   4.930   4.406   0.750  1.4365 -0.1107  0.9895
 4899TIP3   OH236111   2.915   5.476  16.142  0.1138 -0.6964  0.0479
 4899TIP3    H136112   2.840   5.430  16.106 -0.1818  0.1650 -0.4760
 4899TIP3    H236113   2.877   5.539  16.204  0.0628  1.8580 -2.3948
 4900TIP3   OH236114   4.788   0.861  14.428  0.4421  0.1483 -0.0421
 4900TIP3    H136115   4.846   0.789  14.403  0.4677  0.2188 -0.1875
 4900TIP3    H236116   4.700   0.827  14.412  0.4696  0.3445 -0.6499
 4901TIP3   OH236117   6.082   0.400  11.424 -0.0286 -0.1059 -0.2484
 4901TIP3    H136118   6.031   0.428  11.348  0.1396  0.0403 -0.3068
 4901TIP3    H236119   6.173   0.418  11.400  0.0938 -0.8367 -0.3480
 4902TIP3   OH236120   5.350   1.689   1.660  0.0084 -0.1553  0.1307
 4902TIP3    H136121   5.389   1.653   1.740  0.2229  1.5352  0.8294
 4902TIP3    H236122   5.380   1.631   1.590 -0.3092 -1.7722  1.2839
 4903TIP3   OH236123   3.505   2.602   2.300  0.0147 -0.2162  0.7227
 4903TIP3    H136124   3.421   2.629   2.337  0.4359  2.1785  0.1307
 4903TIP3    H236125   3.567   2.610   2.372  0.1894  0.7805  0.4773
 4904TIP3   OH236126   5.092   3.246   3.919  0.0974  0.1450 -0.1842
 4904TIP3    H136127   5.039   3.312   3.874  0.2224  1.3100  1.3463
 4904TIP3    H236128   5.031   3.173   3.934 -0.0815 -0.0602 -1.7269
 4905TIP3   OH236129   3.418   3.495   5.341  0.4746 -0.0690  0.2428
 4905TIP3    H136130   3.351   3.479   5.275 -0.6606  2.0307  0.8045
 4905TIP3    H236131   3.430   3.411   5.384 -1.6217 -0.5628 -0.0380
 4906TIP3   OH236132   6.465   3.821  14.957  0.9558  0.1660  0.0282
 4906TIP3    H136133   6.493   3.832  15.048  2.2841  2.6942 -0.5754
 4906TIP3    H236134   6.413   3.899  14.939 -2.4204 -2.0137 -0.4107
 4907TIP3   OH236135   4.600   2.055  11.579  0.4459  0.3622 -0.0943
 4907TIP3    H136136   4.631   1.965  11.575  0.5200  0.4168 -0.9864
 4907TIP3    H236137   4.647   2.093  11.654  0.8256 -0.1874 -0.0467
 4908TIP3   OH236138   3.491   1.694  15.732  0.0882  0.1003  0.1336
 4908TIP3    H136139   3.552   1.745  15.679  0.2137  0.0994  0.2768
 4908TIP3    H236140   3.409   1.743  15.729  0.3378  0.5606  0.6569
 4909TIP3   OH236141   0.882   6.194  12.931  0.0350  0.1853  0.0748
 4909TIP3    H136142   0.892   6.107  12.970 -3.5172 -0.9226 -1.1040
 4909TIP3    H236143   0.907   6.255  13.000  0.5716 -1.7414  1.6650
 4910TIP3   OH236144   0.682   3.656   3.386 -0.2604  0.1887  0.0135
 4910TIP3    H136145   0.665   3.566   3.412 -2.6497  0.3253 -0.8153
 4910TIP3    H236146   0.771   3.673   3.415 -0.4910 -1.7273  2.1204
 4911TIP3   OH236147   6.390   6.294  14.196  0.7907 -0.1419  0.4167
 4911TIP3    H136148   6.427   6.266  14.112 -1.3015 -3.3643  0.4073
 4911TIP3    H236149   6.302   6.325  14.174 -0.8129 -3.4887  1.5352
 4912TIP3   OH236150   1.602   2.797   2.168 -0.6368 -0.0379  0.0430
 4912TIP3    H136151   1.540   2.817   2.097 -1.9092  0.3124  1.2066
 4912TIP3    H236152   1.637   2.882   2.193  0.1136 -0.2041 -0.4013
 4913TIP3   OH236153   3.063   1.935   1.599  0.7574  0.4829  0.8233
 4913TIP3    H136154   3.090   1.850   1.564 -0.6967 -0.2202  1.3276
 4913TIP3    H236155   3.016   1.913   1.680  0.5641  1.7883  1.0814
 4914TIP3   OH236156   0.881   0.076  15.855  0.1097 -0.1406  0.3854
 4914TIP3    H136157   0.957   0.047  15.805 -0.2324  1.9089 -1.4403
 4914TIP3    H236158   0.886   0.171  15.853 -1.0741  0.0301  2.5472
 4915TIP3   OH236159   1.340   3.285  13.306  0.3202  0.2544 -0.0229
 4915TIP3    H136160   1.263   3.323  13.349  0.2034  0.5619 -0.4982
 4915TIP3    H236161   1.354   3.340  13.229  1.5451  0.7723  0.5212
 4916TIP3   OH236162   3.206   0.373   1.585  0.6222 -0.0739 -0.0731
 4916TIP3    H136163   3.193   0.291   1.633  0.5537 -0.1082 -0.1505
 4916TIP3    H236164   3.120   0.394   1.550  0.1695  1.1016  1.6403
 4917TIP3   OH236165   2.378   3.044   5.222  0.6965  0.2531  0.1021
 4917TIP3    H136166   2.401   2.957   5.191 -0.4096 -0.2376  0.6268
 4917TIP3    H236167   2.450   3.068   5.281  0.6249 -0.6296  0.5666
 4918TIP3   OH236168   0.405   6.697  13.485 -0.2025  0.4903 -0.3563
 4918TIP3    H136169   0.395   6.687  13.390  1.0827 -0.4282 -0.4150
 4918TIP3    H236170   0.443   6.784  13.496  0.9582  0.0535 -0.7974
 4919TIP3   OH236171   4.455   4.724   2.951  0.5812 -0.2790  0.1843
 4919TIP3    H136172   4.377   4.758   2.907  0.5156  1.4933  1.5251
 4919TIP3    H236173   4.520   4.716   2.882 -0.2447 -0.0356 -0.6526
 4920TIP3   OH236174   4.802   1.209  11.854 -0.1457  0.0621  0.3575
 4920TIP3    H136175   4.728   1.201  11.794 -0.2270  0.8416  0.3419
 4920TIP3    H236176   4.837   1.296  11.837  1.5153 -0.7307 -0.4753
 4921TIP3   OH236177   0.348   3.094  15.076  0.2214  0.0037  0.1380
 4921TIP3    H136178   0.282   3.161  15.057 -1.0017 -1.0784  0.4737
 4921TIP3    H236179   0.351   3.091  15.172  2.1926  1.3801  0.1890
 4922TIP3   OH236180   2.331   4.794   0.250  0.5655  0.2357  0.0625
 4922TIP3    H136181   2.252   4.802   0.305 -0.1988  1.9909 -1.2169
 4922TIP3    H236182   2.399   4.840   0.299  0.8781 -1.3519  1.2098
 4923TIP3   OH236183   4.430   0.110  11.591  0.2787 -0.2570  0.2871
 4923TIP3    H136184   4.430   0.199  11.627 -1.0147  0.3351 -1.0533
 4923TIP3    H236185   4.342   0.099  11.554  0.9532 -1.4569 -1.0577
 4924TIP3   OH236186   5.125   6.444   2.902 -0.6589 -0.3710 -0.0385
 4924TIP3    H136187   5.059   6.378   2.882  0.1557 -0.7681 -1.4815
 4924TIP3    H236188   5.190   6.399   2.955 -0.8897 -0.2988  0.3148
 4925TIP3   OH236189   6.153   6.547  14.987 -0.1752  0.1535 -0.1169
 4925TIP3    H136190   6.082   6.484  14.980 -0.3060  0.1992  0.6608
 4925TIP3    H236191   6.228   6.495  15.018  0.0813  0.1419 -0.7420
 4926TIP3   OH236192   2.000   5.964  10.729 -0.4041 -0.4144  0.2482
 4926TIP3    H136193   2.068   5.968  10.797  2.3365  0.3134 -2.3217
 4926TIP3    H236194   2.004   5.875  10.695 -0.7653 -0.3750  0.0925
 4927TIP3   OH236195   4.747   5.328   2.730 -0.5256 -0.0081 -0.0848
 4927TIP3    H136196   4.687   5.401   2.718  0.7906  0.9431 -1.0894
 4927TIP3    H236197   4.803   5.355   2.803  0.7859  0.5950 -1.2711
 4928TIP3   OH236198   4.215   5.592   3.455 -0.2754  0.6420  0.0778
 4928TIP3    H136199   4.175   5.509   3.430  1.2286  0.1118 -0.6326
 4928TIP3    H236200   4.229   5.638   3.372 -0.3016  1.2388  0.3967
 4929TIP3   OH236201   2.100   0.767   2.769  0.8552 -0.0033 -0.2665
 4929TIP3    H136202   2.041   0.692   2.778 -0.6691  1.3252  1.4120
 4929TIP3    H236203   2.109   0.802   2.857  2.7093  0.9644 -0.7824
 4930TIP3   OH236204   6.333   2.061   4.954 -0.1831 -1.2251  0.2299
 4930TIP3    H136205   6.303   2.119   5.024  2.2133  1.1096 -0.5294
 4930TIP3    H236206   6.253   2.039   4.905 -1.2639  0.9943  0.8745
 4931TIP3   OH236207   0.689   6.691   5.808 -0.2109  0.1620  0.3240
 4931TIP3    H136208   0.715   6.768   5.859 -1.0660 -0.1833  1.3087
 4931TIP3    H236209   0.733   6.703   5.724  2.0067  0.3004  1.4122
 4932TIP3   OH236210   4.375   6.250   4.264  0.4200 -0.5548  0.3022
 4932TIP3    H136211   4.414   6.304   4.194 -0.7781  0.1157  0.1298
 4932TIP3    H236212   4.449   6.229   4.321  1.0955  0.4476 -0.1622
 4933TIP3   OH236213   2.160   0.489   0.655 -0.3036 -0.6112  0.5149
 4933TIP3    H136214   2.214   0.428   0.705 -2.4799 -2.1099  1.2022
 4933TIP3    H236215   2.127   0.437   0.582 -0.5932  0.3228 -0.0253
 4934TIP3   OH236216   5.840   0.439   2.918 -0.1376  0.1380  0.4994
 4934TIP3    H136217   5.780   0.366   2.927 -0.5759  0.4641  0.2710
 4934TIP3    H236218   5.833   0.465   2.826  0.2036  0.3052  0.5175
 4935TIP3   OH236219   5.791   0.116   5.595 -0.3883 -0.2469  0.3508
 4935TIP3    H136220   5.711   0.109   5.542  0.7446 -1.0148 -1.3394
 4935TIP3    H236221   5.833   0.030   5.586  1.3806  0.6181 -0.0681
 4936TIP3   OH236222   0.719   4.317   4.481  0.0233  0.8314 -0.0347
 4936TIP3    H136223   0.740   4.409   4.494 -0.9535  0.8249  1.8256
 4936TIP3    H236224   0.770   4.270   4.547 -0.2293  0.1333 -0.3226
 4937TIP3   OH236225   1.094   4.876   2.891  0.2493  0.2188 -0.2947
 4937TIP3    H136226   1.073   4.803   2.833  0.1609  0.5768 -0.7185
 4937TIP3    H236227   1.180   4.853   2.927  1.1611  0.8315 -1.9641
 4938TIP3   OH236228   1.525   0.708  12.119 -0.2503  0.1885 -0.2923
 4938TIP3    H136229   1.495   0.785  12.071 -1.3215  0.0018  0.0566
 4938TIP3    H236230   1.526   0.638  12.054  2.4374  0.8251 -1.0570
 4939TIP3   OH236231   0.304   2.964  11.652  0.6456  0.4149  0.2382
 4939TIP3    H136232   0.364   2.965  11.726  0.1857 -0.4403  0.6342
 4939TIP3    H236233   0.316   2.878  11.612  0.3546  0.5880 -0.2386
 4940TIP3   OH236234   4.678   1.642   4.931 -0.0139  0.6498  0.5959
 4940TIP3    H136235   4.728   1.563   4.912  0.6561  0.8685  1.3739
 4940TIP3    H236236   4.723   1.711   4.881  0.3064  0.7939  1.0711
 4941TIP3   OH236237   0.178   2.124   4.745 -0.0365  0.1092  0.0021
 4941TIP3    H136238   0.161   2.175   4.824 -1.1184 -0.9452  0.4903
 4941TIP3    H236239   0.197   2.036   4.777  0.0499 -0.2122 -0.8949
 4942TIP3   OH236240   5.987   5.308   3.937  0.6626 -0.4449  0.1866
 4942TIP3    H136241   5.985   5.311   4.033 -0.8377  0.7194  0.1505
 4942TIP3    H236242   5.929   5.236   3.914  0.6888 -0.4548  0.1523
 4943TIP3   OH236243   2.224   6.456  14.560  0.1931  0.2365  0.4454
 4943TIP3    H136244   2.287   6.528  14.563 -0.4468  0.7832  2.2232
 4943TIP3    H236245   2.256   6.394  14.626 -0.6158  0.0765  0.6935
 4944TIP3   OH236246   0.583   1.684  13.156 -0.0551  0.1040 -0.3161
 4944TIP3    H136247   0.604   1.594  13.133  5.4268  0.8991  0.2534
 4944TIP3    H236248   0.573   1.683  13.251  1.8990  0.2759 -0.0792
 4945TIP3   OH236249   5.368   6.075  16.823 -0.1378  0.7326  0.4716
 4945TIP3    H136250   5.297   6.011  16.832  1.6008 -1.0983  2.1580
 4945TIP3    H236251   5.336   6.152  16.871 -1.5601  0.5326 -0.0939
 4946TIP3   OH236252   0.800   6.319  15.773 -0.7651  0.1454  0.2666
 4946TIP3    H136253   0.745   6.360  15.839  1.2692  1.3832  1.2918
 4946TIP3    H236254   0.882   6.300  15.819 -0.3753 -1.8891 -1.1104
 4947TIP3   OH236255   5.605   3.376  12.110  0.2295 -0.2992  1.0044
 4947TIP3    H136256   5.607   3.468  12.134 -2.1722 -0.3072  1.4321
 4947TIP3    H236257   5.546   3.335  12.173  0.8378 -2.0589  0.5098
 4948TIP3   OH236258   3.279   1.641   5.168 -0.8378 -0.1850 -0.0349
 4948TIP3    H136259   3.271   1.629   5.262  1.2192  0.0365  0.2162
 4948TIP3    H236260   3.352   1.702   5.157 -2.7389  2.0248 -1.7089
 4949TIP3   OH236261   1.224   4.910   0.306 -0.2086 -0.6061 -0.2521
 4949TIP3    H136262   1.236   4.916   0.211 -1.4822  0.8520 -0.3569
 4949TIP3    H236263   1.299   4.956   0.344  1.2841 -2.7255 -0.4350
 4950TIP3   OH236264   1.620   6.255  13.596  0.5593  0.0398  0.4437
 4950TIP3    H136265   1.681   6.240  13.524  0.5062 -0.0910  0.4267
 4950TIP3    H236266   1.567   6.330  13.567 -1.3021 -1.6751 -0.8575
 4951TIP3   OH236267   3.308   3.946  12.021 -0.0628  0.4673 -0.1734
 4951TIP3    H136268   3.352   4.014  11.970 -0.4678  1.4448  0.7288
 4951TIP3    H236269   3.355   3.944  12.104  0.3570 -0.8448 -0.4174
 4952TIP3   OH236270   3.640   2.702  16.367  0.2723  1.2020 -0.2235
 4952TIP3    H136271   3.648   2.607  16.377  0.2479  1.1760 -0.4627
 4952TIP3    H236272   3.706   2.725  16.303  0.0533  1.3041 -0.4114
 4953TIP3   OH236273   3.228   0.726   0.733  0.0870 -0.7903 -0.1746
 4953TIP3    H136274   3.170   0.650   0.721  1.4308 -1.4845 -3.0184
 4953TIP3    H236275   3.280   0.729   0.654  1.7794  1.7233  0.9196
 4954TIP3   OH236276   6.414   0.421  12.556  0.1858  0.0355 -0.1503
 4954TIP3    H136277   6.435   0.493  12.616  0.7593 -1.1462  1.1380
 4954TIP3    H236278   6.457   0.444  12.474 -0.3297  1.5366 -0.0261
 4955TIP3   OH236279   0.165   0.493   1.180  0.1016  0.1149  0.6297
 4955TIP3    H136280   0.248   0.446   1.186 -0.5539 -1.1410  0.3809
 4955TIP3    H236281   0.102   0.426   1.153 -0.6177  1.4360 -1.1844
 4956TIP3   OH236282   1.601   1.568   2.610  0.4884  0.2539 -0.1659
 4956TIP3    H136283   1.670   1.577   2.675  0.9019 -1.5889 -0.2743
 4956TIP3    H236284   1.525   1.610   2.649  1.7772  2.9019 -0.3120
 4957TIP3   OH236285   5.770   1.807   4.079  0.1569  0.5620 -0.1602
 4957TIP3    H136286   5.742   1.756   4.003  0.0431  1.3732 -0.6763
 4957TIP3    H236287   5.851   1.848   4.051  1.1060 -0.5976  0.8149
 4958TIP3   OH236288   4.817   0.946   4.743  1.0163 -0.1277  0.7523
 4958TIP3    H136289   4.896   0.996   4.720  1.0048 -0.6254 -0.4233
 4958TIP3    H236290   4.843   0.894   4.819  1.8259 -0.2747  0.3830
 4959TIP3   OH236291   6.323   5.287   4.589  0.6858 -0.7237 -0.2119
 4959TIP3    H136292   6.250   5.344   4.565 -0.6867 -2.0415  0.6983
 4959TIP3    H236293   6.373   5.339   4.653  0.3137  0.0236 -0.5141
 4960TIP3   OH236294   4.414   1.439  13.795  0.5999 -0.2517 -0.0559
 4960TIP3    H136295   4.448   1.529  13.801  0.0151 -0.0028 -0.4121
 4960TIP3    H236296   4.341   1.445  13.733  0.1176 -0.8433  0.4491
 4961TIP3   OH236297   4.251   4.332   5.056 -0.1199 -0.0439 -0.0850
 4961TIP3    H136298   4.322   4.390   5.082 -1.7539  2.2008 -0.3447
 4961TIP3    H236299   4.240   4.273   5.130  1.5981 -0.0777  0.1874
 4962TIP3   OH236300   5.619   5.030  16.734  0.3229 -0.1108 -0.0094
 4962TIP3    H136301   5.607   5.112  16.686 -0.2460 -0.4407 -0.4500
 4962TIP3    H236302   5.676   5.053  16.807  0.1364  0.6897 -0.1002
 4963TIP3   OH236303   3.087   3.705   1.306 -0.6835 -0.1973 -0.7216
 4963TIP3    H136304   3.147   3.777   1.325  0.0322 -0.8465 -0.4545
 4963TIP3    H236305   3.035   3.736   1.233  0.0770  0.3316 -1.0555
 4964TIP3   OH236306   3.656   0.035   5.336 -0.1002  0.1665  0.2372
 4964TIP3    H136307   3.691  -0.049   5.307  0.0661 -0.0950  1.1642
 4964TIP3    H236308   3.693   0.048   5.424 -0.4713  0.9941  0.2828
 4965TIP3   OH236309   4.814   4.463   6.379 -0.2567 -0.0067 -0.5226
 4965TIP3    H136310   4.882   4.405   6.413  1.9969  2.2404 -0.8850
 4965TIP3    H236311   4.772   4.499   6.456  1.7751  1.6354 -0.0992
 4966TIP3   OH236312   2.850   0.237  17.127  0.9335 -0.3009  0.3361
 4966TIP3    H136313   2.930   0.235  17.074  1.1971  1.3306  0.6263
 4966TIP3    H236314   2.779   0.227  17.063  1.2191  2.2112 -0.4729
 4967TIP3   OH236315   5.677   4.467  16.620  0.4509 -0.4626  0.3267
 4967TIP3    H136316   5.623   4.522  16.678  0.3264  0.4898 -0.6481
 4967TIP3    H236317   5.751   4.441  16.674 -0.0586 -0.2522  1.1503
 4968TIP3   OH236318   2.531   2.445   4.195  0.3045 -0.4185 -0.2466
 4968TIP3    H136319   2.581   2.391   4.256  0.7400  0.2015 -0.0433
 4968TIP3    H236320   2.459   2.389   4.166  1.3003 -1.4586 -0.8153
 4969TIP3   OH236321   3.359   2.118  12.533 -0.4342  0.1610  0.2126
 4969TIP3    H136322   3.352   2.112  12.438 -2.3754 -0.8039  0.3631
 4969TIP3    H236323   3.300   2.189  12.557 -1.6114 -0.9798  0.8192
 4970TIP3   OH236324   4.437   6.617  14.219 -0.3197 -0.3795  0.2889
 4970TIP3    H136325   4.510   6.586  14.165  0.0500  2.4227 -1.0175
 4970TIP3    H236326   4.466   6.602  14.309  1.0973 -0.9147 -0.2206
 4971TIP3   OH236327   3.137   0.306  14.119  0.1258  0.0539  0.1995
 4971TIP3    H136328   3.071   0.238  14.131 -1.2509  1.1325 -0.8125
 4971TIP3    H236329   3.189   0.275  14.045  0.1542 -0.3763  0.3973
 4972TIP3   OH236330   0.998   0.780  13.226  0.3144 -0.1367 -0.0584
 4972TIP3    H136331   0.914   0.793  13.270  0.2391 -0.5749 -0.0706
 4972TIP3    H236332   1.008   0.685  13.220  1.1862 -0.1041  0.6708
 4973TIP3   OH236333   4.329   3.138  16.499 -0.3146 -0.0840 -0.0521
 4973TIP3    H136334   4.269   3.134  16.425 -1.1901 -1.8084  0.7013
 4973TIP3    H236335   4.415   3.118  16.461 -0.3005  1.5951 -0.9940
 4974TIP3   OH236336   3.650   5.018   1.694  0.1202 -0.3048 -0.5817
 4974TIP3    H136337   3.693   4.978   1.769 -0.7487 -0.2789 -0.0669
 4974TIP3    H236338   3.646   5.111   1.715 -0.2884 -0.3222 -0.5698
 4975TIP3   OH236339   0.163   3.424   3.871  0.1263 -0.1320 -0.1907
 4975TIP3    H136340   0.112   3.442   3.950  2.2433  2.3767  0.7914
 4975TIP3    H236341   0.242   3.381   3.903  0.1400 -0.8998 -1.2148
 4976TIP3   OH236342   3.314   0.768  12.441 -0.0013  0.3229  0.1126
 4976TIP3    H136343   3.248   0.717  12.394 -0.3869 -0.7446  1.7385
 4976TIP3    H236344   3.384   0.705  12.460 -0.3540  0.4063  1.8970
 4977TIP3   OH236345   6.660   1.713   3.554  0.5148 -0.4051 -0.5603
 4977TIP3    H136346   6.638   1.797   3.513 -2.2546 -0.4428  0.6545
 4977TIP3    H236347   6.701   1.738   3.637  0.8159 -0.2815 -0.7427
 4978TIP3   OH236348   6.298   4.270   5.127  0.0740 -0.5042  0.4230
 4978TIP3    H136349   6.334   4.323   5.198  0.0994 -0.0406  0.0657
 4978TIP3    H236350   6.221   4.318   5.097  1.6695  0.8287 -1.7834
 4979TIP3   OH236351   2.593   0.137   0.726 -0.7321 -0.4807  0.0580
 4979TIP3    H136352   2.587   0.209   0.789  1.0695 -1.3276  1.2752
 4979TIP3    H236353   2.582   0.058   0.779 -2.1682 -1.1802 -1.1787
 4980TIP3   OH236354   0.248   3.438   2.695  0.4390 -0.2574  0.5841
 4980TIP3    H136355   0.239   3.391   2.612 -0.3052  0.0255  0.4975
 4980TIP3    H236356   0.340   3.425   2.720  2.3033  3.8334 -2.8317
 4981TIP3   OH236357   3.480   1.882   5.174  0.0833 -0.2634  0.2927
 4981TIP3    H136358   3.412   1.947   5.186 -0.6189 -1.2092  1.5571
 4981TIP3    H236359   3.557   1.933   5.148 -1.5321  0.6822 -3.4155
 4982TIP3   OH236360   2.252   3.256   0.589 -0.0734  0.0913  0.0155
 4982TIP3    H136361   2.198   3.201   0.645  0.5542 -1.2495 -0.6624
 4982TIP3    H236362   2.331   3.205   0.574 -0.0933  0.5513 -1.8351
 4983TIP3   OH236363   5.515   4.396  16.398 -0.4848  0.3918 -0.2531
 4983TIP3    H136364   5.512   4.488  16.371 -0.8655  0.3819 -0.2437
 4983TIP3    H236365   5.568   4.396  16.478  0.4753  0.4493 -0.8738
 4984TIP3   OH236366   1.079   4.336  14.935 -0.4976  0.0252 -0.3716
 4984TIP3    H136367   1.110   4.418  14.973  1.7583  0.1213 -2.1947
 4984TIP3    H236368   1.157   4.280  14.932 -2.0423 -2.4627  1.2481
 4985TIP3   OH236369   0.631   0.744  13.425  0.2079  0.5197  0.4069
 4985TIP3    H136370   0.678   0.813  13.472  2.4585  0.1344 -1.1633
 4985TIP3    H236371   0.593   0.788  13.349  2.5326 -0.0477 -1.1787
 4986TIP3   OH236372   0.033   1.797  13.742  0.5361 -0.4889 -0.0652
 4986TIP3    H136373   0.023   1.702  13.732  1.1345 -0.4493 -1.1772
 4986TIP3    H236374  -0.056   1.827  13.763  0.4200 -1.3280  0.7453
 4987TIP3   OH236375   1.065   6.384  15.189  0.2980  0.0294 -0.3167
 4987TIP3    H136376   0.983   6.380  15.140 -0.4941  1.4310  0.8091
 4987TIP3    H236377   1.092   6.476  15.185  1.3418 -0.2399  0.0803
 4988TIP3   OH236378   6.077   0.686  16.142  0.5536 -0.4724  0.5501
 4988TIP3    H136379   6.103   0.715  16.055 -0.3521  1.8848  0.9818
 4988TIP3    H236380   6.140   0.618  16.166  1.5437 -0.2906 -1.4289
 4989TIP3   OH236381   5.968   6.597   2.708  0.3243 -0.0019 -0.2242
 4989TIP3    H136382   6.063   6.594   2.690  0.3597  0.0747 -0.0487
 4989TIP3    H236383   5.929   6.627   2.625  0.1285 -3.3535 -1.4986
 4990TIP3   OH236384   1.720   4.480  13.558  0.0310  0.1863  0.0647
 4990TIP3    H136385   1.659   4.512  13.491  0.6339 -0.0746 -0.6194
 4990TIP3    H236386   1.664   4.437  13.622 -0.5985  0.7989 -0.0560
 4991TIP3   OH236387   5.314   1.428   5.443  0.5531 -0.4569 -0.5178
 4991TIP3    H136388   5.400   1.387   5.454  0.2533 -1.0353 -0.2250
 4991TIP3    H236389   5.281   1.391   5.362 -1.4698 -4.1815  1.7245
 4992TIP3   OH236390   0.565   6.070   1.482 -0.0160  0.1575  0.3471
 4992TIP3    H136391   0.520   6.122   1.416 -0.1106  0.6557  0.7955
 4992TIP3    H236392   0.498   6.011   1.516  0.3299 -0.9861 -0.8683
 4993TIP3   OH236393   3.860   0.079  10.739  0.2881 -0.6117  0.6701
 4993TIP3    H136394   3.778   0.068  10.691  0.9986 -1.0524 -0.4779
 4993TIP3    H236395   3.893   0.164  10.710 -0.0078 -0.1942  1.5304
 4994TIP3   OH236396   5.465   1.850  13.969 -0.7586  0.1563 -0.0245
 4994TIP3    H136397   5.478   1.791  14.043  1.6345  0.1885 -0.3296
 4994TIP3    H236398   5.379   1.888  13.983 -1.7240 -2.2198  1.0219
 4995TIP3   OH236399   0.104   0.283   4.517 -0.0749 -0.0558 -0.0174
 4995TIP3    H136400   0.193   0.299   4.485  0.4266  0.2190  1.4660
 4995TIP3    H236401   0.050   0.343   4.466  0.7725  0.7484  0.0020
 4996TIP3   OH236402   0.354   2.010  12.159  0.1954  0.2071  0.0861
 4996TIP3    H136403   0.390   1.942  12.102  0.7100  0.4317  0.1329
 4996TIP3    H236404   0.431   2.056  12.192 -0.1591  1.9630 -1.3687
 4997TIP3   OH236405   0.267   6.507   0.215 -0.3942  0.2130 -0.1464
 4997TIP3    H136406   0.282   6.412   0.209  0.9363  0.3148  1.1362
 4997TIP3    H236407   0.174   6.514   0.237 -0.4054 -0.8386  0.2373
 4998TIP3   OH236408   5.588   5.256  15.326  0.5282 -0.1600  0.3803
 4998TIP3    H136409   5.545   5.260  15.240 -3.5835 -0.1701  2.1907
 4998TIP3    H236410   5.581   5.164  15.352  1.6128 -0.1335  0.8311
 4999TIP3   OH236411   4.319   1.179  16.634  0.4651  0.5940  0.3946
 4999TIP3    H136412   4.392   1.240  16.632  0.9729 -0.0084  0.4383
 4999TIP3    H236413   4.310   1.150  16.543  0.0475  0.9296  0.3211
 5000TIP3   OH236414   2.008   6.485   0.912  0.4366 -0.1021 -0.3905
 5000TIP3    H136415   1.982   6.498   1.003 -0.0267  1.3570 -0.6923
 5000TIP3    H236416   1.927   6.496   0.862  0.8062 -0.1884 -1.0181
 5001TIP3   OH236417   3.866   0.960  16.345 -0.1778  0.3884  0.0495
 5001TIP3    H136418   3.786   0.909  16.330  1.2578 -1.8306 -0.5574
 5001TIP3    H236419   3.886   0.947  16.437 -0.3348  0.6951  0.1296
 5002TIP3   OH236420   0.208   0.691   5.097 -0.3139 -0.3451 -0.5066
 5002TIP3    H136421   0.235   0.772   5.141 -1.0543  0.5314 -1.6090
 5002TIP3    H236422   0.285   0.661   5.050  0.7323 -1.7151  1.8927
 5003TIP3   OH236423   2.331   6.023  15.079  0.3413 -0.7431 -0.6615
 5003TIP3    H136424   2.399   6.054  15.020 -1.5992  0.3770 -2.4659
 5003TIP3    H236425   2.378   5.983  15.152  2.8987  0.5203 -1.5112
 5004TIP3   OH236426   0.349   1.152  13.508  0.3865 -0.4433 -0.2207
 5004TIP3    H136427   0.274   1.104  13.543  1.6801 -1.9880  0.5819
 5004TIP3    H236428   0.312   1.211  13.443 -1.6335 -0.3996  0.8913
 5005TIP3   OH236429   5.522   3.778  11.262 -0.2351 -0.0714 -0.7902
 5005TIP3    H136430   5.593   3.716  11.243  1.7328  1.9230 -0.3910
 5005TIP3    H236431   5.505   3.820  11.178 -2.1544 -1.6381 -1.2478
 5006TIP3   OH236432   3.050   6.668   2.726 -0.2143  0.4456 -0.1536
 5006TIP3    H136433   2.969   6.641   2.770  0.0175  2.8315  1.9764
 5006TIP3    H236434   3.059   6.761   2.746  2.3118  0.6073 -1.5677
 5007TIP3   OH236435   4.010   4.113   6.089 -0.6636  0.1145  0.2742
 5007TIP3    H136436   4.013   4.191   6.145 -2.2837  0.2570  0.2067
 5007TIP3    H236437   3.980   4.043   6.147 -2.1015  0.2069 -0.3235
 5008TIP3   OH236438   2.895   2.740  16.223 -0.0938 -0.0600  0.6564
 5008TIP3    H136439   2.957   2.670  16.204 -1.6326 -0.9468 -1.4856
 5008TIP3    H236440   2.916   2.809  16.160 -1.3644 -0.4854 -0.2960
 5009TIP3   OH236441   5.311   3.995   4.348  0.0169 -0.4271 -0.4870
 5009TIP3    H136442   5.219   3.975   4.364  0.6012 -1.9834  1.2507
 5009TIP3    H236443   5.337   3.933   4.280 -0.3077  0.3287 -1.3182
 5010TIP3   OH236444   2.018   1.120  11.430  0.2561  0.1974 -0.4433
 5010TIP3    H136445   2.041   1.057  11.362  0.8334  0.1930 -0.2474
 5010TIP3    H236446   2.084   1.107  11.498  0.6946  1.3596 -0.6280
 5011TIP3   OH236447   5.914   5.251  16.038  0.2741 -0.0436 -0.5562
 5011TIP3    H136448   5.988   5.306  16.014  0.0819  0.0797 -0.8749
 5011TIP3    H236449   5.948   5.192  16.105  0.3504  0.7972  0.1662
 5012TIP3   OH236450   3.889   4.833   0.077  0.6490  0.1203 -0.4612
 5012TIP3    H136451   3.870   4.754   0.129 -0.8754  0.9155  0.2663
 5012TIP3    H236452   3.914   4.899   0.142  0.4216  0.6561 -0.9106
 5013TIP3   OH236453   5.447   4.563  16.834  0.3475 -0.2739  0.3441
 5013TIP3    H136454   5.448   4.642  16.782 -0.6577 -0.6520 -0.2769
 5013TIP3    H236455   5.410   4.590  16.918 -0.2034 -0.1245  0.0580
 5014TIP3   OH236456   0.821   1.687   2.641  0.0829 -0.9570  0.4729
 5014TIP3    H136457   0.795   1.625   2.709  0.6482  0.6342  2.2099
 5014TIP3    H236458   0.906   1.721   2.671 -0.7942  1.6026  0.2915
 5015TIP3   OH236459   4.225   6.500  12.087  0.0491 -0.0213 -0.0862
 5015TIP3    H136460   4.134   6.513  12.063 -0.0861 -1.6607 -0.5974
 5015TIP3    H236461   4.225   6.500  12.183 -0.5503 -0.4063 -0.0858
 5016TIP3   OH236462   3.879   0.746   4.625 -0.2395 -0.0172 -0.5973
 5016TIP3    H136463   3.806   0.741   4.564  0.2068  1.0577 -1.2408
 5016TIP3    H236464   3.839   0.771   4.708 -0.4121  2.6802 -1.4195
 5017TIP3   OH236465   4.615   3.976  11.088 -0.0870 -0.2195  0.0013
 5017TIP3    H136466   4.532   4.019  11.107 -0.4047 -0.0048 -1.7539
 5017TIP3    H236467   4.680   4.027  11.136 -1.0607 -1.2601  2.6407
 5018TIP3   OH236468   1.524   0.246   2.120 -0.3158 -0.1331 -0.0191
 5018TIP3    H136469   1.604   0.273   2.165  1.0516 -3.9034  0.1865
 5018TIP3    H236470   1.555   0.197   2.044 -2.4248 -1.2821 -0.2241
 5019TIP3   OH236471   6.235   0.410   6.226 -0.0644 -0.0941 -0.1073
 5019TIP3    H136472   6.165   0.472   6.203 -0.5961  0.0689  1.7579
 5019TIP3    H236473   6.315   0.460   6.213 -0.4807  0.9908  1.2126
 5020TIP3   OH236474   1.145   2.372   1.075 -0.3008  0.2132 -0.3066
 5020TIP3    H136475   1.150   2.432   1.000  0.0921  1.9104  1.0191
 5020TIP3    H236476   1.217   2.400   1.132 -1.4600 -0.0979  1.3649
 5021TIP3   OH236477   4.776   4.853   6.021 -0.4194 -0.1401  0.7333
 5021TIP3    H136478   4.835   4.880   6.092  0.0700 -0.2315  0.3605
 5021TIP3    H236479   4.798   4.761   6.005  0.0117  0.0986 -0.0722
 5022TIP3   OH236480   5.986   4.196   1.125 -0.2151  0.0367 -0.1011
 5022TIP3    H136481   5.972   4.282   1.163 -1.2070  0.2032 -0.7861
 5022TIP3    H236482   6.081   4.184   1.124 -0.1216  0.5475  1.2288
 5023TIP3   OH236483   6.649   4.471   3.928 -0.2038 -0.4274 -0.2926
 5023TIP3    H136484   6.600   4.505   4.003  1.0951 -2.6790  1.7056
 5023TIP3    H236485   6.735   4.512   3.936  0.3328 -1.6241  0.2141
 5024TIP3   OH236486   2.587   0.201   1.705 -0.2940 -0.4801  0.4505
 5024TIP3    H136487   2.513   0.174   1.651 -0.8763 -0.7755  1.3723
 5024TIP3    H236488   2.568   0.164   1.792  0.8765 -0.4642  0.7253
 5025TIP3   OH236489   3.684   5.035  11.941 -0.1366  0.3948  0.4047
 5025TIP3    H136490   3.628   5.095  11.892 -0.4592  0.5707  0.9801
 5025TIP3    H236491   3.630   5.008  12.016 -0.0034 -0.6189  0.1545
 5026TIP3   OH236492   6.042   2.756  14.513 -0.0464 -0.0085 -0.1001
 5026TIP3    H136493   6.039   2.663  14.493  1.4094 -0.2301  0.5816
 5026TIP3    H236494   6.019   2.799  14.430  2.2132 -0.9627 -1.3049
 5027TIP3   OH236495   1.300   4.634  15.283  0.0084 -0.4050  0.4141
 5027TIP3    H136496   1.284   4.587  15.365 -1.2718 -0.6330  0.0438
 5027TIP3    H236497   1.395   4.646  15.282  0.0642 -0.4393  1.9063
 5028TIP3   OH236498   0.280   2.740  12.541  0.0260 -0.1749  0.2605
 5028TIP3    H136499   0.261   2.691  12.461 -1.1707  0.5209  0.0920
 5028TIP3    H236500   0.223   2.817  12.536  0.3572  0.1726  1.5033
 5029TIP3   OH236501   4.403   2.797  13.679 -0.1304 -0.2899  0.0007
 5029TIP3    H136502   4.366   2.871  13.630 -0.5878 -1.0022 -0.7594
 5029TIP3    H236503   4.497   2.812  13.676 -0.1189 -0.4563 -1.3822
 5030TIP3   OH236504   1.783   1.360   0.279 -0.1451 -0.0960 -0.0770
 5030TIP3    H136505   1.783   1.410   0.197  0.2488 -2.2323 -1.4669
 5030TIP3    H236506   1.852   1.401   0.332  0.3760  0.6309 -1.2858
 5031TIP3   OH236507   4.165   4.823   4.560 -0.6963 -0.9386  0.0779
 5031TIP3    H136508   4.139   4.829   4.652 -1.8043  0.8517 -0.2889
 5031TIP3    H236509   4.091   4.861   4.512  0.3047 -0.8536 -1.4740
 5032TIP3   OH236510   4.881   4.368   1.895 -0.1107 -0.0490 -0.3996
 5032TIP3    H136511   4.825   4.431   1.849  1.2655  2.1979  0.7970
 5032TIP3    H236512   4.828   4.289   1.902 -3.0604  1.8371  0.3959
 5033TIP3   OH236513   3.504   3.856   5.501 -0.3617 -0.4520 -0.0768
 5033TIP3    H136514   3.488   3.947   5.526  0.3342  0.1310 -1.6086
 5033TIP3    H236515   3.497   3.807   5.582 -0.6380  0.9882  0.8036
 5034TIP3   OH236516   4.203   0.288  11.209  0.6064  0.0005 -0.6711
 5034TIP3    H136517   4.133   0.306  11.147  0.4221  0.0495 -0.4488
 5034TIP3    H236518   4.193   0.354  11.277  0.4966 -0.3641 -0.3319
 5035TIP3   OH236519   1.828   5.982  13.430  0.3449 -0.2851 -0.0532
 5035TIP3    H136520   1.811   5.960  13.338  0.8411  0.0688 -0.2355
 5035TIP3    H236521   1.761   5.935  13.479  1.1472 -1.9060 -0.4545
 5036TIP3   OH236522   0.624   1.569  14.873 -0.3940 -0.4521 -0.0680
 5036TIP3    H136523   0.627   1.556  14.968 -0.4790  1.0797  0.1584
 5036TIP3    H236524   0.532   1.555  14.849 -0.6658  0.6283  0.3097
 5037TIP3   OH236525   4.147   0.364  12.857  0.4005  0.2013 -0.7485
 5037TIP3    H136526   4.241   0.378  12.844  0.7641 -0.0649  1.2467
 5037TIP3    H236527   4.138   0.269  12.865  0.3567  0.3436  1.3853
 5038TIP3   OH236528   2.553   4.947  11.402 -0.2407  0.1900 -0.1842
 5038TIP3    H136529   2.565   4.984  11.490  1.7870 -0.6600 -0.0411
 5038TIP3    H236530   2.632   4.895  11.388 -0.1108  0.9874 -2.8462
 5039TIP3   OH236531   4.464   5.412   4.777  0.8046 -0.1147 -0.5878
 5039TIP3    H136532   4.550   5.432   4.814 -0.0997  1.0918  0.9648
 5039TIP3    H236533   4.401   5.441   4.843 -0.8465  0.0276 -2.1336
 5040TIP3   OH236534   1.802   2.161   1.282 -0.3370 -1.0341  0.1055
 5040TIP3    H136535   1.887   2.205   1.285 -1.0983  0.5688 -0.9712
 5040TIP3    H236536   1.761   2.184   1.366 -0.6894  0.2706 -0.4068
 5041TIP3   OH236537   2.015   3.465  13.234 -0.1627  0.2167 -0.0252
 5041TIP3    H136538   2.104   3.441  13.208 -0.5752 -1.6100  0.1370
 5041TIP3    H236539   2.010   3.559  13.215  0.4853 -0.3563 -3.8804
 5042TIP3   OH236540   2.807   5.004  15.937  0.4031 -0.3081 -0.2448
 5042TIP3    H136541   2.782   4.915  15.961  0.1506 -0.1666  0.0228
 5042TIP3    H236542   2.875   4.993  15.871  0.6170 -0.7050  0.0364
 5043TIP3   OH236543   4.812   3.984  13.793 -0.1672  0.6060 -0.0598
 5043TIP3    H136544   4.853   4.023  13.716 -3.8584  1.2448 -1.9414
 5043TIP3    H236545   4.840   3.893  13.793 -1.3201  0.1427 -3.2351
 5044TIP3   OH236546   0.649   6.571  12.349  0.1606  0.5226  0.2459
 5044TIP3    H136547   0.727   6.622  12.326  0.2906 -0.3855 -1.4631
 5044TIP3    H236548   0.577   6.616  12.306  0.5146 -1.6624 -2.9090
 5045TIP3   OH236549   4.109   1.513   1.744  0.2146 -0.3858 -0.0267
 5045TIP3    H136550   4.176   1.458   1.785 -1.4204 -1.6130  1.1393
 5045TIP3    H236551   4.107   1.591   1.799  3.2307  1.4918 -2.2461
 5046TIP3   OH236552   6.611   1.170  17.100  0.2777  0.2841 -0.0269
 5046TIP3    H136553   6.701   1.203  17.094  1.8406 -3.0724  1.9147
 5046TIP3    H236554   6.604   1.107  17.029 -0.2461 -0.0516  0.3180
 5047TIP3   OH236555   5.259   0.997  14.660  0.0844 -0.3493 -0.2777
 5047TIP3    H136556   5.236   1.045  14.739  1.4349 -0.3451  0.1273
 5047TIP3    H236557   5.238   0.906  14.681 -2.4662 -0.0152 -1.0452
 5048TIP3   OH236558   0.854   6.314  14.275 -0.1932  0.1420  0.5863
 5048TIP3    H136559   0.826   6.406  14.271 -0.1780  0.0823 -1.6746
 5048TIP3    H236560   0.932   6.310  14.220  1.8987 -0.5909  3.3559
 5049TIP3   OH236561   4.192   6.619   2.695  0.1794 -0.2099  0.5750
 5049TIP3    H136562   4.111   6.584   2.657  0.2326 -0.1146  0.3769
 5049TIP3    H236563   4.216   6.692   2.638  0.9774 -0.8871  0.0162
 5050TIP3   OH236564   3.655   4.111  17.188  0.7355 -0.2271  0.5478
 5050TIP3    H136565   3.711   4.035  17.172  0.6740 -0.6362  2.0724
 5050TIP3    H236566   3.710   4.186  17.171  0.5842 -0.5763 -1.7054
 5051TIP3   OH236567   3.275   5.750  14.597 -0.3785 -0.3913 -0.0099
 5051TIP3    H136568   3.224   5.759  14.678 -0.2822  3.2161 -0.2076
 5051TIP3    H236569   3.361   5.786  14.618  0.8987 -2.7973 -0.7801
 5052TIP3   OH236570   0.375   0.295  10.813  0.5253 -0.1447  0.4712
 5052TIP3    H136571   0.457   0.245  10.805 -0.7136 -2.6141  2.0645
 5052TIP3    H236572   0.374   0.351  10.735  2.6026 -1.7479 -0.8181
 5053TIP3   OH236573   0.282   4.860  13.709  1.0005 -0.3948  0.2279
 5053TIP3    H136574   0.201   4.901  13.679  1.3128  0.0884  0.0303
 5053TIP3    H236575   0.351   4.907  13.663  1.3752 -1.0567  0.1047
 5054TIP3   OH236576   4.190   2.472  14.331  0.2567 -0.0584  0.5526
 5054TIP3    H136577   4.185   2.481  14.426  0.4363  0.8024  0.4823
 5054TIP3    H236578   4.176   2.378  14.316  2.0867 -0.5449  1.5496
 5055TIP3   OH236579   2.694   4.380  13.828  0.7996  0.6774  0.7608
 5055TIP3    H136580   2.743   4.429  13.762  0.4422  0.3247  0.2279
 5055TIP3    H236581   2.755   4.373  13.902  1.0747  1.3833  0.6087
 5056TIP3   OH236582   0.882   4.580  17.035 -0.0987 -0.2644 -0.2771
 5056TIP3    H136583   0.925   4.575  16.949 -0.4182 -1.0990 -0.3950
 5056TIP3    H236584   0.827   4.502  17.039 -1.8598  0.9303 -0.2596
 5057TIP3   OH236585   4.311   0.400   4.009  0.3843  0.1113 -0.4100
 5057TIP3    H136586   4.222   0.406   3.973  0.2266  2.8425  0.1809
 5057TIP3    H236587   4.300   0.350   4.090 -0.7517  0.8669 -0.0613
 5058TIP3   OH236588   1.880   4.945  16.785  0.3240 -0.7146 -0.6460
 5058TIP3    H136589   1.906   5.015  16.844 -0.8048 -0.1340 -0.8057
 5058TIP3    H236590   1.907   4.975  16.698  0.8311 -0.9828 -0.5811
 5059TIP3   OH236591   2.685   0.441  16.736  0.1447  0.2605  0.8079
 5059TIP3    H136592   2.644   0.384  16.801  2.4553 -1.6101  0.7436
 5059TIP3    H236593   2.743   0.498  16.787  1.8095 -1.0729  0.4775
 5060TIP3   OH236594   1.882   1.840  13.251  0.1135  0.0268  0.3405
 5060TIP3    H136595   1.855   1.828  13.160 -1.0525  0.6235  0.5853
 5060TIP3    H236596   1.809   1.805  13.302  1.7424 -2.4991  1.1019
 5061TIP3   OH236597   2.121   1.207   3.093  0.0010  0.0757 -0.0604
 5061TIP3    H136598   2.201   1.164   3.122  0.0005 -1.0273 -1.5987
 5061TIP3    H236599   2.088   1.251   3.171  2.0508  0.4851  0.6121
 5062TIP3   OH236600   2.515   6.547   5.380 -0.3576  0.2393 -0.5473
 5062TIP3    H136601   2.425   6.580   5.386 -1.4749 -2.7172  1.7619
 5062TIP3    H236602   2.554   6.570   5.464  0.3575 -0.3068 -0.7280
 5063TIP3   OH236603   0.536   4.723   0.925 -0.6143 -0.3720 -0.1129
 5063TIP3    H136604   0.568   4.743   1.013 -0.3990  0.9737 -0.4765
 5063TIP3    H236605   0.444   4.700   0.937 -1.5134  2.8638  0.1931
 5064TIP3   OH236606   1.512   5.642  13.886 -0.1922 -0.8289 -0.1450
 5064TIP3    H136607   1.501   5.556  13.847 -1.2478  0.1156 -2.0708
 5064TIP3    H236608   1.598   5.639  13.927 -0.6784 -3.1534  0.8806
 5065TIP3   OH236609   6.564   4.507   2.653  0.2352 -0.3119  0.2086
 5065TIP3    H136610   6.515   4.462   2.722  0.3624 -0.4502  0.2073
 5065TIP3    H236611   6.634   4.552   2.700 -1.3955  2.0656  0.5743
 5066TIP3   OH236612   5.094   5.700   3.203  0.0295 -0.4676  0.4025
 5066TIP3    H136613   5.019   5.755   3.182  1.7102  1.4490 -0.9992
 5066TIP3    H236614   5.107   5.713   3.297 -0.3348  0.5856  0.3200
 5067TIP3   OH236615   2.233   3.828   0.218  0.1568 -0.6368 -0.6812
 5067TIP3    H136616   2.191   3.806   0.301  1.9829  1.2759  0.8496
 5067TIP3    H236617   2.163   3.869   0.166 -0.4888  0.1413  0.7617
 5068TIP3   OH236618   0.556   2.560   2.961  0.1087 -0.4869  0.7743
 5068TIP3    H136619   0.598   2.528   2.881 -0.4439 -1.4851  0.8544
 5068TIP3    H236620   0.497   2.489   2.986  0.1494 -0.1164  1.9779
 5069TIP3   OH236621   4.707   0.466   3.880 -0.4886 -0.1329 -0.4834
 5069TIP3    H136622   4.739   0.380   3.906 -0.7282  0.2893  1.3792
 5069TIP3    H236623   4.785   0.520   3.870 -0.4147 -0.1132  0.1602
 5070TIP3   OH236624   2.339   0.576   3.463 -0.1260  0.3394 -0.4042
 5070TIP3    H136625   2.363   0.665   3.439 -0.8907  0.7590  0.3436
 5070TIP3    H236626   2.423   0.530   3.472  0.3265  1.2483  0.2006
 5071TIP3   OH236627   3.446   2.201   5.958 -0.9583 -0.5283  0.3508
 5071TIP3    H136628   3.393   2.121   5.958  0.2266 -1.3607  1.0752
 5071TIP3    H236629   3.501   2.193   6.036 -2.2372  2.0275  1.6327
 5072TIP3   OH236630   2.193   4.565   5.626 -0.1026  0.2151 -0.3622
 5072TIP3    H136631   2.224   4.643   5.672  2.2220 -0.2824 -0.9427
 5072TIP3    H236632   2.159   4.599   5.542 -1.0159  0.7560  0.2046
 5073TIP3   OH236633   4.501   3.031   6.479  0.0382 -0.1148  0.2804
 5073TIP3    H136634   4.556   3.093   6.528  0.1668 -0.9235  1.1917
 5073TIP3    H236635   4.413   3.043   6.517  0.1824 -0.9025  0.8893
 5074TIP3   OH236636   1.384   4.339  16.713  0.0694  0.2526 -0.0694
 5074TIP3    H136637   1.352   4.352  16.624 -1.0491  0.3261  0.3235
 5074TIP3    H236638   1.348   4.413  16.762  0.4898  0.0896  0.4941
 5075TIP3   OH236639   3.323   2.828  15.191 -0.3709  0.0884  0.3105
 5075TIP3    H136640   3.230   2.832  15.215 -0.5301 -1.4323  0.0273
 5075TIP3    H236641   3.361   2.766  15.253  0.7537  1.6158  1.2239
 5076TIP3   OH236642   0.682   6.238   0.893 -1.2546 -0.2406  0.0317
 5076TIP3    H136643   0.687   6.327   0.928  2.9651  0.7098 -2.3349
 5076TIP3    H236644   0.593   6.232   0.858 -1.6206  3.2302 -0.0405
 5077TIP3   OH236645   4.869   5.029   5.392 -0.0601 -0.2186  0.2616
 5077TIP3    H136646   4.795   5.014   5.451 -0.6996 -0.2323 -0.5265
 5077TIP3    H236647   4.894   4.942   5.361 -1.0443 -0.0838 -1.0327
 5078TIP3   OH236648   3.022   6.544  12.335  0.1174  0.1041 -0.4111
 5078TIP3    H136649   2.967   6.620  12.356 -0.4992 -0.2594 -0.6760
 5078TIP3    H236650   3.088   6.579  12.274 -0.2025  0.4188 -0.5827
 5079TIP3   OH236651   2.532   4.685  13.843  0.8864 -0.5701 -0.1306
 5079TIP3    H136652   2.472   4.735  13.900  0.3749 -0.6275 -0.6086
 5079TIP3    H236653   2.592   4.750  13.808 -0.7788  0.0215 -2.0298
 5080TIP3   OH236654   4.152   0.059  12.877  0.2431  0.2448 -0.3739
 5080TIP3    H136655   4.156   0.030  12.968 -0.7644 -0.5353 -0.5617
 5080TIP3    H236656   4.221   0.010  12.833  0.2256  0.0549 -0.1900
 5081TIP3   OH236657   4.149   5.330  15.227 -0.0968 -0.0924 -0.2507
 5081TIP3    H136658   4.222   5.328  15.164 -0.3425  0.7085 -0.5710
 5081TIP3    H236659   4.071   5.325  15.173 -0.2880 -0.8672  0.0895
 5082TIP3   OH236660   3.488   1.293   0.782 -0.1850 -0.9064 -0.3390
 5082TIP3    H136661   3.462   1.262   0.868  1.3268  2.1057  1.3599
 5082TIP3    H236662   3.426   1.363   0.761  0.1056 -0.8945 -1.2263
 5083TIP3   OH236663   1.916   0.572   4.247 -0.2004 -0.4817  0.4156
 5083TIP3    H136664   1.905   0.605   4.337  1.1279  0.7578  0.1606
 5083TIP3    H236665   1.833   0.529   4.227 -0.9159  0.1656  1.8477
 5084TIP3   OH236666   4.795   1.302  10.843  0.4849 -0.0445  0.7947
 5084TIP3    H136667   4.717   1.262  10.804  1.2347 -0.2912 -0.5105
 5084TIP3    H236668   4.810   1.252  10.923 -0.5775 -0.1137  0.9632
 5085TIP3   OH236669   1.751   5.216   4.830  0.4928 -0.3584  0.2072
 5085TIP3    H136670   1.789   5.288   4.879 -0.3293  0.6761 -0.6399
 5085TIP3    H236671   1.657   5.234   4.829  0.0030 -2.4144  1.5451
 5086TIP3   OH236672   3.946   5.147  14.307 -0.2902 -0.4007 -0.1417
 5086TIP3    H136673   3.970   5.096  14.230  0.5066 -1.1583  0.5915
 5086TIP3    H236674   3.960   5.088  14.381 -1.4233  0.1827  0.5633
 5087TIP3   OH236675   2.499   1.334   4.211 -0.8287 -0.1109 -0.6766
 5087TIP3    H136676   2.435   1.296   4.271  0.5538  0.9213  1.5509
 5087TIP3    H236677   2.491   1.281   4.131 -2.7289 -1.5357  0.3912
 5088TIP3   OH236678   3.607   5.458   4.147  0.0376  0.1360 -0.0839
 5088TIP3    H136679   3.552   5.514   4.202 -1.1511 -0.5453 -0.5360
 5088TIP3    H236680   3.691   5.453   4.193 -1.6064 -2.3703  3.0684
 5089TIP3   OH236681   6.384   2.858  13.149 -0.3169 -0.0822  0.3131
 5089TIP3    H136682   6.352   2.879  13.237  1.2216  0.0346  0.8760
 5089TIP3    H236683   6.479   2.870  13.155 -0.3029  1.4656 -1.7802
 5090TIP3   OH236684   1.374   2.974   1.683 -0.5904  0.4063  0.1502
 5090TIP3    H136685   1.432   3.038   1.641 -0.7023  0.1299 -0.4375
 5090TIP3    H236686   1.297   3.025   1.710 -0.0381  0.7981  1.0383
 5091TIP3   OH236687   0.284   6.360   4.972  0.0346 -0.3416  0.5320
 5091TIP3    H136688   0.306   6.439   5.022  0.8201 -1.8089  2.6644
 5091TIP3    H236689   0.361   6.344   4.917  1.0943 -1.0794  2.1370
 5092TIP3   OH236690   6.139   1.407  11.141 -0.0696 -0.6889 -0.1620
 5092TIP3    H136691   6.163   1.470  11.209  0.7603 -1.9954  0.8057
 5092TIP3    H236692   6.110   1.461  11.067  0.6868  0.8162  0.5966
 5093TIP3   OH236693   6.684   6.283  14.485 -0.1463  0.2132 -0.1930
 5093TIP3    H136694   6.698   6.224  14.411  1.0273  0.6971 -0.3716
 5093TIP3    H236695   6.772   6.303  14.517 -0.6504 -0.6978  1.9147
 5094TIP3   OH236696   0.742   6.314   0.641  0.1117  0.0785 -0.0030
 5094TIP3    H136697   0.814   6.261   0.606  0.9511  0.6428  0.8152
 5094TIP3    H236698   0.727   6.278   0.728 -0.7936 -0.1984 -0.2597
 5095TIP3   OH236699   0.160   5.835   3.610 -0.0094  0.1426  0.9951
 5095TIP3    H136700   0.172   5.875   3.524  2.0529  1.8797  2.0113
 5095TIP3    H236701   0.148   5.909   3.669  0.0627 -0.9521  2.4169
 5096TIP3   OH236702   5.311   5.258  17.148  0.6369  0.8996 -0.1298
 5096TIP3    H136703   5.272   5.221  17.227  2.3030  1.5875  1.0694
 5096TIP3    H236704   5.240   5.255  17.083 -0.5598 -0.3442  1.1552
 5097TIP3   OH236705   0.942   4.527   4.313 -0.0907  0.0682  0.7225
 5097TIP3    H136706   0.929   4.620   4.296 -1.4111 -0.0691  0.8764
 5097TIP3    H236707   0.859   4.497   4.350  0.2440 -1.2177  0.4932
 5098TIP3   OH236708   5.859   6.144  16.116  0.5485  0.2697 -0.6609
 5098TIP3    H136709   5.951   6.129  16.096  0.6656 -1.9723  1.0870
 5098TIP3    H236710   5.837   6.225  16.072  3.7878  1.7702  0.2040
 5099TIP3   OH236711   3.423   4.882  10.910 -0.5592 -0.6823  0.1529
 5099TIP3    H136712   3.421   4.786  10.906 -3.0630 -0.7406  1.2217
 5099TIP3    H236713   3.450   4.909  10.822 -1.9041 -2.3550 -0.8287
 5100TIP3   OH236714   3.952   3.835   2.150 -0.0485 -0.0622  0.3903
 5100TIP3    H136715   3.995   3.870   2.228 -2.0082 -1.3561  2.1782
 5100TIP3    H236716   3.898   3.763   2.183 -1.7089 -0.0570 -2.0377
 5101TIP3   OH236717   1.670   4.562   6.150  0.4936  0.2558  0.4661
 5101TIP3    H136718   1.689   4.473   6.120  0.2981  0.5710 -0.6318
 5101TIP3    H236719   1.668   4.614   6.070  1.5485  1.4276  1.1692
 5102TIP3   OH236720   1.130   3.945  16.238 -0.0857  0.5517  0.3230
 5102TIP3    H136721   1.096   3.866  16.195 -1.5435  0.8701  0.8360
 5102TIP3    H236722   1.119   3.927  16.331  1.8900  0.3758  0.5572
 5103TIP3   OH236723   4.951   4.571  16.925  0.6241  0.5653  0.0598
 5103TIP3    H136724   4.908   4.487  16.909  1.2814  0.3776 -0.7688
 5103TIP3    H236725   4.921   4.628  16.855 -0.6711  1.3872  1.2157
 5104TIP3   OH236726   6.066   1.279   4.596  0.6490  0.1488  0.7438
 5104TIP3    H136727   6.057   1.372   4.577 -1.6151  0.2868  2.1357
 5104TIP3    H236728   5.984   1.240   4.567  0.5916 -0.9917  2.2921
 5105TIP3   OH236729   6.489   2.071   1.447  0.1486  0.4877 -1.0038
 5105TIP3    H136730   6.552   2.000   1.461 -1.1676 -0.6190 -0.4630
 5105TIP3    H236731   6.434   2.041   1.374 -0.7871  0.6796 -0.3974
 5106TIP3   OH236732   2.483   5.871  16.586  0.2837  0.0479 -0.7792
 5106TIP3    H136733   2.404   5.842  16.540  0.8614 -0.4449 -1.4767
 5106TIP3    H236734   2.494   5.806  16.656 -1.0324  1.2275  0.6045
 5107TIP3   OH236735   1.158   0.725   4.923 -0.0851  0.5776  0.2397
 5107TIP3    H136736   1.168   0.731   4.828  0.1692  1.8005  0.3222
 5107TIP3    H236737   1.227   0.781   4.958  1.5705 -1.9309  1.2717
 5108TIP3   OH236738   4.313   3.351   3.138 -0.1712 -0.3095 -0.6901
 5108TIP3    H136739   4.248   3.413   3.169  2.0036  1.4932  0.5286
 5108TIP3    H236740   4.281   3.266   3.168 -1.6114  0.5760  0.4212
 5109TIP3   OH236741   3.646   6.610   3.709  0.5244  0.5012  0.2732
 5109TIP3    H136742   3.682   6.576   3.627 -1.2087 -0.3813 -0.1701
 5109TIP3    H236743   3.634   6.532   3.764 -0.3125  0.8088  0.5434
 5110TIP3   OH236744   5.810   2.480   0.964  0.1365 -0.2176  0.4079
 5110TIP3    H136745   5.824   2.409   1.026 -0.3806  0.1459  0.9664
 5110TIP3    H236746   5.801   2.438   0.879  1.6834 -0.6658  0.4372
 5111TIP3   OH236747   6.160   5.839  16.301  0.3953  0.0873 -0.0849
 5111TIP3    H136748   6.195   5.754  16.329 -1.4438 -0.6728  0.0625
 5111TIP3    H236749   6.234   5.899  16.309  1.7279 -1.4693 -0.1042
 5112TIP3   OH236750   6.248   4.725   5.506 -0.1306 -0.2760  0.0330
 5112TIP3    H136751   6.309   4.662   5.546 -0.4614  0.5623  1.9512
 5112TIP3    H236752   6.302   4.801   5.486  0.1561 -0.8921 -1.7936
 5113TIP3   OH236753   2.854   1.611  14.125 -0.1068 -0.3864  0.1351
 5113TIP3    H136754   2.768   1.650  14.143 -0.9990 -2.2969  0.1706
 5113TIP3    H236755   2.838   1.543  14.060  1.8392  0.9873 -1.9530
 5114TIP3   OH236756   6.376   0.649  12.762 -0.6880 -0.5694 -0.0819
 5114TIP3    H136757   6.341   0.728  12.720  0.9087  0.2193 -0.0212
 5114TIP3    H236758   6.300   0.608  12.803 -1.3963  1.6029  0.9605
 5115TIP3   OH236759   0.802   4.074  17.133  0.1866  0.5070 -0.0452
 5115TIP3    H136760   0.790   4.005  17.068  3.1171  0.2854 -0.4718
 5115TIP3    H236761   0.767   4.037  17.214  1.7036 -1.5335 -0.2515
 5116TIP3   OH236762   6.469   5.085   3.226  0.5900 -0.0567 -0.1731
 5116TIP3    H136763   6.455   5.176   3.201 -2.0476 -0.2893  0.1866
 5116TIP3    H236764   6.392   5.062   3.278  1.6988 -2.1991  0.6466
 5117TIP3   OH236765   4.021   2.866   4.643 -0.1718 -0.0434 -0.1888
 5117TIP3    H136766   3.945   2.838   4.592  0.1686  0.4849 -0.9981
 5117TIP3    H236767   4.062   2.935   4.591 -0.4817  1.3605  1.3381
 5118TIP3   OH236768   4.293   2.246  16.160  0.0402 -0.2619  0.2196
 5118TIP3    H136769   4.215   2.201  16.192  0.7927  0.0217  2.6744
 5118TIP3    H236770   4.258   2.318  16.107 -1.3946 -0.0965  1.3153
 5119TIP3   OH236771   1.841   0.499   1.308  0.0022  0.1684 -0.0815
 5119TIP3    H136772   1.858   0.490   1.401 -0.8010 -1.7646 -0.0761
 5119TIP3    H236773   1.901   0.438   1.266  0.8711  1.5389 -0.9266
 5120TIP3   OH236774   4.859   5.163   2.317  0.0049  0.2508  0.1408
 5120TIP3    H136775   4.827   5.086   2.363  0.4419  0.4945  0.8756
 5120TIP3    H236776   4.796   5.232   2.340 -0.4849  0.0845 -0.6563
 5121TIP3   OH236777   0.951   1.625  16.492 -0.2148  0.4866 -0.2373
 5121TIP3    H136778   0.893   1.549  16.502  0.2676  0.2929  1.2837
 5121TIP3    H236779   0.956   1.638  16.397 -0.9231 -0.8969 -0.5031
 5122TIP3   OH236780   6.669   2.862  11.121 -0.3018 -0.0484 -0.5564
 5122TIP3    H136781   6.617   2.800  11.171  1.1773 -1.0432 -0.2077
 5122TIP3    H236782   6.665   2.943  11.171 -2.2249  0.1790 -1.0010
 5123TIP3   OH236783   5.294   1.622  12.346 -0.1176  0.5856  0.5403
 5123TIP3    H136784   5.274   1.529  12.334  0.4796  0.6419 -1.2805
 5123TIP3    H236785   5.210   1.663  12.365 -1.3283  0.3016 -3.3418
 5124TIP3   OH236786   5.250   1.973   5.149  0.1445 -0.2600  0.0018
 5124TIP3    H136787   5.186   2.044   5.143 -1.0636 -1.3166  0.0329
 5124TIP3    H236788   5.263   1.945   5.059  0.5662 -0.0444 -0.0040
 5125TIP3   OH236789   1.001   4.366   5.398  0.1718 -0.6375  0.4984
 5125TIP3    H136790   0.972   4.302   5.462  0.5673  0.1537  1.5108
 5125TIP3    H236791   1.089   4.339   5.374 -0.2533 -1.3577 -0.3059
 5126TIP3   OH236792   3.597   1.553  15.943 -0.0102 -0.1188 -0.4645
 5126TIP3    H136793   3.626   1.475  15.897  0.7163 -0.4779  0.5629
 5126TIP3    H236794   3.565   1.611  15.874 -1.2462 -1.5792 -1.1929
 5127TIP3   OH236795   6.282   4.279   3.197 -0.4795 -0.2481 -0.0422
 5127TIP3    H136796   6.339   4.246   3.128 -1.1189 -0.9215 -0.2667
 5127TIP3    H236797   6.254   4.200   3.244 -1.6553  0.0038 -0.2908
 5128TIP3   OH236798   3.460   5.823   5.468  0.3905 -0.2389  0.1136
 5128TIP3    H136799   3.419   5.805   5.552 -0.5940 -2.6660 -0.7767
 5128TIP3    H236800   3.526   5.753   5.459 -1.7741 -2.1779 -2.4473
 5129TIP3   OH236801   2.608   4.716  11.859 -0.2954  0.3901  0.0450
 5129TIP3    H136802   2.686   4.691  11.908 -0.3302 -1.4255 -0.7255
 5129TIP3    H236803   2.535   4.683  11.911 -0.4877  0.8811  0.0951
 5130TIP3   OH236804   2.989   4.421  12.101  0.0179 -0.2895 -0.1196
 5130TIP3    H136805   3.046   4.446  12.029  0.7289  3.1057  1.4194
 5130TIP3    H236806   2.980   4.326  12.093  3.4819 -0.6167 -2.1366
 5131TIP3   OH236807   1.982   3.597   6.375  0.4899  0.0068  0.0429
 5131TIP3    H136808   1.984   3.661   6.446 -0.6339  0.0554  0.0436
 5131TIP3    H236809   2.072   3.597   6.341  0.2552  2.5493 -0.8290
 5132TIP3   OH236810   4.826   5.491   1.292 -0.6700 -0.6832 -0.3547
 5132TIP3    H136811   4.912   5.504   1.252 -1.1305 -0.8604 -1.4563
 5132TIP3    H236812   4.841   5.428   1.362  0.1705 -0.3778 -0.2576
 5133TIP3   OH236813   0.343   0.291  16.216  0.9514  0.8805  0.1098
 5133TIP3    H136814   0.283   0.247  16.156 -0.1195  1.4873  0.7053
 5133TIP3    H236815   0.363   0.374  16.173  2.9009 -0.0646 -0.9722
 5134TIP3   OH236816   0.280   4.382  14.557  0.3602  0.6791  0.1659
 5134TIP3    H136817   0.321   4.305  14.517  2.2438  2.7317 -2.2525
 5134TIP3    H236818   0.347   4.416  14.617 -0.4295  0.5050  1.1673
 5135TIP3   OH236819   2.421   3.970  16.181  0.3450 -0.5190 -0.1680
 5135TIP3    H136820   2.359   4.004  16.117  1.0497  1.7018  0.2369
 5135TIP3    H236821   2.480   3.914  16.129 -0.9941 -1.3577 -0.8316
 5136TIP3   OH236822   3.132   6.408   3.716 -0.2240 -0.0747 -0.3730
 5136TIP3    H136823   3.145   6.411   3.811 -2.4779  0.5077 -0.0192
 5136TIP3    H236824   3.156   6.496   3.686  0.3866 -0.2256 -0.3371
 5137TIP3   OH236825   6.726   3.243   5.048  0.0241  0.1393 -0.2618
 5137TIP3    H136826   6.772   3.311   5.096 -1.4232  0.5065  0.6600
 5137TIP3    H236827   6.689   3.288   4.972 -0.4219  0.2624  0.0248
 5138TIP3   OH236828   5.253   6.680  13.205 -0.4133  0.2613  0.6082
 5138TIP3    H136829   5.337   6.727  13.205  0.5399 -1.2958 -0.7242
 5138TIP3    H236830   5.255   6.626  13.284 -0.1815  0.2730  0.6105
 5139TIP3   OH236831   6.413   5.352  16.698  0.1616 -0.2705 -0.4684
 5139TIP3    H136832   6.507   5.344  16.679  0.5086 -1.5441  1.4579
 5139TIP3    H236833   6.390   5.440  16.669  2.0058  0.1560 -0.7893
 5140TIP3   OH236834   4.459   1.644   3.060 -0.0018  0.5324 -0.1002
 5140TIP3    H136835   4.476   1.654   2.967 -1.2797 -1.0772 -0.5542
 5140TIP3    H236836   4.516   1.572   3.087 -1.2979 -0.5710 -0.1973
 5141TIP3   OH236837   1.496   3.636   6.601 -0.1823 -0.3780  0.2886
 5141TIP3    H136838   1.480   3.553   6.556  0.0751 -0.5175  0.4527
 5141TIP3    H236839   1.588   3.632   6.628 -0.1750 -0.0513  0.3215
 5142TIP3   OH236840   0.302   0.786  10.982  0.1715 -0.5240 -0.5260
 5142TIP3    H136841   0.317   0.790  11.077  0.2134  0.0440 -0.5583
 5142TIP3    H236842   0.214   0.749  10.974  0.3906 -1.1232 -0.2796
 5143TIP3   OH236843   3.034   4.391  14.474  0.0563 -0.0286  0.1308
 5143TIP3    H136844   3.096   4.318  14.468  0.3017  0.1849  0.0609
 5143TIP3    H236845   3.027   4.424  14.384  0.7729  0.7153  0.3399
 5144TIP3   OH236846   1.337   0.225  16.694 -0.5677  0.0275  0.1152
 5144TIP3    H136847   1.428   0.224  16.723 -0.3456  0.4644 -0.5509
 5144TIP3    H236848   1.321   0.316  16.668 -1.2551  0.0017  0.4077
 5145TIP3   OH236849   3.043   1.981  15.624  0.4702 -0.0976 -0.6943
 5145TIP3    H136850   3.127   2.006  15.662 -0.2146 -1.1747  1.7476
 5145TIP3    H236851   3.032   1.889  15.648 -1.5697  0.1102 -0.6308
 5146TIP3   OH236852   0.127   6.485   4.740  0.3457 -0.4766  0.1520
 5146TIP3    H136853   0.118   6.390   4.746 -1.3042 -0.2670  1.9981
 5146TIP3    H236854   0.103   6.517   4.827  0.8069  1.6518 -0.4389
 5147TIP3   OH236855   0.564   3.040   3.705  0.2427  0.5058 -0.3602
 5147TIP3    H136856   0.611   3.071   3.628 -0.0888 -1.2117 -1.2919
 5147TIP3    H236857   0.479   3.084   3.701  1.2569  2.7448  0.7212
 5148TIP3   OH236858   4.665   5.127   2.572 -0.1865 -0.3757  0.9072
 5148TIP3    H136859   4.699   5.182   2.643  2.2728 -0.9620  0.2795
 5148TIP3    H236860   4.686   5.038   2.598 -0.8335 -0.7316  0.2370
 5149TIP3   OH236861   4.769   5.460  11.794  0.3504  0.8466 -0.3495
 5149TIP3    H136862   4.810   5.546  11.795 -1.0107  1.5595 -1.4756
 5149TIP3    H236863   4.762   5.437  11.701 -0.4389  0.0959 -0.1266
 5150TIP3   OH236864   2.628   1.277  11.727 -0.7041  0.5487  0.9097
 5150TIP3    H136865   2.575   1.303  11.803 -2.1238 -4.0147  1.8060
 5150TIP3    H236866   2.571   1.293  11.652 -0.7054  1.8229  1.1685
 5151TIP3   OH236867   0.365   4.479  15.370 -0.6313  0.8630 -0.3880
 5151TIP3    H136868   0.302   4.468  15.299  0.7365  0.3729 -1.5883
 5151TIP3    H236869   0.381   4.573  15.373  0.0099  0.8076 -1.4164
 5152TIP3   OH236870   0.945   0.134  12.255 -0.0806  0.0542  0.1157
 5152TIP3    H136871   0.983   0.216  12.225  0.2386 -0.0937  0.1044
 5152TIP3    H236872   0.891   0.105  12.182  0.7059 -0.3107 -0.3453
 5153TIP3   OH236873   3.520   6.733   3.193 -0.0141  0.5069 -0.2010
 5153TIP3    H136874   3.514   6.659   3.254 -0.0690 -0.5537 -1.4514
 5153TIP3    H236875   3.431   6.742   3.158  0.1611  0.7119 -0.5954
 5154TIP3   OH236876   5.252   4.906   6.532 -0.1475  0.5167 -0.2413
 5154TIP3    H136877   5.206   4.878   6.611 -1.0595  0.2953 -0.8327
 5154TIP3    H236878   5.335   4.941   6.563 -0.5040  0.4458  0.8131
 5155TIP3   OH236879   4.602   0.433  10.904 -0.0728  0.6696 -0.2475
 5155TIP3    H136880   4.664   0.488  10.855 -1.5771  0.9920 -1.8998
 5155TIP3    H236881   4.636   0.432  10.993  1.9666  1.3279 -0.9584
 5156TIP3   OH236882   2.967   5.959  14.494 -0.4574  0.3339 -0.0429
 5156TIP3    H136883   3.035   6.026  14.500  2.1795 -1.8542 -2.5174
 5156TIP3    H236884   2.919   5.981  14.413  0.5898 -0.8023 -1.0111
 5157TIP3   OH236885   5.698   6.364   0.163  0.2390 -0.2825 -0.1861
 5157TIP3    H136886   5.754   6.310   0.107 -3.3014 -2.4153 -2.1086
 5157TIP3    H236887   5.744   6.447   0.171  2.4010 -0.9055 -3.7891
 5158TIP3   OH236888   0.569   4.117   0.135  0.4607 -0.1263  0.3814
 5158TIP3    H136889   0.533   4.084   0.217  0.2983 -0.8457  0.0372
 5158TIP3    H236890   0.552   4.211   0.136 -1.9780 -0.5060 -0.0117
 5159TIP3   OH236891   5.774   3.868   0.579  0.1227  0.6937  0.1875
 5159TIP3    H136892   5.693   3.825   0.552  0.6989 -1.1267  1.2161
 5159TIP3    H236893   5.834   3.854   0.506 -0.7081  2.9734 -1.0589
 5160TIP3   OH236894   3.195   4.322   3.403  0.4430  0.1477  0.2247
 5160TIP3    H136895   3.148   4.380   3.343 -0.8608  1.2621  2.2062
 5160TIP3    H236896   3.251   4.381   3.455  0.4931 -0.5974  1.0431
 5161TIP3   OH236897   2.626   4.670  13.115 -1.1277 -0.1125 -0.0077
 5161TIP3    H136898   2.680   4.591  13.114 -0.6672  0.1952 -1.0636
 5161TIP3    H236899   2.688   4.742  13.109 -1.2811  0.5683  3.8067
 5162TIP3   OH236900   6.582   5.245   5.123 -0.1078 -0.4650  0.1857
 5162TIP3    H136901   6.657   5.195   5.155 -0.2801 -0.3776  0.7482
 5162TIP3    H236902   6.525   5.180   5.083  1.3384 -0.2477 -2.4457
 5163TIP3   OH236903   5.820   0.351   1.475 -0.2638  0.6535 -0.8077
 5163TIP3    H136904   5.776   0.401   1.406  0.2595  1.4473 -0.5761
 5163TIP3    H236905   5.846   0.269   1.432 -2.8413 -0.3118 -0.6923
 5164TIP3   OH236906   6.213   0.184  11.131  0.0999  0.2452  0.5164
 5164TIP3    H136907   6.125   0.220  11.118 -0.1344 -0.3228  0.4583
 5164TIP3    H236908   6.222   0.178  11.226  0.2290  0.6574  0.5335
 5165TIP3   OH236909   1.862   4.845   2.722  0.6749  0.3642  0.4833
 5165TIP3    H136910   1.844   4.816   2.632 -0.0689  3.0020 -0.3108
 5165TIP3    H236911   1.950   4.813   2.740  0.5045 -0.9672 -0.8540
 5166TIP3   OH236912   0.442   1.052  16.569 -0.2900 -0.0956 -0.3629
 5166TIP3    H136913   0.520   1.107  16.563 -0.5168  0.2064 -0.6030
 5166TIP3    H236914   0.370   1.113  16.584 -0.9861  0.0643 -3.4896
 5167TIP3   OH236915   5.877   5.706  13.525 -0.0699 -0.1011 -0.0803
 5167TIP3    H136916   5.802   5.648  13.535  1.0032 -1.2897  1.6031
 5167TIP3    H236917   5.886   5.749  13.610  1.2425 -0.1140 -0.1871
 5168TIP3   OH236918   2.577   1.163  15.837  0.0066  0.6091 -0.0029
 5168TIP3    H136919   2.505   1.223  15.821  0.8259  1.0068 -2.6823
 5168TIP3    H236920   2.625   1.160  15.754  2.6704 -0.1914  1.4425
 5169TIP3   OH236921   3.291   0.791   1.434  0.1295  0.2065 -0.0726
 5169TIP3    H136922   3.254   0.880   1.432 -0.7667 -0.1641 -0.3133
 5169TIP3    H236923   3.306   0.769   1.342  1.0371  0.3796  0.0265
 5170TIP3   OH236924   6.068   1.900  14.739  0.3798 -0.1451  0.7061
 5170TIP3    H136925   6.138   1.839  14.718 -0.2881 -0.8118  0.3493
 5170TIP3    H236926   5.989   1.861  14.700 -0.2871  0.3144  1.5549
 5171TIP3   OH236927   2.434   0.624  13.014 -0.3402  0.3136  0.1097
 5171TIP3    H136928   2.471   0.615  13.102 -0.1796  0.8826  0.1028
 5171TIP3    H236929   2.406   0.715  13.009 -2.8933 -0.3700  0.5793
 5172TIP3   OH236930   0.529   4.677   6.746  0.8996 -0.1976  0.1436
 5172TIP3    H136931   0.603   4.736   6.762  1.7258 -1.8862  3.4749
 5172TIP3    H236932   0.462   4.706   6.808  1.3757 -2.6586  1.9640
 5173TIP3   OH236933   5.551   5.944  17.071 -0.6078 -0.1227  0.2075
 5173TIP3    H136934   5.564   5.902  16.986 -1.2022 -0.6710  0.3801
 5173TIP3    H236935   5.456   5.943  17.084 -0.4798 -0.7600  1.2186
 5174TIP3   OH236936   6.381   0.502  14.466  0.2467 -0.7044 -0.1185
 5174TIP3    H136937   6.451   0.540  14.519 -0.9795 -1.1894  1.9404
 5174TIP3    H236938   6.329   0.577  14.436  0.3346 -0.4881  0.2675
 5175TIP3   OH236939   4.630   2.230  16.791  0.8691 -0.4334  0.0505
 5175TIP3    H136940   4.634   2.230  16.887  0.0830  0.0629  0.0946
 5175TIP3    H236941   4.537   2.245  16.771  1.0448 -0.4069 -0.7924
 5176TIP3   OH236942   3.207   0.976   1.710  0.5562  0.3920 -0.1422
 5176TIP3    H136943   3.116   1.005   1.708  0.9923  2.0440  1.5294
 5176TIP3    H236944   3.201   0.880   1.705 -1.2753  0.4437  0.2248
 5177TIP3   OH236945   6.243   4.184  15.089 -0.3413 -0.1131 -0.2503
 5177TIP3    H136946   6.174   4.249  15.082 -0.3000  0.1248  1.2630
 5177TIP3    H236947   6.202   4.108  15.131  0.5829  0.5755  2.1021
 5178TIP3   OH236948   6.155   1.309   2.801  0.1321  0.2328 -0.3980
 5178TIP3    H136949   6.076   1.258   2.781 -0.5340  1.0439  0.1225
 5178TIP3    H236950   6.166   1.366   2.725  0.7103 -0.4686 -0.8492
 5179TIP3   OH236951   1.499   6.529   2.439  0.0444 -0.0965  0.1748
 5179TIP3    H136952   1.593   6.543   2.446 -0.0400  0.7922 -0.3125
 5179TIP3    H236953   1.479   6.549   2.348 -0.1927 -3.0309 -0.5256
 5180TIP3   OH236954   6.202   4.507  15.643 -0.1494 -0.0761  0.6953
 5180TIP3    H136955   6.110   4.484  15.630 -0.4237  1.9874 -1.9369
 5180TIP3    H236956   6.200   4.584  15.699 -0.0389  0.1637  0.3676
 5181TIP3   OH236957   1.902   0.222  15.788 -0.1893 -0.3079 -0.1509
 5181TIP3    H136958   1.857   0.213  15.704  1.1131 -1.1800 -0.7862
 5181TIP3    H236959   1.930   0.134  15.809 -1.0989 -0.2222  1.5828
 5182TIP3   OH236960   0.006   3.247  16.136  0.7986  0.0639 -0.0116
 5182TIP3    H136961  -0.047   3.310  16.185  2.3584  1.4167  0.0234
 5182TIP3    H236962   0.019   3.288  16.051  2.3009  0.0672  0.2008
 5183TIP3   OH236963   3.392   1.079   0.258  0.0305  0.4260 -0.2361
 5183TIP3    H136964   3.378   1.078   0.353  0.9208 -0.1171 -0.0940
 5183TIP3    H236965   3.343   1.155   0.227 -3.0822 -1.2376  0.1814
 5184TIP3   OH236966   5.218   3.420   4.727 -0.5664 -0.0649 -0.3707
 5184TIP3    H136967   5.302   3.396   4.766 -0.7066  1.1429  0.7508
 5184TIP3    H236968   5.232   3.412   4.633  0.6915 -0.2677 -0.1820
 5185TIP3   OH236969   4.344   0.911   5.372  0.2234  0.3322 -0.1682
 5185TIP3    H136970   4.276   0.979   5.371 -1.1331 -0.9151  1.3883
 5185TIP3    H236971   4.381   0.916   5.460  0.1556 -0.8472 -0.0528
 5186TIP3   OH236972   2.406   1.616   1.693  0.4843  0.2530  0.2776
 5186TIP3    H136973   2.345   1.688   1.706 -0.3987 -0.3043 -0.6461
 5186TIP3    H236974   2.435   1.626   1.602  1.7948  0.5091  0.6982
 5187TIP3   OH236975   1.375   1.841   0.903 -0.6165  0.5183 -0.2974
 5187TIP3    H136976   1.424   1.912   0.943 -1.2378 -0.8894  3.3057
 5187TIP3    H236977   1.283   1.864   0.917 -0.8303 -0.7867  0.6032
 5188TIP3   OH236978   6.226   1.812   0.457  0.3501 -0.6900  0.4938
 5188TIP3    H136979   6.252   1.904   0.445 -0.0584 -0.7528 -1.0573
 5188TIP3    H236980   6.287   1.778   0.522  0.6051  0.6443  0.9809
 5189TIP3   OH236981   2.432   6.339   5.185  0.2089  0.2844 -0.0254
 5189TIP3    H136982   2.428   6.379   5.272 -0.1150 -0.1944  0.1857
 5189TIP3    H236983   2.459   6.248   5.202  0.6069  0.3182 -0.4665
 5190TIP3   OH236984   5.626   1.924   3.834  0.7487 -0.2495  0.5311
 5190TIP3    H136985   5.679   2.003   3.845  0.2841  0.1448 -0.0211
 5190TIP3    H236986   5.575   1.918   3.914  0.1954  0.4634  0.2369
 5191TIP3   OH236987   0.635   0.291   2.028 -0.4351 -0.1894  0.7907
 5191TIP3    H136988   0.619   0.324   2.116  3.2364  0.8467  1.2091
 5191TIP3    H236989   0.667   0.368   1.979 -1.9065 -0.8426 -1.3765
 5192TIP3   OH236990   3.368   1.108  16.308  0.1668 -0.0406  0.6456
 5192TIP3    H136991   3.276   1.129  16.293  0.3460 -0.8542 -2.1547
 5192TIP3    H236992   3.366   1.017  16.341 -0.0626  0.6919  2.8594
 5193TIP3   OH236993   2.914   3.361   2.077  0.3471 -0.1087 -0.0864
 5193TIP3    H136994   2.832   3.316   2.059 -0.4970  1.3299 -0.0445
 5193TIP3    H236995   2.915   3.373   2.172  0.3697  0.2753 -0.1312
 5194TIP3   OH236996   4.264   3.018  10.349 -0.4201 -0.2472  0.3521
 5194TIP3    H136997   4.191   3.003  10.289  0.2137 -0.8610 -0.2958
 5194TIP3    H236998   4.267   3.113  10.360 -0.5321 -0.1165 -0.6163
 5195TIP3   OH236999   3.826   4.048   4.916  0.0120  0.1371 -0.2188
 5195TIP3    H137000   3.900   4.100   4.884  0.2974  0.6337  1.1694
 5195TIP3    H237001   3.855   3.958   4.909  1.5966  0.3679  2.0988
 5196TIP3   OH237002   4.113   4.381  15.702  0.0850 -0.9935 -0.2719
 5196TIP3    H137003   4.174   4.308  15.696 -1.8840 -2.8854  1.1663
 5196TIP3    H237004   4.082   4.379  15.793 -1.1115  0.7522 -0.5914
 5197TIP3   OH237005   3.539   1.706   5.607  0.4289  0.3125  0.1266
 5197TIP3    H137006   3.487   1.786   5.610 -1.3965 -0.5911 -2.7729
 5197TIP3    H237007   3.519   1.661   5.689 -2.9952  0.3219 -0.5542
 5198TIP3   OH237008   6.623   3.430  16.264  0.6563 -0.0708  0.3169
 5198TIP3    H137009   6.546   3.398  16.310 -0.1750  0.7616 -0.4593
 5198TIP3    H237010   6.590   3.496  16.203  2.0690  0.8523  0.4912
 5199TIP3   OH237011   3.103   6.144  13.988  0.3486 -0.0189  0.5446
 5199TIP3    H137012   3.118   6.050  13.983  0.4233  0.0508 -0.6508
 5199TIP3    H237013   3.159   6.182  13.920 -1.2226  0.7019 -0.4070
 5200TIP3   OH237014   2.548   4.290   4.184  0.7369 -0.2526 -0.6127
 5200TIP3    H137015   2.562   4.292   4.090 -0.6881 -3.1057 -0.9988
 5200TIP3    H237016   2.636   4.292   4.222  1.3040  2.3543 -1.8463
 5201TIP3   OH237017   3.905   4.705   2.303 -0.1489 -0.4954  0.1516
 5201TIP3    H137018   3.965   4.754   2.360 -1.1035 -0.4674  1.1704
 5201TIP3    H237019   3.962   4.663   2.239  0.7388  1.5526 -0.4682
 5202TIP3   OH237020   2.033   4.859  16.094 -0.0779  0.2433 -0.2009
 5202TIP3    H137021   2.074   4.796  16.154 -0.7804  0.3835  0.4425
 5202TIP3    H237022   2.044   4.944  16.137 -1.3419  0.2424  0.1716
 5203TIP3   OH237023   3.381   1.170  13.313  0.0169  0.1399  0.5196
 5203TIP3    H137024   3.334   1.235  13.261  0.5801  1.2136  1.3075
 5203TIP3    H237025   3.314   1.104  13.335 -0.4506  0.1800 -0.6869
 5204TIP3   OH237026   1.381   1.161   2.325  0.1609  0.0801 -0.6885
 5204TIP3    H137027   1.427   1.106   2.389  1.4831  0.2866 -1.4341
 5204TIP3    H237028   1.404   1.250   2.349 -3.2034  0.5545  1.4724
 5205TIP3   OH237029   5.354   3.683   1.074 -0.7497  0.4401  0.0946
 5205TIP3    H137030   5.273   3.639   1.051 -0.2877 -0.3323 -0.0694
 5205TIP3    H237031   5.377   3.735   0.996 -0.3110 -0.5022 -0.4170
 5206TIP3   OH237032   3.741   4.750   5.060  0.1646 -0.1500 -0.1230
 5206TIP3    H137033   3.703   4.728   4.975  1.3565 -3.1776  0.0199
 5206TIP3    H237034   3.834   4.759   5.044  0.6608 -2.4259  1.0302
 5207TIP3   OH237035   0.451   4.125  11.898  0.4703 -0.3642 -0.3196
 5207TIP3    H137036   0.531   4.087  11.864  0.1551 -0.5315 -0.8890
 5207TIP3    H237037   0.396   4.050  11.921  0.4411 -0.2519 -0.0162
 5208TIP3   OH237038   5.642   4.796   4.488 -0.0760  0.1529  0.6226
 5208TIP3    H137039   5.698   4.724   4.515  0.6092 -0.1155 -1.3270
 5208TIP3    H237040   5.609   4.833   4.569  1.7927 -0.5815  1.7786
 5209TIP3   OH237041   6.714   1.275  14.061 -0.4439 -0.4045 -0.1276
 5209TIP3    H137042   6.799   1.278  14.015 -0.3812  0.1422  0.0135
 5209TIP3    H237043   6.734   1.240  14.147 -0.3940 -0.4845 -0.1725
 5210TIP3   OH237044   5.207   3.717  14.751 -0.1047  0.4444 -0.3982
 5210TIP3    H137045   5.149   3.793  14.738 -1.5709 -0.8585 -1.9518
 5210TIP3    H237046   5.233   3.722  14.843 -0.2249  2.7565 -0.4283
 5211TIP3   OH237047   2.033   5.646  16.322  0.0595  0.1344  0.1094
 5211TIP3    H137048   2.031   5.616  16.413 -0.0332 -0.6831 -0.1445
 5211TIP3    H237049   2.100   5.591  16.280 -1.1442 -0.7884 -0.7130
 5212TIP3   OH237050   1.732   4.146  12.681 -0.5296  0.6418 -0.1368
 5212TIP3    H137051   1.755   4.122  12.591 -0.7031  1.1774 -0.3234
 5212TIP3    H237052   1.642   4.114  12.692 -0.8620  1.4437 -0.4782
 5213TIP3   OH237053   4.765   4.998   1.493 -0.2125  0.0240 -0.1343
 5213TIP3    H137054   4.793   4.966   1.579 -0.8195 -1.4416 -0.4597
 5213TIP3    H237055   4.692   5.057   1.513  0.7778  1.0920  0.4563
 5214TIP3   OH237056   0.567   2.573  11.238 -0.1597 -0.6065  0.0012
 5214TIP3    H137057   0.575   2.666  11.259  0.8148 -0.8637  0.8457
 5214TIP3    H237058   0.478   2.550  11.262 -0.4306  0.1231 -0.2807
 5215TIP3   OH237059   0.353   2.638   2.000 -0.1733 -0.0114  0.6651
 5215TIP3    H137060   0.320   2.626   1.911 -0.6610  0.1913  0.8130
 5215TIP3    H237061   0.423   2.703   1.991  1.0100 -1.3093  0.1791
 5216TIP3   OH237062   2.795   1.106  17.054 -0.2413  0.2149 -0.1109
 5216TIP3    H137063   2.862   1.165  17.021  0.8992  0.0737  1.8146
 5216TIP3    H237064   2.842   1.024  17.072 -1.2548 -0.4098 -0.1875
 5217TIP3   OH237065   4.011   2.667  16.360  0.0233  0.3189  0.2977
 5217TIP3    H137066   4.004   2.676  16.455 -0.8694 -1.1618  0.3921
 5217TIP3    H237067   3.995   2.755  16.326 -1.1994  0.5605  1.4505
 5218TIP3   OH237068   1.753   5.357   0.720 -0.2229 -0.2441 -0.3306
 5218TIP3    H137069   1.797   5.274   0.704 -1.2449 -1.6351  3.1236
 5218TIP3    H237070   1.677   5.356   0.661 -1.7284 -3.1676  1.3841
 5219TIP3   OH237071   4.446   0.102   0.095 -0.3276 -0.6775  0.2092
 5219TIP3    H137072   4.379   0.101   0.027 -0.4223 -1.6539  0.3084
 5219TIP3    H237073   4.516   0.157   0.059 -0.4059 -1.1170 -0.6370
 5220TIP3   OH237074   0.140   2.771   6.666 -0.0564  0.6557 -0.0070
 5220TIP3    H137075   0.140   2.837   6.736 -1.9791  1.2146 -0.4823
 5220TIP3    H237076   0.071   2.710   6.690  0.6666 -0.3426 -0.3869
 5221TIP3   OH237077   5.446   5.486  15.949 -0.0259  0.4819 -0.5638
 5221TIP3    H137078   5.377   5.430  15.914  0.4587 -1.2836  1.1550
 5221TIP3    H237079   5.442   5.565  15.895 -2.0135 -0.4008 -1.8246
 5222TIP3   OH237080   2.508   5.386   4.814  0.2772  0.0742  0.2336
 5222TIP3    H137081   2.541   5.346   4.895  0.6398 -1.3152 -0.5561
 5222TIP3    H237082   2.419   5.353   4.806  0.2713  0.1394  0.0289
 5223TIP3   OH237083   0.993   1.720   4.530  0.3138  0.0030  0.1455
 5223TIP3    H137084   1.063   1.656   4.542 -0.1154 -0.5419 -0.1997
 5223TIP3    H237085   1.038   1.804   4.517  1.2898 -0.9608 -5.1788
 5224TIP3   OH237086   3.762   3.776   1.259  0.0095  0.2781 -0.0398
 5224TIP3    H137087   3.795   3.705   1.203 -1.4268  0.1762 -0.8061
 5224TIP3    H237088   3.667   3.773   1.247 -0.1848  1.3494  1.1250
 5225TIP3   OH237089   4.005   4.498   2.107  0.0209  0.2259 -0.3694
 5225TIP3    H137090   3.945   4.548   2.050 -1.3275  1.2042  1.7637
 5225TIP3    H237091   4.009   4.411   2.067  0.4745  1.3115 -2.8456
 5226TIP3   OH237092   2.827   1.280   3.301  0.2056 -0.0453 -0.1427
 5226TIP3    H137093   2.747   1.264   3.351  0.1532 -0.0557 -0.2295
 5226TIP3    H237094   2.855   1.368   3.326 -1.4731  1.1991 -2.3332
 5227TIP3   OH237095   1.584   6.650  14.354  0.1443 -0.7057 -0.0721
 5227TIP3    H137096   1.545   6.585  14.412  0.6202 -0.8278  0.1119
 5227TIP3    H237097   1.678   6.642  14.369  0.1778  0.4698  0.4360
 5228TIP3   OH237098   6.055   5.174   5.606  0.2673  0.3447  0.5182
 5228TIP3    H137099   6.129   5.153   5.550 -0.4644  0.8534 -0.6802
 5228TIP3    H237100   6.047   5.269   5.600 -1.6749  0.1490 -1.0020
 5229TIP3   OH237101   2.288   6.209   4.681  0.1335 -0.2967 -0.8176
 5229TIP3    H137102   2.338   6.128   4.688 -1.5298 -1.3764 -0.6351
 5229TIP3    H237103   2.207   6.190   4.729 -0.8745  0.9922 -1.9527
 5230TIP3   OH237104   6.625   6.699   3.704  0.5090 -0.4906  0.3993
 5230TIP3    H137105   6.710   6.735   3.728 -0.5557  1.7431  1.1102
 5230TIP3    H237106   6.643   6.609   3.676  3.1928  0.2141 -0.3494
 5231TIP3   OH237107   4.639   3.457   4.325 -0.2762  0.4408 -0.3188
 5231TIP3    H137108   4.680   3.526   4.274  1.3787 -0.2966 -0.0367
 5231TIP3    H237109   4.687   3.456   4.408 -0.6735 -0.6384 -0.0865
 5232TIP3   OH237110   1.445   5.393   1.646 -0.6997 -0.4294 -0.1217
 5232TIP3    H137111   1.397   5.472   1.672  0.3173  0.3022 -0.4069
 5232TIP3    H237112   1.448   5.396   1.551 -1.2472 -1.1901 -0.1757
 5233TIP3   OH237113   5.839   0.068   0.308 -0.5266 -0.1494  0.2370
 5233TIP3    H137114   5.761   0.090   0.257 -0.7715  0.9858  1.0528
 5233TIP3    H237115   5.907   0.124   0.272  0.0795 -1.4926 -0.8064
 5234TIP3   OH237116   3.343   6.095  16.300  0.1234  0.2372 -0.2279
 5234TIP3    H137117   3.327   6.109  16.206 -2.4697 -0.7096 -0.0189
 5234TIP3    H237118   3.293   6.164  16.343  1.7244  0.9831  0.4863
 5235TIP3   OH237119   5.539   5.988   5.177  0.4160  0.4925 -0.4270
 5235TIP3    H137120   5.583   5.925   5.119 -0.7955 -1.5635  0.7850
 5235TIP3    H237121   5.469   6.026   5.123  1.2140  0.9032 -1.1948
 5236TIP3   OH237122   4.065   4.527  12.858 -0.0834 -0.0615  0.0671
 5236TIP3    H137123   4.118   4.595  12.817 -0.0679 -0.0359  0.1305
 5236TIP3    H237124   4.123   4.485  12.921  0.4497 -1.2860 -1.1823
 5237TIP3   OH237125   3.538   1.090  14.258 -0.1095  0.2152  0.4502
 5237TIP3    H137126   3.541   0.997  14.279  1.0470  0.8169  3.3692
 5237TIP3    H237127   3.449   1.117  14.282 -0.6028 -0.1450 -0.8337
 5238TIP3   OH237128   0.419   1.458   3.528 -0.0938  0.3855  0.4415
 5238TIP3    H137129   0.437   1.527   3.464 -0.7555  0.7971  0.6872
 5238TIP3    H237130   0.430   1.500   3.613 -1.3285  0.4338  0.5971
 5239TIP3   OH237131   4.167   3.282   5.743  0.1554 -0.0374  0.1219
 5239TIP3    H137132   4.169   3.288   5.838  2.9102  2.5233  0.0423
 5239TIP3    H237133   4.217   3.203   5.723 -0.6034 -0.7003  0.7425
 5240TIP3   OH237134   0.930   2.837  15.782  0.1037 -0.6164 -0.0762
 5240TIP3    H137135   0.850   2.785  15.786 -0.0890 -0.2534  1.0448
 5240TIP3    H237136   0.920   2.890  15.703 -0.4679 -1.0535 -0.3025
 5241TIP3   OH237137   0.364   2.236  16.848 -0.2360 -0.5390  0.0563
 5241TIP3    H137138   0.419   2.179  16.793  1.8583  1.9828 -0.6628
 5241TIP3    H237139   0.283   2.246  16.797  0.2329 -1.1189 -0.8451
 5242TIP3   OH237140   2.414   4.795  14.960 -0.5080 -0.1441  0.0585
 5242TIP3    H137141   2.439   4.768  14.872 -1.6584  0.0631 -0.3537
 5242TIP3    H237142   2.392   4.888  14.952  0.0317  0.0515  0.7132
 5243TIP3   OH237143   5.018   0.532   2.299 -0.4452 -0.0438  0.5337
 5243TIP3    H137144   4.937   0.506   2.343 -2.1081 -3.0941 -3.6504
 5243TIP3    H237145   5.004   0.623   2.274 -0.9468  0.6030  2.8992
 5244TIP3   OH237146   2.618   0.498  14.438  0.4770 -0.0395 -0.0021
 5244TIP3    H137147   2.608   0.513  14.344 -1.5627 -3.1812 -0.4221
 5244TIP3    H237148   2.550   0.552  14.478  0.5915  0.4299 -0.4309
 5245TIP3   OH237149   1.417   1.990  14.168  0.1210 -0.4657 -0.3833
 5245TIP3    H137150   1.452   1.926  14.231  0.1500  0.2703  0.3776
 5245TIP3    H237151   1.387   1.937  14.094 -2.0674 -1.6317  1.2011
 5246TIP3   OH237152   0.038   2.771  16.962  0.0256 -0.1251  0.1872
 5246TIP3    H137153  -0.020   2.835  16.920  2.0118  1.8509  0.2409
 5246TIP3    H237154   0.018   2.778  17.055  1.8391  2.3418  0.4969
 5247TIP3   OH237155   4.139   0.481   5.308 -0.0170  0.2340 -0.0144
 5247TIP3    H137156   4.117   0.565   5.267  0.0617 -0.2653 -1.1360
 5247TIP3    H237157   4.150   0.421   5.234  0.6793 -0.5860  0.7293
 5248TIP3   OH237158   0.107   1.944   2.297  0.4877  0.2033  0.6003
 5248TIP3    H137159   0.087   2.026   2.341  1.5521  0.0959  1.3100
 5248TIP3    H237160   0.090   1.877   2.363 -0.4485 -0.1773  0.0033
 5249TIP3   OH237161   6.042   0.701   5.628 -0.1037 -0.1652  0.1229
 5249TIP3    H137162   6.064   0.793   5.614 -0.4241 -0.0445  0.4022
 5249TIP3    H237163   6.029   0.666   5.539  3.2280 -0.7938 -0.2671
 5250TIP3   OH237164   4.334   3.961   5.479 -0.3109 -0.1631 -0.3677
 5250TIP3    H137165   4.414   3.971   5.427  0.7355 -1.3033  0.9419
 5250TIP3    H237166   4.289   3.886   5.439  0.2408 -0.7222  0.0439
 5251TIP3   OH237167   4.426   1.931   2.491  0.5489  0.0662 -0.4578
 5251TIP3    H137168   4.387   1.975   2.416 -2.5225 -0.7445  0.5117
 5251TIP3    H237169   4.408   1.990   2.565  2.1890  0.1497 -0.0917
 5252TIP3   OH237170   2.260   4.952   0.956  0.0471 -0.4520 -0.1480
 5252TIP3    H137171   2.265   5.014   1.028  0.0002  0.0593 -0.5812
 5252TIP3    H237172   2.329   4.979   0.895 -1.2890  0.4634 -1.3279
 5253TIP3   OH237173   1.850   0.801  11.914 -0.0405 -0.4792 -0.1077
 5253TIP3    H137174   1.801   0.771  11.838 -1.5053 -0.2423  0.7146
 5253TIP3    H237175   1.822   0.891  11.927  2.6927  0.6423 -1.2469
 5254TIP3   OH237176   0.782   0.831  12.440 -0.4267 -0.5425  0.1867
 5254TIP3    H137177   0.873   0.813  12.415 -0.4645  0.2741 -0.6186
 5254TIP3    H237178   0.788   0.911  12.494 -0.5209 -1.3594  1.4476
 5255TIP3   OH237179   0.460   2.788   5.797  0.2408  0.3560  0.0445
 5255TIP3    H137180   0.488   2.744   5.877  2.6026  1.1538 -0.2657
 5255TIP3    H237181   0.460   2.719   5.731 -0.3721 -0.0269  0.4321
 5256TIP3   OH237182   3.233   4.427  11.933  0.0939  0.3839 -0.7835
 5256TIP3    H137183   3.241   4.471  11.848 -0.9009  0.1350 -1.0165
 5256TIP3    H237184   3.193   4.343  11.913 -1.6707  0.9614  0.0828
 5257TIP3   OH237185   4.446   3.596  17.032  0.1179 -0.2913  0.4668
 5257TIP3    H137186   4.446   3.690  17.051 -0.5927 -0.2148  0.1247
 5257TIP3    H237187   4.520   3.584  16.974 -0.0731  0.1463  0.1236
 5258TIP3   OH237188   1.611   2.947  11.469 -0.2060 -0.6150 -0.3737
 5258TIP3    H137189   1.636   2.950  11.561 -2.3152  1.7238  0.2327
 5258TIP3    H237190   1.538   2.886  11.466  0.1078 -0.9810 -0.5666
 5259TIP3   OH237191   3.748   4.484   1.122 -0.4682  0.5451  1.0583
 5259TIP3    H137192   3.802   4.456   1.048  0.7351  1.0662  1.7069
 5259TIP3    H237193   3.811   4.517   1.186 -1.5454  0.8302  1.9986
 5260TIP3   OH237194   0.499   3.781   0.615  0.0023  0.1526  0.2465
 5260TIP3    H137195   0.498   3.876   0.626  0.1245  0.4510 -1.8360
 5260TIP3    H237196   0.418   3.761   0.568  0.1306 -0.7257  0.3778
 5261TIP3   OH237197   5.572   4.711  12.702 -0.1098  0.2010  0.0049
 5261TIP3    H137198   5.568   4.721  12.607  0.4109  0.1478 -0.0274
 5261TIP3    H237199   5.663   4.686  12.719 -0.1267  0.4934  0.5412
 5262TIP3   OH237200   4.803   6.484  15.001  0.5204  0.3141 -0.1147
 5262TIP3    H137201   4.717   6.516  15.027  0.9870  1.8764 -0.3898
 5262TIP3    H237202   4.862   6.512  15.071  1.3282  2.1601 -1.4692
 5263TIP3   OH237203   3.639   0.081  13.523  0.2365 -0.9734 -0.0205
 5263TIP3    H137204   3.671   0.111  13.438 -0.6833 -1.3088 -0.4951
 5263TIP3    H237205   3.644  -0.015  13.517  0.2544 -0.9951  0.3394
 5264TIP3   OH237206   1.119   6.539   2.028  0.1968  0.2683  0.0177
 5264TIP3    H137207   1.211   6.535   2.054 -0.1668 -0.1430  1.3160
 5264TIP3    H237208   1.119   6.513   1.936  1.0520 -3.4471  0.8695
 5265TIP3   OH237209   3.413   0.946   5.916  0.3103 -0.1036  0.1531
 5265TIP3    H137210   3.378   0.871   5.868  0.9632 -0.1586 -0.2431
 5265TIP3    H237211   3.352   0.958   5.989  0.8486 -1.7938  0.9383
 5266TIP3   OH237212   3.173   2.381  15.669  0.0145 -0.6748  0.1445
 5266TIP3    H137213   3.234   2.450  15.643  0.5408 -0.8367  0.8999
 5266TIP3    H237214   3.111   2.424  15.727  0.9936 -1.0383  1.5002
 5267TIP3   OH237215   4.355   0.537  10.962  0.3111 -0.2075  0.5007
 5267TIP3    H137216   4.284   0.484  10.926  0.3311 -0.4024  0.7465
 5267TIP3    H237217   4.433   0.509  10.913  0.3143 -0.3799  0.6025
 5268TIP3   OH237218   0.511   6.549   3.827  0.2887 -0.4703 -0.3469
 5268TIP3    H137219   0.540   6.495   3.753  1.7845 -2.1738  1.3851
 5268TIP3    H237220   0.423   6.517   3.847 -0.9701  1.3479 -2.5224
 5269TIP3   OH237221   0.990   1.892  11.344  0.9028  0.4289  0.0162
 5269TIP3    H137222   1.057   1.859  11.403  1.7683  0.9410 -0.6697
 5269TIP3    H237223   0.935   1.948  11.399  1.0774  0.0758  0.5579
 5270TIP3   OH237224   1.977   0.956  16.280  0.6631  0.1775  0.4529
 5270TIP3    H137225   1.973   0.867  16.243  0.9797 -0.1421  1.1650
 5270TIP3    H237226   1.887   0.975  16.304  0.8012 -0.5452  1.6277
 5271TIP3   OH237227   4.005   0.013  12.654  0.6510  0.2104 -0.1436
 5271TIP3    H137228   4.048   0.040  12.735 -1.7407 -0.4924  1.4315
 5271TIP3    H237229   4.030  -0.079  12.644 -1.7680 -0.7528  1.7728
 5272TIP3   OH237230   1.894   6.598  14.253  0.1129  0.5786 -0.0580
 5272TIP3    H137231   1.900   6.559  14.166  1.8019  1.3212 -0.3240
 5272TIP3    H237232   1.981   6.583  14.292 -0.3598  0.9407  1.2045
 5273TIP3   OH237233   6.162   2.186  12.891  0.1765 -0.5208  0.4379
 5273TIP3    H137234   6.188   2.183  12.799 -1.7361 -0.2610 -0.1575
 5273TIP3    H237235   6.152   2.279  12.910  0.5051 -0.5790  0.8914
 5274TIP3   OH237236   3.505   3.056  12.062 -0.3318  0.2226 -0.0810
 5274TIP3    H137237   3.579   3.006  12.025 -0.3205  0.9964 -1.1330
 5274TIP3    H237238   3.436   3.049  11.996 -0.6500  0.8217  0.1856
 5275TIP3   OH237239   2.310   2.683   1.746 -0.0619  0.1493  0.9080
 5275TIP3    H137240   2.298   2.612   1.808 -0.2237 -2.1812 -1.6159
 5275TIP3    H237241   2.242   2.747   1.768 -3.2657 -2.7610  0.3032
 5276TIP3   OH237242   4.235   5.996   3.017  0.2250 -0.1877  0.5897
 5276TIP3    H137243   4.169   5.938   2.979 -0.0253 -1.4256  2.7612
 5276TIP3    H237244   4.285   6.027   2.942 -1.0498 -1.4520 -0.8588
 5277TIP3   OH237245   1.853   5.617   2.139  0.2386 -0.3406  0.0050
 5277TIP3    H137246   1.821   5.542   2.089 -1.5801  0.0842  0.4467
 5277TIP3    H237247   1.841   5.591   2.231 -1.9424  1.0011  0.1831
 5278TIP3   OH237248   2.724   5.623  12.634 -0.0151  0.4373 -0.1386
 5278TIP3    H137249   2.767   5.559  12.578  0.4295  0.5215  0.1045
 5278TIP3    H237250   2.646   5.578  12.666  1.0934 -0.5590  1.2870
 5279TIP3   OH237251   2.414   5.117  15.557 -0.3419  0.5266 -0.5489
 5279TIP3    H137252   2.454   5.082  15.477  1.1967  0.3756  0.2424
 5279TIP3    H237253   2.463   5.197  15.574 -1.6250  1.3185 -0.5293
 5280TIP3   OH237254   2.130   1.029   3.388 -0.4430  0.3419  0.5056
 5280TIP3    H137255   2.110   0.938   3.366  0.3768  0.6280 -1.6219
 5280TIP3    H237256   2.225   1.030   3.402 -0.2990  1.0328 -0.4540
 5281TIP3   OH237257   0.845   0.599  11.826  0.2022  0.6016 -0.0572
 5281TIP3    H137258   0.812   0.573  11.912 -0.4023  0.2045 -0.4008
 5281TIP3    H237259   0.766   0.612  11.773  0.5806  0.3580 -0.6941
 5282TIP3   OH237260   0.412   1.928   4.521 -0.2048 -0.4403  0.3020
 5282TIP3    H137261   0.448   1.851   4.477  3.1430  1.9654 -1.6327
 5282TIP3    H237262   0.460   1.934   4.604  0.2398 -0.0109  0.0265
 5283TIP3   OH237263   5.027   2.511  16.180  0.5025 -0.5068 -0.4399
 5283TIP3    H137264   5.038   2.601  16.211  2.1886 -0.6713 -0.4821
 5283TIP3    H237265   4.949   2.514  16.124 -1.2903  0.2872  1.8995
 5284TIP3   OH237266   6.449   4.768  10.822 -0.4433 -0.2267 -0.3112
 5284TIP3    H137267   6.452   4.842  10.883  0.0521 -0.3693 -0.1585
 5284TIP3    H237268   6.474   4.806  10.738  0.0927 -0.2659 -0.1780
 5285TIP3   OH237269   1.829   5.477   3.904  0.3190 -0.2669 -0.0439
 5285TIP3    H137270   1.913   5.492   3.861 -0.1359 -0.0995 -0.8846
 5285TIP3    H237271   1.786   5.411   3.851  0.1398 -0.7649  0.7022
 5286TIP3   OH237272   0.374   0.553  11.435 -0.0900 -0.4386  0.1568
 5286TIP3    H137273   0.347   0.496  11.507 -2.1935 -0.5396 -0.6282
 5286TIP3    H237274   0.292   0.575  11.390  0.7604  2.2959 -0.2577
 5287TIP3   OH237275   4.289   0.352  15.797  0.3255 -0.0054 -0.0890
 5287TIP3    H137276   4.260   0.443  15.785 -0.5747 -0.3172 -0.3843
 5287TIP3    H237277   4.256   0.327  15.883 -0.5547 -0.4571 -0.5491
 5288TIP3   OH237278   2.521   6.030  13.506  0.1700 -0.1500 -0.4279
 5288TIP3    H137279   2.564   5.949  13.478  1.0459  0.1008  0.1435
 5288TIP3    H237280   2.593   6.090  13.525 -0.3534 -0.1197  1.7850
 5289TIP3   OH237281   5.765   2.251   6.183 -0.4258 -0.1962  0.3135
 5289TIP3    H137282   5.706   2.303   6.238 -1.1947 -1.3208  0.5710
 5289TIP3    H237283   5.710   2.217   6.113  0.5292  1.1567 -1.1689
 5290TIP3   OH237284   0.651   4.148   0.937 -0.3789 -0.3786  0.2014
 5290TIP3    H137285   0.745   4.158   0.922 -0.4928 -1.5339 -1.5914
 5290TIP3    H237286   0.639   4.054   0.950 -1.4127 -0.4391 -0.9342
 5291TIP3   OH237287   1.491   6.459  14.517  0.1133  0.1215  0.5424
 5291TIP3    H137288   1.569   6.405  14.521  0.4691  0.5974  0.2145
 5291TIP3    H237289   1.418   6.397  14.520  0.5099 -0.5155 -1.4739
 5292TIP3   OH237290   4.674   1.686   1.133  0.0775  0.1056  0.1368
 5292TIP3    H137291   4.684   1.598   1.098 -0.2172  0.0330  0.2339
 5292TIP3    H237292   4.599   1.680   1.193 -1.1571  0.8288 -1.2584
 5293TIP3   OH237293   3.475   4.256  15.214 -0.2438 -0.1483  0.0885
 5293TIP3    H137294   3.466   4.351  15.221 -0.0725 -0.1989  1.2331
 5293TIP3    H237295   3.432   4.222  15.292  1.3655 -0.8995  0.6809
 5294TIP3   OH237296   5.150   1.149   0.928  0.1366 -0.6725  0.3218
 5294TIP3    H137297   5.143   1.146   0.833 -2.1349 -0.2293  0.4190
 5294TIP3    H237298   5.142   1.057   0.955  0.2559 -0.7435  0.1185
 5295TIP3   OH237299   2.453   5.410  15.341 -0.0581  0.0025 -0.1261
 5295TIP3    H137300   2.474   5.325  15.302  1.1362  1.4500 -2.8517
 5295TIP3    H237301   2.514   5.418  15.415  0.4306 -1.1255 -0.3862
 5296TIP3   OH237302   1.005   3.662   4.418 -0.0940  0.0110 -0.0554
 5296TIP3    H137303   1.012   3.747   4.462 -2.9147 -0.2413  1.1561
 5296TIP3    H237304   1.081   3.613   4.448 -0.6183  0.7131  2.7487
 5297TIP3   OH237305   2.687   2.992   0.453  0.3866 -0.9173 -0.4834
 5297TIP3    H137306   2.674   2.903   0.486  0.0180 -0.4370  0.7380
 5297TIP3    H237307   2.725   2.981   0.366  0.6647 -2.2616 -0.2074
 5298TIP3   OH237308   2.922   3.233  14.345  0.0039 -0.3172  0.0874
 5298TIP3    H137309   2.951   3.290  14.273 -1.2902 -0.5501 -0.6559
 5298TIP3    H237310   2.990   3.166  14.350 -0.0852 -0.5513 -1.2488
 5299TIP3   OH237311   3.981   0.742   2.415  0.0345 -0.2094  0.3429
 5299TIP3    H137312   4.035   0.760   2.491  1.7879 -0.8231 -0.6925
 5299TIP3    H237313   4.033   0.681   2.362 -2.5317 -2.4969  0.2270
 5300TIP3   OH237314   4.011   4.167   4.591 -0.2692 -0.0820  0.1743
 5300TIP3    H137315   4.059   4.209   4.662 -0.7114  2.8008 -1.0908
 5300TIP3    H237316   4.072   4.104   4.554  0.8583  0.2070  1.4803
 5301TIP3   OH237317   0.359   3.477   3.136  0.1381  0.1894 -0.1143
 5301TIP3    H137318   0.340   3.543   3.069 -1.2647 -0.7794 -0.7352
 5301TIP3    H237319   0.320   3.512   3.216 -0.3010  0.2961 -0.3680
 5302TIP3   OH237320   1.606   0.115  14.692 -0.1749  0.1498  0.2206
 5302TIP3    H137321   1.518   0.079  14.702 -0.1984  0.2447  0.3475
 5302TIP3    H237322   1.662   0.038  14.684 -0.2446  0.0859  0.3390
 5303TIP3   OH237323   6.376   5.120  15.123 -0.3660 -0.8654  0.1494
 5303TIP3    H137324   6.351   5.090  15.036  0.0981  0.3647 -0.4236
 5303TIP3    H237325   6.340   5.208  15.130  0.8864 -0.3677  0.5939
 5304TIP3   OH237326   4.180   5.044   3.956 -0.0309 -0.2526  0.2724
 5304TIP3    H137327   4.161   4.955   3.927 -0.5142 -0.5757  1.5334
 5304TIP3    H237328   4.235   5.081   3.886  0.2661 -1.5639 -0.2072
 5305TIP3   OH237329   0.115   4.067   5.459  0.0459  0.2484 -0.6918
 5305TIP3    H137330   0.028   4.094   5.431 -0.8307 -0.6318  1.0119
 5305TIP3    H237331   0.112   4.074   5.555  1.8878  0.2829 -0.5963
 5306TIP3   OH237332   0.304   2.287  11.696  0.3753  0.2002  0.3855
 5306TIP3    H137333   0.332   2.269  11.786 -1.9820  1.1557  1.3856
 5306TIP3    H237334   0.239   2.219  11.677  0.7937  0.0595 -0.5933
 5307TIP3   OH237335   1.800   6.259  13.825 -0.3839 -0.0370 -0.0837
 5307TIP3    H137336   1.874   6.238  13.767  0.7299  2.0723  0.4526
 5307TIP3    H237337   1.730   6.284  13.766  0.7381  2.0835 -0.6457
 5308TIP3   OH237338   0.761   6.151  16.861  0.2283 -0.2863 -0.5462
 5308TIP3    H137339   0.779   6.241  16.887 -1.4066 -0.5733  1.8128
 5308TIP3    H237340   0.793   6.098  16.934 -1.0500 -1.4363 -0.7844
 5309TIP3   OH237341   2.317   0.855   5.524  0.5228 -0.2485 -0.0995
 5309TIP3    H137342   2.376   0.856   5.449  0.7173  1.5299  0.0487
 5309TIP3    H237343   2.251   0.921   5.504 -0.8658 -1.4930  0.2013
 5310TIP3   OH237344   2.094   1.268  13.437  0.5130  0.0166 -0.1363
 5310TIP3    H137345   2.130   1.288  13.350  1.9816 -0.1963  0.3920
 5310TIP3    H237346   2.007   1.309  13.437  0.9395  0.9908 -1.3091
 5311TIP3   OH237347   0.544   0.397   4.521  0.0486 -1.1221  0.2356
 5311TIP3    H137348   0.500   0.319   4.488  3.2310 -3.1213  0.2710
 5311TIP3    H237349   0.532   0.462   4.452 -0.9069 -2.3369 -0.7912
 5312TIP3   OH237350   4.285   4.368   0.527  0.3152  0.6831  0.1955
 5312TIP3    H137351   4.268   4.277   0.501 -0.8519  0.7725  0.6009
 5312TIP3    H237352   4.350   4.361   0.597  0.1017  0.1439  0.3483
 5313TIP3   OH237353   2.585   5.572   3.305  0.3713 -0.1641  0.2283
 5313TIP3    H137354   2.653   5.526   3.257  0.2657 -2.4875  2.0678
 5313TIP3    H237355   2.505   5.556   3.255  0.8916  1.2395 -1.1036
 5314TIP3   OH237356   3.449   6.531  16.010  0.0425  0.6685 -0.3672
 5314TIP3    H137357   3.471   6.440  15.988  0.4687  0.6948 -0.0459
 5314TIP3    H237358   3.533   6.577  16.010  0.4088  0.2922  3.2482
 5315TIP3   OH237359   3.326   4.202  14.991 -0.3231  0.6731 -0.1623
 5315TIP3    H137360   3.318   4.287  14.948  0.7968  1.2639  0.7438
 5315TIP3    H237361   3.408   4.207  15.040 -0.4752 -0.7613  0.3032
 5316TIP3   OH237362   4.206   6.473   5.059 -0.1224  0.6198 -0.3137
 5316TIP3    H137363   4.253   6.456   5.140  0.2420 -0.2507 -0.6962
 5316TIP3    H237364   4.247   6.552   5.023  0.2093  0.5811 -0.0228
 5317TIP3   OH237365   5.633   6.537   4.340 -0.0407 -0.4090 -0.3359
 5317TIP3    H137366   5.718   6.562   4.375  0.0531 -0.5669 -0.4513
 5317TIP3    H237367   5.652   6.488   4.260 -0.2839  0.8832 -1.2223
 5318TIP3   OH237368   4.178   0.756  13.800 -0.5278 -0.4853  0.1770
 5318TIP3    H137369   4.272   0.767  13.813 -0.8704 -0.2210  2.9355
 5318TIP3    H237370   4.147   0.843  13.776  0.0182 -0.7801 -1.7478
 5319TIP3   OH237371   0.737   1.083   0.407 -0.0466 -0.1606 -1.1550
 5319TIP3    H137372   0.700   1.021   0.345 -3.4493 -0.6574  1.0833
 5319TIP3    H237373   0.767   1.028   0.480 -0.0155  0.5996 -0.5852
 5320TIP3   OH237374   2.198   2.964   6.547  0.4946 -0.2243  0.3435
 5320TIP3    H137375   2.226   2.946   6.637  0.6612 -1.6281  0.0426
 5320TIP3    H237376   2.249   2.902   6.494 -0.3120 -0.0897 -0.6143
 5321TIP3   OH237377   5.495   3.731   3.348 -0.0907  0.7639 -0.0142
 5321TIP3    H137378   5.493   3.787   3.271  0.5566  0.7345 -0.0637
 5321TIP3    H237379   5.467   3.787   3.420 -0.9154  0.7309 -0.3032
 5322TIP3   OH237380   1.783   1.194  14.616  0.0495 -0.1685 -0.1205
 5322TIP3    H137381   1.722   1.260  14.649  0.8503  0.6535 -0.2539
 5322TIP3    H237382   1.817   1.151  14.695  0.4510  0.4260  0.0354
 5323TIP3   OH237383   2.464   0.065  12.432 -0.4361 -0.2121 -0.1661
 5323TIP3    H137384   2.398   0.116  12.384 -2.4508 -0.6888  1.9429
 5323TIP3    H237385   2.489   0.122  12.505 -0.7724 -1.1867  0.7339
 5324TIP3   OH237386   1.609   4.333   2.339  0.2256 -0.1823  0.0874
 5324TIP3    H137387   1.621   4.313   2.246  1.2656  0.2898  0.1061
 5324TIP3    H237388   1.540   4.273   2.368 -0.7039  0.2262 -1.1798
 5325TIP3   OH237389   1.240   4.493  11.505 -0.7430 -0.4960  0.0010
 5325TIP3    H137390   1.310   4.462  11.447 -0.8249 -1.6398  0.4973
 5325TIP3    H237391   1.281   4.562  11.557  0.3954 -1.9631  1.1322
 5326TIP3   OH237392   3.992   4.521  14.647 -0.2519 -0.0250  0.8726
 5326TIP3    H137393   4.031   4.466  14.714  0.7047  1.8064  1.9106
 5326TIP3    H237394   3.956   4.596  14.695  0.3416  1.2772 -0.6130
 5327TIP3   OH237395   3.472   6.363   1.100  0.4282  0.6746  0.3628
 5327TIP3    H137396   3.510   6.419   1.032 -0.7594  1.9803  0.7154
 5327TIP3    H237397   3.388   6.404   1.121 -1.0157 -1.8348 -0.0768
 5328TIP3   OH237398   3.735   5.045  13.351 -0.4459 -0.0439 -0.0865
 5328TIP3    H137399   3.748   5.137  13.328 -0.8683 -0.1050 -0.5675
 5328TIP3    H237400   3.700   5.005  13.272 -0.1774 -0.6413  0.0947
 5329TIP3   OH237401   4.292   0.711   3.793  0.2235  0.4405  0.5358
 5329TIP3    H137402   4.346   0.656   3.850 -0.6093  0.0084  0.9256
 5329TIP3    H237403   4.284   0.661   3.711  3.4379  2.0987 -0.9870
 5330TIP3   OH237404   6.125   4.517   1.885 -0.0953  0.3475  0.8194
 5330TIP3    H137405   6.071   4.549   1.957 -2.3065 -3.1424  0.9732
 5330TIP3    H237406   6.181   4.450   1.926  1.2103  0.8090 -0.1328
 5331TIP3   OH237407   2.631   0.102  15.990  0.2256  0.4078 -0.8561
 5331TIP3    H137408   2.613   0.014  16.024  1.7122  0.6957  0.7896
 5331TIP3    H237409   2.680   0.086  15.909 -1.0499 -0.2584 -1.5370
 5332TIP3   OH237410   3.751   2.608   1.421 -0.4336  0.4494 -0.3199
 5332TIP3    H137411   3.786   2.614   1.332 -0.6560 -1.9351 -0.6416
 5332TIP3    H237412   3.783   2.687   1.465  2.2557  0.2153 -1.6437
 5333TIP3   OH237413   3.525   0.131  11.565 -0.0726 -0.9767  0.0055
 5333TIP3    H137414   3.535   0.084  11.482 -1.3753 -1.0129 -0.1585
 5333TIP3    H237415   3.574   0.212  11.554  0.0846 -1.1602 -0.6507
 5334TIP3   OH237416   2.462   4.530  10.628 -0.4947 -0.0101  0.1373
 5334TIP3    H137417   2.399   4.491  10.567  0.7832 -0.3321 -1.0037
 5334TIP3    H237418   2.495   4.608  10.583 -0.2048  0.2728  0.8158
 5335TIP3   OH237419   5.662   4.092   4.902 -0.2499 -0.2139  0.2878
 5335TIP3    H137420   5.641   4.141   4.823 -0.2484  0.7473  0.8640
 5335TIP3    H237421   5.617   4.008   4.891 -0.7563  0.1425 -0.4603
 5336TIP3   OH237422   0.397   0.527   1.797  0.0821 -0.2923  0.1972
 5336TIP3    H137423   0.370   0.609   1.839 -2.5201 -0.9738  0.0016
 5336TIP3    H237424   0.378   0.459   1.862 -0.7589 -1.0291 -0.8015
 5337TIP3   OH237425   4.661   4.445   0.184  0.2841  0.5217 -0.3018
 5337TIP3    H137426   4.620   4.392   0.252 -0.7518  0.2990 -1.0748
 5337TIP3    H237427   4.722   4.385   0.140 -0.7473 -0.0056 -1.0529
 5338TIP3   OH237428   4.725   0.509   1.800 -0.8597  0.0025  0.2323
 5338TIP3    H137429   4.777   0.576   1.755  0.5685 -1.4309 -0.3596
 5338TIP3    H237430   4.642   0.508   1.752 -0.8662  1.2318  0.1670
 5339TIP3   OH237431   3.564   4.824   4.304  0.6810  0.2183  0.0633
 5339TIP3    H137432   3.503   4.803   4.232  1.3467  1.3745 -0.8801
 5339TIP3    H237433   3.650   4.800   4.269  0.8934 -0.4094  0.9891
 5340TIP3   OH237434   1.114   1.944  12.239 -0.2301 -0.2078  0.2723
 5340TIP3    H137435   1.089   1.858  12.205  0.0986  0.1973 -1.0648
 5340TIP3    H237436   1.203   1.933  12.270 -0.2345 -0.3820  0.2215
 5341TIP3   OH237437   3.392   0.378  12.437  0.3072 -0.3718 -0.2097
 5341TIP3    H137438   3.373   0.442  12.369  0.3426 -0.4163 -0.2611
 5341TIP3    H237439   3.465   0.417  12.487 -2.0491  1.4327  2.1115
 5342TIP3   OH237440   6.449   3.036  12.240 -0.2868 -0.3952  0.3324
 5342TIP3    H137441   6.543   3.029  12.258 -0.1073 -1.0121 -0.7859
 5342TIP3    H237442   6.425   3.124  12.271  0.3487 -0.7407  1.9040
 5343TIP3   OH237443   3.584   5.243   2.895  0.7848  0.0794 -0.5415
 5343TIP3    H137444   3.559   5.185   2.968  0.7771  0.8424  0.0762
 5343TIP3    H237445   3.552   5.199   2.817  0.7902 -0.7574 -0.0824
 5344TIP3   OH237446   4.182   3.426  15.843 -0.1801  0.4263  0.0766
 5344TIP3    H137447   4.136   3.477  15.910  1.7289  1.6243  0.5431
 5344TIP3    H237448   4.220   3.352  15.891 -1.8659 -0.8324 -0.3877
 5345TIP3   OH237449   2.947   0.288  16.624  0.1068 -0.3402  1.1307
 5345TIP3    H137450   2.861   0.307  16.661 -0.1277  0.7815  0.0599
 5345TIP3    H237451   2.999   0.365  16.644  0.0593  0.1556 -0.5740
 5346TIP3   OH237452   5.801   6.112  11.940 -0.5454 -0.1855 -1.2027
 5346TIP3    H137453   5.790   6.025  11.978 -0.3886  0.5698  0.7020
 5346TIP3    H237454   5.716   6.131  11.899 -0.4486 -1.3766 -1.9927
 5347TIP3   OH237455   5.623   2.196  11.668  0.1290  0.0957  0.2473
 5347TIP3    H137456   5.598   2.267  11.609 -1.1106 -0.5068  0.0113
 5347TIP3    H237457   5.674   2.136  11.613 -0.7472 -0.3043 -0.1383
 5348TIP3   OH237458   0.715   3.539  16.896  0.6965  0.3974 -0.2927
 5348TIP3    H137459   0.687   3.630  16.909 -1.1328 -0.2154  0.3878
 5348TIP3    H237460   0.678   3.514  16.812 -2.8152 -1.0487  1.5074
 5349TIP3   OH237461   0.278   6.238   0.256  0.1339  0.3117  0.1080
 5349TIP3    H137462   0.294   6.218   0.163 -0.1933 -0.0947  0.1352
 5349TIP3    H237463   0.365   6.261   0.290  0.4853 -0.7357 -0.0173
 5350TIP3   OH237464   2.992   6.183   2.721 -0.1257 -0.1460 -0.9469
 5350TIP3    H137465   2.929   6.119   2.688 -1.1524  1.4765 -2.3324
 5350TIP3    H237466   3.076   6.138   2.720 -1.0565 -2.0137 -0.1491
 5351TIP3   OH237467   1.345   4.263   3.165  0.5887 -0.0315  0.0483
 5351TIP3    H137468   1.274   4.311   3.207  1.4036  1.8896 -0.6727
 5351TIP3    H237469   1.354   4.303   3.078  1.3235 -1.4843 -0.5893
 5352TIP3   OH237470   5.798   5.971   2.286 -0.7322  0.0952  0.5425
 5352TIP3    H137471   5.791   6.007   2.374  0.4345 -0.5014  0.9050
 5352TIP3    H237472   5.842   5.886   2.298 -0.2085  0.1766 -0.6422
 5353TIP3   OH237473   6.016   6.163   3.483  0.3756 -0.2952 -0.0659
 5353TIP3    H137474   5.984   6.168   3.573  2.5128  3.4591  0.6997
 5353TIP3    H237475   6.103   6.124   3.490  0.4008 -0.3398 -0.5696
 5354TIP3   OH237476   5.843   1.904   6.472 -0.0624 -0.3694 -1.0002
 5354TIP3    H137477   5.793   1.864   6.543 -0.4873 -0.9406 -1.6168
 5354TIP3    H237478   5.841   1.998   6.491  0.8579 -0.6034  0.4066
 5355TIP3   OH237479   6.776   2.505  12.157 -0.4287 -0.4369  0.4387
 5355TIP3    H137480   6.732   2.479  12.237 -0.4874  1.3086  1.0144
 5355TIP3    H237481   6.710   2.494  12.088 -1.2781  0.5739  1.0526
 5356TIP3   OH237482   2.246   3.360  13.916 -0.1238 -0.0159  0.0242
 5356TIP3    H137483   2.163   3.407  13.915  0.9589  2.0348  0.3894
 5356TIP3    H237484   2.229   3.279  13.868 -1.7419  1.3927 -1.9293
 5357TIP3   OH237485   4.416   3.191   1.124 -0.0326  0.5779  0.2356
 5357TIP3    H137486   4.365   3.270   1.140  0.0198  0.4680  1.0188
 5357TIP3    H237487   4.355   3.119   1.139 -0.5803  0.4435 -2.2248
 5358TIP3   OH237488   2.712   5.310  14.944  0.3330 -0.1065 -0.3913
 5358TIP3    H137489   2.771   5.236  14.929  1.7385  0.8569  0.1902
 5358TIP3    H237490   2.763   5.387  14.920 -0.7591  0.7627 -0.0211
 5359TIP3   OH237491   1.405   5.768   0.639 -0.2906 -0.1466 -0.2184
 5359TIP3    H137492   1.315   5.801   0.642  0.2285  1.2679  2.1902
 5359TIP3    H237493   1.458   5.841   0.672  1.5568 -1.5749  0.0859
 5360TIP3   OH237494   5.709   5.608   0.122 -0.9514 -0.1325  0.7695
 5360TIP3    H137495   5.616   5.603   0.147 -0.8359  0.8849  1.4227
 5360TIP3    H237496   5.709   5.662   0.043 -1.0778 -1.5567 -0.2498
 5361TIP3   OH237497   6.004   1.184   1.961 -0.4036  0.1168  0.2324
 5361TIP3    H137498   5.957   1.146   2.035  0.6854  1.8256  1.9095
 5361TIP3    H237499   6.010   1.278   1.982 -0.6415  0.7965 -2.3711
 5362TIP3   OH237500   5.518   0.919  11.753  0.7852 -0.0982  0.3745
 5362TIP3    H137501   5.442   0.961  11.712  1.0659 -1.2309 -1.3834
 5362TIP3    H237502   5.593   0.945  11.699  1.6008  0.5537  1.7675
 5363TIP3   OH237503   0.819   2.484  11.875 -0.0153  0.2434 -0.0907
 5363TIP3    H137504   0.801   2.412  11.815  1.1675  1.3498 -1.8356
 5363TIP3    H237505   0.769   2.557  11.840  0.5898  0.8710  0.3394
 5364TIP3   OH237506   2.728   1.707   1.395  0.0709  0.2755  0.3099
 5364TIP3    H137507   2.756   1.711   1.487 -1.3548  1.7236  0.7310
 5364TIP3    H237508   2.641   1.668   1.398  0.3345 -0.4032 -0.5328
 5365TIP3   OH237509   0.680   1.168  15.615  0.5417  0.1510 -0.4226
 5365TIP3    H137510   0.700   1.201  15.528  0.1432  0.0531 -0.5566
 5365TIP3    H237511   0.728   1.085  15.621  1.3472  0.6241 -0.1749
 5366TIP3   OH237512   5.448   4.348  11.985 -0.0056  0.4587  0.3748
 5366TIP3    H137513   5.402   4.318  12.063  0.3934 -1.1425  0.0308
 5366TIP3    H237514   5.379   4.379  11.926 -0.4028  0.5796  0.9007
 5367TIP3   OH237515   5.355   5.974   0.618 -0.3420  0.3390 -0.5488
 5367TIP3    H137516   5.376   6.064   0.644 -1.4314  0.6021 -0.4905
 5367TIP3    H237517   5.420   5.952   0.552  0.7066  0.7117  0.3376
 5368TIP3   OH237518   3.521   6.075   3.330  0.1457  0.7884 -0.2740
 5368TIP3    H137519   3.603   6.061   3.282  0.3128 -1.5631  0.5494
 5368TIP3    H237520   3.454   6.037   3.273 -0.3320  2.1558 -0.6660
 5369TIP3   OH237521   2.549   5.842  11.828 -0.8490  0.2496 -0.0975
 5369TIP3    H137522   2.612   5.877  11.765 -1.4219  1.4698 -0.0227
 5369TIP3    H237523   2.599   5.778  11.878  0.7928  2.2016  0.9258
 5370TIP3   OH237524   3.468   2.393  16.897 -0.3209 -0.1774  0.2038
 5370TIP3    H137525   3.499   2.388  16.807  0.0820 -1.2206  0.3927
 5370TIP3    H237526   3.548   2.401  16.950 -0.6163  2.8541  0.3581
 5371TIP3   OH237527   2.253   6.047  13.547  0.6301 -0.0498  0.9130
 5371TIP3    H137528   2.247   6.071  13.639  0.7250  0.5136  0.7717
 5371TIP3    H237529   2.347   6.047  13.529  0.5712  0.7623  0.5761
 5372TIP3   OH237530   1.290   3.454   0.955 -0.4679  0.1554 -0.4434
 5372TIP3    H137531   1.260   3.466   0.865 -2.1996 -1.2661 -0.1090
 5372TIP3    H237532   1.258   3.367   0.980  3.0447 -1.0807  0.3946
 5373TIP3   OH237533   0.815   1.081  10.526  0.5291  0.1455  0.4225
 5373TIP3    H137534   0.816   1.154  10.464  2.0578  0.5618  0.8871
 5373TIP3    H237535   0.785   1.006  10.474 -0.2838  0.9316 -0.2625
 5374TIP3   OH237536   2.884   0.406   1.893 -0.1665  0.1506  0.2300
 5374TIP3    H137537   2.824   0.376   1.824  0.1887  0.0383 -0.0358
 5374TIP3    H237538   2.898   0.499   1.874  0.3211  0.0047 -0.1494
 5375TIP3   OH237539   1.007   6.720   6.079  0.4483  0.2920 -0.2815
 5375TIP3    H137540   1.084   6.663   6.075  0.1874 -0.1944  1.0838
 5375TIP3    H237541   0.940   6.667   6.122 -0.1380  1.2620  0.0324
 5376TIP3   OH237542   5.518   5.122   3.915  0.0490 -0.0270 -1.4508
 5376TIP3    H137543   5.489   5.039   3.876 -1.2420 -0.3793  0.1236
 5376TIP3    H237544   5.481   5.189   3.858 -1.7059 -0.5250 -0.9669
 5377TIP3   OH237545   6.749   3.992   1.455 -0.1281  0.1414  0.3083
 5377TIP3    H137546   6.765   3.908   1.412 -1.6793 -0.5934  1.1016
 5377TIP3    H237547   6.826   4.006   1.509 -0.3188 -1.3158  0.9987
 5378TIP3   OH237548   0.516   2.004  11.688  0.4878 -0.0912  0.3296
 5378TIP3    H137549   0.564   1.929  11.654  1.0001  0.6855 -0.7176
 5378TIP3    H237550   0.427   1.993  11.654  0.1175 -1.0819  1.5626
 5379TIP3   OH237551   6.297   1.383  12.841  0.4118  0.0995  0.5509
 5379TIP3    H137552   6.257   1.296  12.837 -0.3323  0.4477  0.3252
 5379TIP3    H237553   6.347   1.382  12.923  0.1175 -0.4188  0.7282
 5380TIP3   OH237554   3.377   2.750   6.116 -0.1869  0.2980 -0.2230
 5380TIP3    H137555   3.364   2.666   6.161  0.3629  0.6188  0.5629
 5380TIP3    H237556   3.289   2.783   6.100 -0.4024 -0.1132  0.0876
 5381TIP3   OH237557   0.694   6.249   2.787  0.1945 -0.0123 -0.2212
 5381TIP3    H137558   0.721   6.175   2.733 -2.1328 -1.2049  0.1498
 5381TIP3    H237559   0.673   6.210   2.872 -2.5260  0.7605 -0.4617
 5382TIP3   OH237560   2.212   0.607  15.380 -0.2409 -0.4057  0.0703
 5382TIP3    H137561   2.161   0.573  15.307  0.6233  1.3162 -1.4289
 5382TIP3    H237562   2.166   0.577  15.458  0.2532 -4.6143 -1.0257
 5383TIP3   OH237563   4.253   4.590   0.765  0.0651  0.1725 -0.4186
 5383TIP3    H137564   4.284   4.675   0.733  1.8816 -0.9022 -1.6714
 5383TIP3    H237565   4.333   4.541   0.786 -0.9653 -0.3572  2.8250
 5384TIP3   OH237566   2.727   4.640  12.623 -0.7580 -0.5053  0.1479
 5384TIP3    H137567   2.769   4.673  12.702 -1.4064  1.4041 -0.2270
 5384TIP3    H237568   2.674   4.714  12.592 -1.0178 -1.4058 -1.7196
 5385TIP3   OH237569   4.618   6.160  12.089  0.0910  1.3729 -0.8156
 5385TIP3    H137570   4.541   6.160  12.145  1.4265  0.5022  1.1760
 5385TIP3    H237571   4.682   6.214  12.136  1.0652  1.1270 -1.8122
 5386TIP3   OH237572   4.243   2.828  17.089 -0.2653  0.4874  0.0661
 5386TIP3    H137573   4.187   2.898  17.058 -1.6741 -0.7955 -0.4122
 5386TIP3    H237574   4.329   2.849  17.053 -0.4908  2.2876  0.4853
 5387TIP3   OH237575   1.185   4.092  11.605 -0.2292 -0.0500 -0.1609
 5387TIP3    H137576   1.136   4.017  11.572  0.3562  0.0052 -1.1967
 5387TIP3    H237577   1.213   4.139  11.526  2.1558 -0.5043  0.3347
 5388TIP3   OH237578   4.454   4.601  15.416  0.5073  0.5301 -0.2989
 5388TIP3    H137579   4.449   4.546  15.494  0.5486 -0.2243 -0.8229
 5388TIP3    H237580   4.548   4.615  15.403  0.6607 -1.3068 -1.5466
 5389TIP3   OH237581   6.646   5.816   5.959  0.2960 -0.0155  0.4098
 5389TIP3    H137582   6.621   5.744   6.017 -1.7669  1.4255  1.4354
 5389TIP3    H237583   6.676   5.885   6.018  1.4419  0.2913 -0.4947
 5390TIP3   OH237584   3.517   0.712   0.788 -0.3417  0.4699 -0.1964
 5390TIP3    H137585   3.487   0.680   0.703  0.7135 -0.4487 -0.2446
 5390TIP3    H237586   3.516   0.807   0.780 -2.6262  0.4712 -0.3817
 5391TIP3   OH237587   5.504   3.314  12.955  0.2364 -0.3390 -0.1372
 5391TIP3    H137588   5.502   3.398  12.910 -2.7363 -0.9531 -1.3733
 5391TIP3    H237589   5.597   3.290  12.957  1.0400  2.3603 -0.8167
 5392TIP3   OH237590   4.001   4.420  14.897 -0.5780 -0.0244 -0.0490
 5392TIP3    H137591   4.022   4.326  14.900 -0.5704 -0.0764 -1.1589
 5392TIP3    H237592   3.906   4.423  14.908 -0.5183 -0.1234  0.5078
 5393TIP3   OH237593   2.575   4.512  12.810  0.1136  0.3911  0.5208
 5393TIP3    H137594   2.483   4.510  12.784 -0.0150  2.1563  0.7366
 5393TIP3    H237595   2.620   4.558  12.739  0.8294 -0.3992  0.4471
 5394TIP3   OH237596   6.270   1.962  15.510  0.0161 -0.1594  0.1742
 5394TIP3    H137597   6.206   1.956  15.439  0.4497  2.4226 -0.5211
 5394TIP3    H237598   6.217   1.974  15.589 -0.3948  0.4506 -0.1924
 5395TIP3   OH237599   5.207   1.222   3.347  0.6877  0.0295  0.0765
 5395TIP3    H137600   5.149   1.297   3.362  0.4440  0.4974 -2.7787
 5395TIP3    H237601   5.196   1.168   3.425 -1.6407  1.3364  0.7415
 5396TIP3   OH237602   1.434   1.713  14.222 -0.8341  0.5963  0.3181
 5396TIP3    H137603   1.442   1.639  14.162  1.4211  1.4334 -0.5291
 5396TIP3    H237604   1.341   1.719  14.240 -1.1016 -2.3916  0.3847
 5397TIP3   OH237605   3.935   4.706  15.464  0.1569 -0.1019 -0.6451
 5397TIP3    H137606   3.967   4.667  15.382  2.3276  1.3597 -0.5954
 5397TIP3    H237607   4.007   4.694  15.525 -1.3918 -1.0569  1.0793
 5398TIP3   OH237608   0.521   2.983  16.932 -0.2645  0.4731  0.1662
 5398TIP3    H137609   0.514   3.021  17.020  1.3289 -0.9319  0.9489
 5398TIP3    H237610   0.435   2.945  16.915 -0.9301  1.7033  0.6314
 5399TIP3   OH237611   5.015   0.096   0.871  0.3255 -0.3419 -0.1624
 5399TIP3    H137612   4.981   0.059   0.790 -0.3218  0.4363 -0.2529
 5399TIP3    H237613   5.006   0.190   0.861 -0.5195 -0.2525  1.1219
 5400TIP3   OH237614   2.779   5.990  11.366  0.0773  0.3280 -0.2149
 5400TIP3    H137615   2.846   5.923  11.349  3.6061  3.0517  1.6199
 5400TIP3    H237616   2.750   6.018  11.279 -0.4960 -2.4654 -1.0381
 5401TIP3   OH237617   1.085   6.677   4.601  0.2349 -0.4730  0.0721
 5401TIP3    H137618   1.175   6.689   4.570 -0.1575  0.4036 -0.7667
 5401TIP3    H237619   1.031   6.692   4.524 -0.7456  1.1478  1.0261
 5402TIP3   OH237620   2.082   4.713  16.323  0.0044 -0.7322  0.1128
 5402TIP3    H137621   2.058   4.648  16.389  0.1748 -1.3069 -0.3958
 5402TIP3    H237622   2.069   4.797  16.368 -0.2730 -1.1066  0.7483
 5403TIP3   OH237623   3.261   4.881   4.656 -0.0555  0.0994  0.2545
 5403TIP3    H137624   3.271   4.921   4.570  0.2169  0.9381  0.6638
 5403TIP3    H237625   3.256   4.955   4.716 -1.0234 -0.4610  0.8826
 5404TIP3   OH237626   2.045   4.885  10.995  0.0269 -0.5849 -0.1248
 5404TIP3    H137627   2.034   4.909  10.903  0.4040 -2.6804 -0.7806
 5404TIP3    H237628   2.128   4.926  11.021 -0.2720  0.3323 -0.5790
 5405TIP3   OH237629   0.341   3.161   3.666 -0.7324 -0.6528 -0.1960
 5405TIP3    H137630   0.261   3.154   3.718  0.8300 -0.5368  2.4348
 5405TIP3    H237631   0.353   3.256   3.655 -0.7562 -0.6549 -0.2396
 5406TIP3   OH237632   4.482   1.243   5.125  0.0032  0.9703 -0.2744
 5406TIP3    H137633   4.507   1.227   5.034  1.3436 -0.6251  0.3362
 5406TIP3    H237634   4.388   1.259   5.121 -0.6860 -2.5212 -1.6138
 5407TIP3   OH237635   3.855   6.417   3.931 -0.1445 -0.1773 -0.0877
 5407TIP3    H137636   3.783   6.384   3.877 -0.5194  0.0902  0.2420
 5407TIP3    H237637   3.830   6.394   4.021 -0.1498  0.5235  0.0967
 5408TIP3   OH237638   1.567   0.392  14.746  0.5466  0.7898  0.0662
 5408TIP3    H137639   1.540   0.432  14.663 -1.2605 -0.7483 -0.1489
 5408TIP3    H237640   1.593   0.303  14.722  1.2864  0.7396  0.9916
 5409TIP3   OH237641   0.821   6.291  11.232  0.4467  0.7642 -0.2863
 5409TIP3    H137642   0.899   6.251  11.193  0.4429  0.0372  0.4470
 5409TIP3    H237643   0.846   6.383  11.247  1.0308  0.6239 -0.3967
 5410TIP3   OH237644   3.157   4.179  10.908  0.0718  0.0844 -0.2577
 5410TIP3    H137645   3.078   4.230  10.924 -0.4973 -0.9451  0.3216
 5410TIP3    H237646   3.170   4.183  10.814 -0.1649  0.9856 -0.2645
 5411TIP3   OH237647   3.682   5.950   2.865 -0.0077 -0.0105 -0.5341
 5411TIP3    H137648   3.593   5.971   2.893 -1.2944 -1.7511 -2.9544
 5411TIP3    H237649   3.712   6.028   2.819  0.3161  1.0963  1.4527
 5412TIP3   OH237650   2.957   4.919   3.470  0.4284  0.6431 -0.0652
 5412TIP3    H137651   3.027   4.868   3.431  0.7274 -0.6313  1.9655
 5412TIP3    H237652   2.972   4.911   3.564 -1.3967  1.8479  0.3694
 5413TIP3   OH237653   0.100   1.773  12.086 -0.1178 -0.3174 -0.0907
 5413TIP3    H137654   0.196   1.769  12.079 -0.1421 -0.2942 -0.4841
 5413TIP3    H237655   0.084   1.818  12.168  0.2145 -0.0830 -0.1523
 5414TIP3   OH237656   2.924   2.623  13.510  0.5716 -0.0798 -0.0420
 5414TIP3    H137657   2.927   2.580  13.596 -0.9358 -3.2372 -1.4141
 5414TIP3    H237658   2.850   2.684  13.517  1.0489  0.3865  1.1607
 5415TIP3   OH237659   5.123   2.266   3.278 -0.3333  0.7400  0.1724
 5415TIP3    H137660   5.055   2.277   3.345 -1.4425 -0.3609 -0.7180
 5415TIP3    H237661   5.128   2.351   3.234 -0.3752  1.1416  0.9305
 5416TIP3   OH237662   6.476   5.434  14.037 -0.1776 -0.5835 -0.3248
 5416TIP3    H137663   6.423   5.502  14.079 -0.7891 -1.8360  1.0030
 5416TIP3    H237664   6.567   5.462  14.052 -0.3063 -1.4838  2.8825
 5417TIP3   OH237665   2.057   0.116   3.839  0.2494  0.1705  0.5180
 5417TIP3    H137666   1.973   0.111   3.885 -0.0319  0.7691  0.0740
 5417TIP3    H237667   2.109   0.046   3.878 -1.0341 -1.3660 -0.3867
 5418TIP3   OH237668   6.354   3.344   2.783  0.1900  0.0972  0.6099
 5418TIP3    H137669   6.267   3.383   2.780 -0.6567 -1.4936  2.3028
 5418TIP3    H237670   6.339   3.251   2.766  1.9027  0.1365 -1.5337
 5419TIP3   OH237671   6.498   2.419  11.319 -0.2735  0.2642 -0.7446
 5419TIP3    H137672   6.558   2.494  11.324 -1.1650  0.8712  2.1006
 5419TIP3    H237673   6.551   2.345  11.348  0.0649  0.1123 -1.7084
 5420TIP3   OH237674   5.924   5.231  17.063 -0.1914  0.0718 -0.1252
 5420TIP3    H137675   5.968   5.316  17.062 -0.1542  0.1091  1.5554
 5420TIP3    H237676   5.991   5.169  17.035  1.0743  0.1010  2.5543
 5421TIP3   OH237677   2.401   1.198   0.338  0.0050 -0.0383  0.4161
 5421TIP3    H137678   2.386   1.112   0.298  2.1185  1.2111 -3.5185
 5421TIP3    H237679   2.483   1.188   0.386  0.8376 -0.0235 -0.9515
 5422TIP3   OH237680   4.017   5.567   4.131  0.8860  0.0564  0.3973
 5422TIP3    H137681   4.019   5.624   4.208  0.7657  0.4645  0.0950
 5422TIP3    H237682   3.942   5.596   4.081  1.8795  0.8434 -0.6791
 5423TIP3   OH237683   1.646   5.888  14.390  0.3280 -0.1571  0.1234
 5423TIP3    H137684   1.660   5.796  14.414  0.7794 -0.2003 -0.3074
 5423TIP3    H237685   1.733   5.922  14.372  0.3610  0.8335  1.9050
 5424TIP3   OH237686   0.884   3.613   4.152  0.3850  0.0499 -0.5289
 5424TIP3    H137687   0.877   3.687   4.092  1.7745  2.5368  2.1187
 5424TIP3    H237688   0.969   3.624   4.194  0.0933 -2.3674  0.9028
 5425TIP3   OH237689   4.998   6.755   0.610 -0.1546 -0.0381 -0.4270
 5425TIP3    H137690   5.055   6.764   0.533  0.6373 -0.8555  0.0479
 5425TIP3    H237691   5.012   6.666   0.640 -3.0650 -0.9027 -1.3136
 5426TIP3   OH237692   4.327   0.499  15.234  0.0084  0.8382 -0.8401
 5426TIP3    H137693   4.306   0.408  15.218  1.0240  0.2372  0.9267
 5426TIP3    H237694   4.273   0.524  15.309  0.4557  1.3772 -0.6808
 5427TIP3   OH237695   3.786   2.924  12.399 -0.5613  0.7639  0.2896
 5427TIP3    H137696   3.751   2.990  12.457  1.3030  1.7405  0.3896
 5427TIP3    H237697   3.838   2.973  12.335  0.7029 -0.5633  0.2410
 5428TIP3   OH237698   6.485   5.541   0.714 -0.3324  0.0590  0.3484
 5428TIP3    H137699   6.424   5.613   0.722 -1.0829 -0.7108  2.1904
 5428TIP3    H237700   6.495   5.508   0.804  3.0855  0.3762  0.1969
 5429TIP3   OH237701   4.927   0.404  14.225  0.3180  0.4165 -0.0613
 5429TIP3    H137702   4.964   0.324  14.263 -0.0004 -0.7197 -2.0155
 5429TIP3    H237703   4.978   0.475  14.264  1.2343 -0.7913  1.0219
 5430TIP3   OH237704   3.769   5.604   6.064  0.4044  0.3409 -0.5332
 5430TIP3    H137705   3.794   5.587   6.155  0.6738  1.0610 -0.4693
 5430TIP3    H237706   3.681   5.641   6.070  0.8169  1.3318 -0.4884
 5431TIP3   OH237707   4.174   4.693  10.946  0.0721  0.1800  0.3334
 5431TIP3    H137708   4.163   4.683  10.851  0.4410 -0.8740  0.3839
 5431TIP3    H237709   4.122   4.621  10.983  0.1646  0.4162  0.9180
 5432TIP3   OH237710   5.011   6.216   2.450 -0.2763 -0.7561  0.1559
 5432TIP3    H137711   4.993   6.139   2.395 -0.0865 -1.5663  1.1896
 5432TIP3    H237712   4.930   6.266   2.447 -0.7800 -1.5337  0.2964
 5433TIP3   OH237713   0.032   3.152   0.438  0.1203  0.1326  0.1066
 5433TIP3    H137714   0.125   3.138   0.419 -0.4147 -3.1220 -0.5509
 5433TIP3    H237715   0.032   3.202   0.520  2.4221  0.5087 -0.0556
 5434TIP3   OH237716   0.126   0.591  11.710 -0.4111 -0.1970 -0.1217
 5434TIP3    H137717   0.071   0.616  11.637 -1.1236 -0.6594  0.2444
 5434TIP3    H237718   0.193   0.659  11.714 -0.4278 -0.1079 -1.1228
 5435TIP3   OH237719   2.887   3.872  11.789  0.1113  0.6543 -0.2541
 5435TIP3    H137720   2.840   3.789  11.795 -0.5231  1.1083  2.2921
 5435TIP3    H237721   2.837   3.932  11.845  3.4299  1.2664  2.4027
 5436TIP3   OH237722   2.387   6.316  17.024  0.4358 -0.4316  0.6594
 5436TIP3    H137723   2.393   6.391  17.083 -2.5556  0.9521 -0.6234
 5436TIP3    H237724   2.414   6.351  16.939 -1.3187 -0.6449 -0.0209
 5437TIP3   OH237725   0.963   6.784   2.060  0.0229 -0.5498 -0.1728
 5437TIP3    H137726   1.006   6.854   2.011 -0.3151 -0.0075  0.2935
 5437TIP3    H237727   1.020   6.708   2.048  1.4973  0.3288  1.0203
 5438TIP3   OH237728   0.069   6.588  14.475 -0.0736 -0.1394  0.2878
 5438TIP3    H137729   0.158   6.620  14.491 -0.7395  1.0519  1.8055
 5438TIP3    H237730   0.082   6.509  14.422  1.8489  0.3045  0.0050
 5439TIP3   OH237731   3.455   2.073  13.401  0.0322 -0.3049 -0.4122
 5439TIP3    H137732   3.448   1.978  13.414 -1.2685 -0.0456  0.9709
 5439TIP3    H237733   3.379   2.110  13.446  0.1846  1.3734 -1.4260
 5440TIP3   OH237734   2.940   0.794  11.975 -0.1775 -0.3894  0.3491
 5440TIP3    H137735   2.864   0.851  11.968  1.6025  1.8942 -2.4081
 5440TIP3    H237736   2.913   0.713  11.932 -1.1659  0.2607 -0.2948
 5441TIP3   OH237737   5.463   5.778   2.940  0.5961 -0.2151 -0.2225
 5441TIP3    H137738   5.554   5.757   2.961  0.2491 -2.1292 -0.4629
 5441TIP3    H237739   5.450   5.744   2.851  0.1172  1.5940 -0.8764
 5442TIP3   OH237740   3.054   0.224  16.943  0.4527  0.4552  0.3739
 5442TIP3    H137741   3.052   0.314  16.913  0.6074  0.8445  1.4749
 5442TIP3    H237742   3.033   0.172  16.866 -1.1700  1.5166  0.0549
 5443TIP3   OH237743   2.036   1.484  15.747  0.0424 -0.1386 -0.5466
 5443TIP3    H137744   2.066   1.479  15.838  1.6236  1.4492 -0.9186
 5443TIP3    H237745   2.106   1.440  15.697 -0.9173 -1.1957 -1.0118
 5444TIP3   OH237746   6.109   4.128   5.310  0.0933  0.2223 -0.2898
 5444TIP3    H137747   6.202   4.149   5.317  0.2844 -0.2000 -1.4736
 5444TIP3    H237748   6.076   4.188   5.243 -0.5258  0.4632  0.2187
 5445TIP3   OH237749   4.255   0.264   3.088 -0.5036 -0.2239 -0.3706
 5445TIP3    H137750   4.348   0.280   3.106 -0.9128  0.3538  1.3606
 5445TIP3    H237751   4.219   0.232   3.170 -2.0357  0.3869 -0.7615
 5446TIP3   OH237752   1.884   1.865  12.422 -0.4636  0.2143  0.1596
 5446TIP3    H137753   1.826   1.892  12.351 -0.2300 -0.2439 -0.2102
 5446TIP3    H237754   1.875   1.770  12.426 -2.4758  0.4230  2.4770
 5447TIP3   OH237755   5.280   6.696  15.702 -0.5465 -0.0120  0.1623
 5447TIP3    H137756   5.343   6.713  15.772 -1.5116 -0.8217  1.2770
 5447TIP3    H237757   5.256   6.604  15.713  0.3973 -0.6108 -2.2050
 5448TIP3   OH237758   3.148   3.716   3.351  0.2793  0.3641  0.1260
 5448TIP3    H137759   3.119   3.625   3.349  1.9451 -0.2097 -1.3531
 5448TIP3    H237760   3.139   3.743   3.442  0.4366 -1.5235  0.7430
 5449TIP3   OH237761   5.140   5.103  14.058 -0.2340 -0.0552 -0.2770
 5449TIP3    H137762   5.207   5.122  14.123  0.1090  0.0042 -0.6461
 5449TIP3    H237763   5.148   5.008  14.043  0.6056  0.1452 -1.2253
 5450TIP3   OH237764   2.973   6.123   0.804  0.4019 -0.4363 -0.1250
 5450TIP3    H137765   3.006   6.153   0.889 -3.6263  0.0636  1.4747
 5450TIP3    H237766   2.955   6.030   0.817  0.9504 -0.6737 -0.9300
 5451TIP3   OH237767   5.357   1.847   4.400  0.5408 -0.3161  0.0363
 5451TIP3    H137768   5.420   1.789   4.442 -0.9337 -1.0207  1.3878
 5451TIP3    H237769   5.354   1.924   4.455  1.3035  0.3864 -0.8699
 5452TIP3   OH237770   4.239   4.535   5.669 -0.5746  0.0038  0.3125
 5452TIP3    H137771   4.261   4.451   5.709  0.7235 -0.6343 -1.6184
 5452TIP3    H237772   4.281   4.600   5.725 -0.9942 -0.6386  1.4267
 5453TIP3   OH237773   1.030   0.405   2.361  0.2605  0.4481 -0.3382
 5453TIP3    H137774   1.109   0.385   2.311  0.5222  1.3117 -0.2955
 5453TIP3    H237775   1.023   0.334   2.425 -0.1377 -0.7264 -1.6407
 5454TIP3   OH237776   0.157   1.012  12.942  0.2703 -0.2109 -0.9565
 5454TIP3    H137777   0.134   0.970  12.859  1.3393  1.1414 -1.9835
 5454TIP3    H237778   0.251   1.029  12.935  0.8279 -1.9001  1.4088
 5455TIP3   OH237779   0.186   3.149   3.109 -0.7826 -0.8501  0.2635
 5455TIP3    H137780   0.155   3.060   3.123  2.0962 -1.7501  1.8533
 5455TIP3    H237781   0.262   3.139   3.051  0.4316  0.3261  1.5693
 5456TIP3   OH237782   4.597   2.465  16.502 -0.2161 -0.7562  0.2438
 5456TIP3    H137783   4.656   2.438  16.431 -0.5354  1.0160 -0.7448
 5456TIP3    H237784   4.656   2.481  16.576  0.6692  1.2481 -0.7997
 5457TIP3   OH237785   0.578   4.207   1.203  0.1474 -0.1665  0.4234
 5457TIP3    H137786   0.617   4.285   1.242  1.1760 -0.7439  0.5892
 5457TIP3    H237787   0.615   4.204   1.114  1.2565 -1.2223  0.8870
 5458TIP3   OH237788   1.324   5.672  16.830 -0.2340 -0.3082 -0.0862
 5458TIP3    H137789   1.233   5.647  16.847 -0.7093  1.8994  1.0385
 5458TIP3    H237790   1.318   5.754  16.780  1.1344 -0.3102 -0.3002
 5459TIP3   OH237791   5.735   0.034  11.544 -0.8985  0.2568  1.3703
 5459TIP3    H137792   5.719  -0.021  11.620 -4.1653  0.1967  0.7799
 5459TIP3    H237793   5.755  -0.027  11.474 -2.2037 -0.0507  1.2443
 5460TIP3   OH237794   4.359   3.333  12.049  0.1896 -0.3307 -0.4424
 5460TIP3    H137795   4.339   3.274  12.121  0.0481  0.2796  0.0196
 5460TIP3    H237796   4.278   3.380  12.032  0.3461 -0.1463 -0.6932
 5461TIP3   OH237797   1.431   0.178  17.072  0.6703 -0.1391 -0.8581
 5461TIP3    H137798   1.449   0.085  17.059 -0.9634 -1.0310  2.2782
 5461TIP3    H237799   1.409   0.186  17.165 -2.1389  2.8480 -1.5726
 5462TIP3   OH237800   1.704   1.365  13.351 -0.5012 -0.2084  0.2442
 5462TIP3    H137801   1.759   1.372  13.428  0.0897  1.2632 -0.2759
 5462TIP3    H237802   1.762   1.332  13.282 -0.7651 -0.5114  0.1623
 5463TIP3   OH237803   1.334   0.226   0.511  0.2205 -0.4005  0.4767
 5463TIP3    H137804   1.331   0.310   0.465 -1.5065 -0.7460 -0.0800
 5463TIP3    H237805   1.320   0.249   0.603 -1.5054 -0.1633  0.1815
 5464TIP3   OH237806   4.526   3.529   0.854  0.1603 -0.0242  0.1960
 5464TIP3    H137807   4.501   3.438   0.873 -1.2405  0.1344 -0.7946
 5464TIP3    H237808   4.609   3.521   0.807 -0.2713 -0.8265 -0.4504
 5465TIP3   OH237809   5.778   3.355  12.644 -0.4723  0.3276 -0.2112
 5465TIP3    H137810   5.725   3.420  12.692  0.7717  1.8052 -0.7482
 5465TIP3    H237811   5.721   3.326  12.573 -0.6298  1.8781 -0.7714
 5466TIP3   OH237812   2.822   5.462   1.041  0.0953 -0.3173 -0.2800
 5466TIP3    H137813   2.745   5.432   1.090  0.4101 -2.3678 -0.9462
 5466TIP3    H237814   2.786   5.505   0.964 -0.3803  1.1637  0.7303
 5467TIP3   OH237815   5.439   0.806  16.612 -0.1195 -0.5986 -0.0011
 5467TIP3    H137816   5.410   0.728  16.564  2.7053 -0.9685 -1.3363
 5467TIP3    H237817   5.489   0.771  16.686 -0.4060 -0.0205  0.4764
 5468TIP3   OH237818   2.511   6.443   3.008  0.6254 -0.3469  0.1403
 5468TIP3    H137819   2.480   6.521   2.963  1.1651  0.2995  0.8626
 5468TIP3    H237820   2.431   6.399   3.038  0.3409  0.3655  0.4431
 5469TIP3   OH237821   1.081   2.665  12.463  0.4257 -0.7847 -0.5711
 5469TIP3    H137822   1.086   2.579  12.505  1.0697 -0.7706 -0.5933
 5469TIP3    H237823   1.018   2.715  12.515  0.0547 -1.2690 -0.5558
 5470TIP3   OH237824   3.941   1.480   1.504 -0.1536  0.0068 -0.2942
 5470TIP3    H137825   3.983   1.540   1.566  0.7190  0.4117 -1.2454
 5470TIP3    H237826   3.995   1.402   1.505 -0.0884  0.0445 -0.5886
 5471TIP3   OH237827   5.542   4.063   4.469 -1.1113 -0.2566  0.4269
 5471TIP3    H137828   5.513   4.053   4.559  0.2984 -3.2329  0.6485
 5471TIP3    H237829   5.462   4.058   4.417 -1.8166  0.3584  1.4207
 5472TIP3   OH237830   6.667   1.470   2.435 -0.7765 -0.4624  0.3527
 5472TIP3    H137831   6.642   1.532   2.504  0.0630 -1.0446  1.1955
 5472TIP3    H237832   6.618   1.500   2.358 -0.3732  1.2615  0.7257
 5473TIP3   OH237833   0.981   4.215  10.815  0.1004 -0.0837  0.7937
 5473TIP3    H137834   0.995   4.176  10.728  0.3968 -0.3269  0.9461
 5473TIP3    H237835   0.941   4.144  10.866  1.5857 -0.5353  1.3674
 5474TIP3   OH237836   6.613   6.102  16.556  0.2173  0.9722 -0.3725
 5474TIP3    H137837   6.575   6.189  16.560  0.9163  1.3836 -1.9071
 5474TIP3    H237838   6.676   6.106  16.484  0.7009 -0.6332 -0.0978
 5475TIP3   OH237839   3.202   0.084   3.675 -0.0367  0.4958 -0.2593
 5475TIP3    H137840   3.158   0.122   3.598  0.3472 -0.6560 -1.0764
 5475TIP3    H237841   3.287   0.054   3.641 -0.3556 -1.1570  0.3050
 5476TIP3   OH237842   3.973   6.031   1.002  0.1847  0.0880 -0.3090
 5476TIP3    H137843   3.986   5.937   0.998  1.3240  0.2612 -1.5690
 5476TIP3    H237844   3.903   6.049   0.939  0.8429  0.1903 -1.0343
 5477TIP3   OH237845   0.828   5.588  16.270 -0.2877 -0.6474  0.0353
 5477TIP3    H137846   0.906   5.641  16.256  0.2436 -1.0701  1.2456
 5477TIP3    H237847   0.852   5.501  16.237 -0.7791 -0.4230 -0.9511
 5478TIP3   OH237848   4.031   2.396  11.091 -0.3383 -0.3061  0.4935
 5478TIP3    H137849   3.942   2.387  11.057 -0.7123  0.9377  1.0884
 5478TIP3    H237850   4.087   2.368  11.019 -1.1962 -1.5157  0.2504
 5479TIP3   OH237851   4.863   3.763  13.532 -0.5118  0.7652 -0.0305
 5479TIP3    H137852   4.856   3.685  13.478 -0.0200  0.5021  0.2773
 5479TIP3    H237853   4.889   3.730  13.618 -2.3000  1.0601  0.6780
 5480TIP3   OH237854   2.485   4.322   6.636  0.0951 -0.1365  0.5500
 5480TIP3    H137855   2.558   4.330   6.696 -0.0927  0.8909  0.6536
 5480TIP3    H237856   2.464   4.228   6.635 -0.3664 -0.0907  2.6268
 5481TIP3   OH237857   6.226   1.354   6.224 -0.5764 -0.1294  0.1554
 5481TIP3    H137858   6.247   1.269   6.186  0.5501  0.0553  0.3171
 5481TIP3    H237859   6.183   1.333   6.307  0.3626 -0.5625  0.5490
 5482TIP3   OH237860   3.299   5.518  16.829  0.3104 -0.1375  0.0986
 5482TIP3    H137861   3.264   5.452  16.769  0.4105 -0.7938  0.7367
 5482TIP3    H237862   3.238   5.517  16.903 -0.4384  1.4532 -0.4628
 5483TIP3   OH237863   6.364   3.356  12.003 -0.0411 -0.6465  1.0870
 5483TIP3    H137864   6.459   3.355  11.996 -0.0869 -0.3554  0.2839
 5483TIP3    H237865   6.336   3.270  11.972 -0.1535  0.0898 -1.0087
 5484TIP3   OH237866   0.370   0.765  11.237 -0.3915 -0.3785 -0.1478
 5484TIP3    H137867   0.358   0.691  11.297  0.8038 -0.8502 -0.4608
 5484TIP3    H237868   0.464   0.782  11.239 -0.5422  0.5968 -0.7333
 5485TIP3   OH237869   5.589   0.025   2.166 -0.1761 -0.1808  0.1653
 5485TIP3    H137870   5.655   0.051   2.229 -1.5495  0.5319  1.3638
 5485TIP3    H237871   5.612   0.072   2.086  1.5019 -0.9818  0.1301
 5486TIP3   OH237872   0.828   1.859  12.753  0.1836  0.5219 -0.1207
 5486TIP3    H137873   0.883   1.802  12.807 -0.6791 -0.5320 -0.3179
 5486TIP3    H237874   0.834   1.945  12.795  0.7895  0.0851  0.7221
 5487TIP3   OH237875   3.006   1.569  15.028  0.0572  0.2433  0.1534
 5487TIP3    H137876   3.012   1.573  14.933 -1.1653 -0.1365  0.0378
 5487TIP3    H237877   3.035   1.655  15.058  1.7113 -0.0701 -0.4660
 5488TIP3   OH237878   4.793   0.325   5.124 -0.1308  0.0027  0.1271
 5488TIP3    H137879   4.723   0.367   5.174  0.9681 -1.6473  3.3103
 5488TIP3    H237880   4.841   0.398   5.084 -0.6064  1.5553  2.1896
 5489TIP3   OH237881   4.552   5.734   6.221 -0.0172 -0.5648  0.1189
 5489TIP3    H137882   4.576   5.808   6.276 -0.7948 -0.4904  0.3745
 5489TIP3    H237883   4.460   5.750   6.197  0.0117 -1.0953 -0.3900
 5490TIP3   OH237884   5.900   5.751  16.267 -0.2957 -0.2604 -0.3756
 5490TIP3    H137885   5.893   5.730  16.360  1.3259  0.3666 -0.0703
 5490TIP3    H237886   5.986   5.792  16.259  0.2348 -1.6355 -2.4207
 5491TIP3   OH237887   2.848   3.749   3.549  0.0084  0.1406  0.0749
 5491TIP3    H137888   2.765   3.760   3.595  0.9782  2.2290  1.4845
 5491TIP3    H237889   2.830   3.684   3.482 -2.1460 -1.2213  1.8327
 5492TIP3   OH237890   4.799   2.187  15.363  0.0904  0.3769  0.3681
 5492TIP3    H137891   4.746   2.182  15.283  1.8481 -0.4468 -0.8241
 5492TIP3    H237892   4.742   2.227  15.428 -1.6995  0.2539 -1.0605
 5493TIP3   OH237893   4.757   0.327   0.321  0.0402 -0.2387  0.1812
 5493TIP3    H137894   4.677   0.329   0.374 -0.1143 -0.5205 -0.0397
 5493TIP3    H237895   4.740   0.261   0.254 -1.0406  2.3250 -2.2338
 5494TIP3   OH237896   4.587   0.287  16.353 -0.0497  0.4937  0.5942
 5494TIP3    H137897   4.559   0.377  16.332 -1.2137  0.7714  3.0467
 5494TIP3    H237898   4.507   0.235  16.346  0.3070 -0.0724  0.7031
 5495TIP3   OH237899   2.865   2.132   3.243 -0.3013  0.0930  0.1526
 5495TIP3    H137900   2.821   2.063   3.292 -0.5250 -0.9879 -1.5063
 5495TIP3    H237901   2.955   2.130   3.275 -0.5931 -0.0848  1.0147
 5496TIP3   OH237902   3.543   5.882  16.049 -0.2906 -0.3999 -0.0304
 5496TIP3    H137903   3.578   5.915  16.132 -3.4439 -0.0528  1.3161
 5496TIP3    H237904   3.563   5.789  16.050 -1.4400 -0.6814  1.8575
 5497TIP3   OH237905   5.684   1.782  13.510  0.1141  0.0622  0.3719
 5497TIP3    H137906   5.766   1.786  13.462 -0.0405 -0.5250  0.0411
 5497TIP3    H237907   5.707   1.802  13.600  0.8055 -1.1279  0.4839
 5498TIP3   OH237908   6.738   6.394  17.194  0.0014 -0.2084 -1.2678
 5498TIP3    H137909   6.819   6.416  17.147  0.6516 -0.6331 -0.3746
 5498TIP3    H237910   6.669   6.403  17.128  0.5851  1.5621 -1.7010
 5499TIP3   OH237911   5.998   2.060   2.836 -0.2327 -0.1102 -0.7549
 5499TIP3    H137912   6.017   2.148   2.801  1.1458 -0.5445 -1.1539
 5499TIP3    H237913   5.984   2.006   2.758  1.9930 -0.8971 -0.6609
 5500TIP3   OH237914   0.992   3.422  12.100  0.5889  0.6629 -0.5007
 5500TIP3    H137915   1.020   3.479  12.028 -1.5872  1.2813 -0.9237
 5500TIP3    H237916   0.962   3.482  12.168 -1.0365  0.0729 -0.6562
 5501TIP3   OH237917   2.962   0.850  14.404  0.5233  0.0627  0.3023
 5501TIP3    H137918   3.053   0.820  14.406 -0.0654 -1.8662  0.4794
 5501TIP3    H237919   2.927   0.815  14.322 -0.0379  0.9271  0.1577
 5502TIP3   OH237920   6.017   5.526   3.449  0.2557  0.0984  0.0349
 5502TIP3    H137921   6.010   5.450   3.506  0.8612 -0.2568 -0.3570
 5502TIP3    H237922   6.109   5.551   3.453  0.5806 -0.6765 -1.7213
 5503TIP3   OH237923   1.594   3.551  16.688  0.4079  0.2474  0.7170
 5503TIP3    H137924   1.547   3.602  16.754 -0.5762  0.9523 -0.4861
 5503TIP3    H237925   1.601   3.463  16.727 -2.0025  0.0830  0.9471
 5504TIP3   OH237926   0.506   1.982  13.328 -0.0354  0.5581 -0.0818
 5504TIP3    H137927   0.457   2.008  13.406  1.8913 -0.0111  1.4121
 5504TIP3    H237928   0.480   1.892  13.312  1.2205 -0.1197  1.3762
 5505TIP3   OH237929   1.784   4.462   1.820 -0.5515  0.2282  0.0204
 5505TIP3    H137930   1.802   4.369   1.812  0.3025  0.3557  0.3719
 5505TIP3    H237931   1.747   4.472   1.908 -0.9059  0.1873 -0.1213
 5506TIP3   OH237932   3.463   0.266  14.341  0.1189 -0.0315 -0.2995
 5506TIP3    H137933   3.420   0.343  14.303 -2.3549 -1.6418 -1.0632
 5506TIP3    H237934   3.455   0.278  14.436  0.6449  1.0685 -0.3792
 5507TIP3   OH237935   3.028   3.100   4.741  0.7776  0.0216  0.6475
 5507TIP3    H137936   3.096   3.047   4.700  0.3452 -0.1937  0.1971
 5507TIP3    H237937   3.014   3.173   4.681 -0.1024 -0.4785  0.2217
 5508TIP3   OH237938   5.442   4.479   4.385 -0.2381 -0.8309 -0.4206
 5508TIP3    H137939   5.360   4.469   4.434 -0.3434 -0.4161 -0.5153
 5508TIP3    H237940   5.510   4.462   4.450 -0.4055 -2.3895 -0.6051
 5509TIP3   OH237941   2.795   0.845   6.225 -0.2109 -0.3908  0.0651
 5509TIP3    H137942   2.889   0.828   6.232 -0.2708 -0.7800 -0.0622
 5509TIP3    H237943   2.789   0.919   6.164 -0.1057 -2.0236 -2.0396
 5510TIP3   OH237944   3.375   1.596  17.221 -0.2956 -0.0195 -0.2516
 5510TIP3    H137945   3.372   1.632  17.310  0.1362 -0.9974  0.1738
 5510TIP3    H237946   3.288   1.559  17.207  0.1521 -1.4329  0.4633
 5511TIP3   OH237947   2.196   2.088  13.211 -0.0040  0.3465 -0.2920
 5511TIP3    H137948   2.201   2.082  13.306  0.6284 -0.7631 -0.3769
 5511TIP3    H237949   2.287   2.095  13.182 -0.1837  0.5688 -0.8207
 5512TIP3   OH237950   4.804   3.630   4.789  0.1405  0.4499  0.3654
 5512TIP3    H137951   4.744   3.701   4.764  0.7114  1.4752  1.7985
 5512TIP3    H237952   4.887   3.674   4.808  0.6751 -0.6734  0.7287
 5513TIP3   OH237953   4.658   6.173   2.011  0.5118  0.3127  0.2976
 5513TIP3    H137954   4.705   6.166   1.928  0.6913 -2.5487  0.5565
 5513TIP3    H237955   4.691   6.254   2.050  0.2879  1.8312 -2.4298
 5514TIP3   OH237956   0.092   1.298   5.405 -0.3879 -0.8952  0.0309
 5514TIP3    H137957   0.027   1.350   5.452  0.1893 -0.5275  0.4294
 5514TIP3    H237958   0.051   1.280   5.321 -1.0756 -0.8121  0.3343
 5515TIP3   OH237959   2.559   1.759  13.764 -0.1517  0.1212 -0.3895
 5515TIP3    H137960   2.602   1.681  13.729  0.6194  0.3941 -0.0869
 5515TIP3    H237961   2.475   1.729  13.796 -0.0851 -0.4814 -0.7742
 5516TIP3   OH237962   1.162   1.045  14.278  0.3351 -0.1162  0.3312
 5516TIP3    H137963   1.093   0.990  14.317 -1.0029  0.8243 -0.6234
 5516TIP3    H237964   1.208   1.082  14.353 -0.5140 -0.3896  1.0125
 5517TIP3   OH237965   3.921   6.461   2.716  1.1598 -0.2226 -1.1239
 5517TIP3    H137966   3.952   6.396   2.780  0.5822 -0.1854 -0.8005
 5517TIP3    H237967   3.938   6.545   2.759 -1.2700 -0.2244 -0.0187
 5518TIP3   OH237968   2.305   3.442  13.186  0.4747  0.3063 -0.2510
 5518TIP3    H137969   2.283   3.366  13.133  0.5078 -0.5145  0.8847
 5518TIP3    H237970   2.398   3.431  13.205  0.6430  0.9960 -0.6326
 5519TIP3   OH237971   2.097   0.035   0.272  0.0054 -0.3683 -0.0739
 5519TIP3    H137972   2.144  -0.043   0.300  0.1737 -0.4064 -0.4546
 5519TIP3    H237973   2.065   0.013   0.184 -0.0219 -0.0422 -0.1467
 5520TIP3   OH237974   4.508   4.701   1.140  0.2056 -0.1919  0.0889
 5520TIP3    H137975   4.456   4.715   1.219  2.1872  0.3129  1.3750
 5520TIP3    H237976   4.597   4.690   1.172  0.9940 -0.4871 -2.0653
 5521TIP3   OH237977   4.401   6.577  11.306 -0.7514  0.2148 -0.7358
 5521TIP3    H137978   4.382   6.592  11.399 -0.7458 -0.0340 -0.6927
 5521TIP3    H237979   4.474   6.514  11.307 -0.4517  0.5530 -0.9032
 5522TIP3   OH237980   2.338   5.127   2.106 -0.2405  0.1043  0.0253
 5522TIP3    H137981   2.425   5.091   2.121  0.4433  1.6728 -0.0446
 5522TIP3    H237982   2.307   5.081   2.028 -0.1115 -1.5139  0.8667
 5523TIP3   OH237983   1.582   5.126  15.200 -0.2969  0.4101 -0.0926
 5523TIP3    H137984   1.572   5.094  15.110  0.1007  0.1441 -0.0416
 5523TIP3    H237985   1.670   5.101  15.225 -1.2239 -1.7780  1.2626
 5524TIP3   OH237986   0.410   1.293  16.383 -0.2728 -0.0577  0.2010
 5524TIP3    H137987   0.315   1.302  16.375 -0.1824 -0.4869 -1.6786
 5524TIP3    H237988   0.431   1.343  16.462 -2.1141 -0.4511  1.0095
 5525TIP3   OH237989   6.034   0.177   0.524  0.1490 -0.1046  0.5793
 5525TIP3    H137990   5.983   0.112   0.475 -0.8345  0.7753  0.4076
 5525TIP3    H237991   6.001   0.262   0.492 -0.4204  0.4976  2.6502
 5526TIP3   OH237992   4.845   5.388  15.346  0.1216  0.2034  0.2396
 5526TIP3    H137993   4.753   5.378  15.319  0.3656 -0.3535 -0.4072
 5526TIP3    H237994   4.857   5.322  15.413 -0.2361  0.9860  1.0911
 5527TIP3   OH237995   2.848   3.446   2.359 -0.3311  0.1330  0.2599
 5527TIP3    H137996   2.753   3.462   2.360 -0.5818 -1.2363  0.8555
 5527TIP3    H237997   2.886   3.530   2.386 -1.3049  0.9993 -0.9660
 5528TIP3   OH237998   2.897   5.272  14.381  0.4259  0.2632 -0.2461
 5528TIP3    H137999   2.919   5.336  14.314  0.8099  0.7984  0.3762
 5528TIP3    H238000   2.807   5.292  14.407  0.5819  0.6235  0.0219
 5529TIP3   OH238001   6.701   5.387   5.808 -0.7403 -0.1773  0.9875
 5529TIP3    H138002   6.789   5.350   5.798 -1.0663 -1.4342  2.4079
 5529TIP3    H238003   6.661   5.377   5.721 -0.7657 -3.1675  1.2483
 5530TIP3   OH238004   4.033   3.232   2.147  0.0765  0.1617  0.6424
 5530TIP3    H138005   4.008   3.178   2.222  0.1151 -0.4453  0.2282
 5530TIP3    H238006   4.125   3.255   2.163  0.5984 -1.3403  0.0036
 5531TIP3   OH238007   3.309   3.558   3.639  0.1565 -0.0235 -0.0544
 5531TIP3    H138008   3.275   3.519   3.558  0.6656  0.3219 -0.4480
 5531TIP3    H238009   3.272   3.647   3.640 -0.8195 -0.4275  0.7220
 5532TIP3   OH238010   3.228   1.581   2.998 -0.0054  0.5322 -0.0397
 5532TIP3    H138011   3.296   1.563   3.062  0.3469 -0.4256 -0.6746
 5532TIP3    H238012   3.239   1.674   2.977  1.9464  0.1176 -1.0762
 5533TIP3   OH238013   3.376   4.531  13.850  0.3456 -0.5247 -0.3836
 5533TIP3    H138014   3.360   4.623  13.874 -2.3053 -1.2701  1.0846
 5533TIP3    H238015   3.357   4.527  13.757  1.2567  0.5453 -0.6368
 5534TIP3   OH238016   3.105   0.366  14.913  0.3183  0.9578 -0.2354
 5534TIP3    H138017   3.074   0.434  14.972 -1.9556  1.7875 -2.2344
 5534TIP3    H238018   3.032   0.304  14.908  1.7291 -0.8145  0.2836
 5535TIP3   OH238019   0.226   3.285  16.974  0.2567  0.1652 -0.1478
 5535TIP3    H138020   0.220   3.218  17.043  0.2310 -0.5173 -0.7982
 5535TIP3    H238021   0.136   3.314  16.961  0.2397  0.1764 -0.0077
 5536TIP3   OH238022   3.020   1.643   5.821  0.8024 -0.0432 -0.2619
 5536TIP3    H138023   3.048   1.599   5.901  1.0422  2.6152  1.2353
 5536TIP3    H238024   3.099   1.685   5.787  0.7770 -1.4027 -2.1656
 5537TIP3   OH238025   2.823   2.506   2.879  0.2490 -0.7931  0.0657
 5537TIP3    H138026   2.785   2.523   2.792  2.5161  0.5309 -0.7670
 5537TIP3    H238027   2.887   2.437   2.864 -0.7194 -1.9668  1.1376
 5538TIP3   OH238028   2.460   4.877  16.699  0.3492  0.2858  0.2595
 5538TIP3    H138029   2.552   4.869  16.724  0.0533  0.5094  1.4976
 5538TIP3    H238030   2.414   4.815  16.756 -0.2453  0.0134 -0.5074
 5539TIP3   OH238031   0.925   4.626  13.800 -0.0075  0.4935  0.0152
 5539TIP3    H138032   0.910   4.667  13.885  0.0339 -0.4305  0.4760
 5539TIP3    H238033   1.019   4.636  13.785  0.2847 -0.7929  0.8560
 5540TIP3   OH238034   0.188   5.273  16.980 -0.7389 -0.2854  0.3407
 5540TIP3    H138035   0.137   5.275  16.900 -0.2870  0.3877  0.0546
 5540TIP3    H238036   0.235   5.189  16.977  1.0571  0.7021 -1.2644
 5541TIP3   OH238037   1.760   0.039   4.652 -0.1682  0.0288 -0.8456
 5541TIP3    H138038   1.766  -0.043   4.603 -1.6332 -1.2277  0.9681
 5541TIP3    H238039   1.837   0.039   4.709 -0.4346 -0.3651 -0.4779
 5542TIP3   OH238040   0.637   5.185  15.564  0.2192  0.1647 -0.2136
 5542TIP3    H138041   0.690   5.222  15.494  0.2165  0.9426  0.1813
 5542TIP3    H238042   0.574   5.254  15.585  0.4724  0.0999  0.8099
 5543TIP3   OH238043   3.977   4.462   2.419  0.2906 -0.5969 -0.3004
 5543TIP3    H138044   3.976   4.412   2.337  0.4019 -0.3223 -0.4697
 5543TIP3    H238045   3.992   4.552   2.392  0.5818 -0.5400  0.0462
 5544TIP3   OH238046   4.229   4.710   6.521 -0.2065  0.3364  0.7966
 5544TIP3    H138047   4.230   4.748   6.609 -0.2972  0.7064  0.6372
 5544TIP3    H238048   4.213   4.616   6.536  1.3925  0.1165  1.2653
 5545TIP3   OH238049   4.380   0.458  16.471 -0.2191 -0.1119  0.5436
 5545TIP3    H138050   4.321   0.421  16.538 -1.2294  1.1370  0.3859
 5545TIP3    H238051   4.452   0.496  16.522  0.8944 -2.2620  0.7072
 5546TIP3   OH238052   0.456   1.343   2.195  0.1269 -0.4669 -0.1729
 5546TIP3    H138053   0.406   1.407   2.144 -0.9479 -0.4997  0.8200
 5546TIP3    H238054   0.430   1.258   2.159 -1.6032 -0.5740  1.2004
 5547TIP3   OH238055   5.093   5.601   2.399 -0.9285 -0.3139 -0.3884
 5547TIP3    H138056   5.033   5.602   2.324 -2.1878  1.6273  0.5563
 5547TIP3    H238057   5.050   5.544   2.463  0.0075 -1.7402 -0.9725
 5548TIP3   OH238058   2.453   1.585  13.213 -0.2239 -0.3539 -0.1461
 5548TIP3    H138059   2.534   1.543  13.183 -0.3362 -0.2478 -0.6026
 5548TIP3    H238060   2.477   1.624  13.297 -0.4341 -2.3523  0.9045
 5549TIP3   OH238061   4.037   1.700   3.039  0.0160 -0.3226  0.4258
 5549TIP3    H138062   3.963   1.728   2.986  0.2536  0.9899  0.7588
 5549TIP3    H238063   4.068   1.780   3.081  2.5180 -0.5498 -0.8120
 5550TIP3   OH238064   4.725   5.637  12.554 -0.4180 -0.2693 -0.1927
 5550TIP3    H138065   4.739   5.693  12.478 -0.1213 -0.1483 -0.0491
 5550TIP3    H238066   4.743   5.549  12.522 -1.8569 -0.4185 -0.6903
 5551TIP3   OH238067   6.258   3.707   2.643 -0.5753  0.1941 -0.0398
 5551TIP3    H138068   6.204   3.656   2.703 -0.7462 -0.5415 -0.7971
 5551TIP3    H238069   6.228   3.681   2.556 -0.1154  1.0002 -0.4482
 5552TIP3   OH238070   1.947   2.474  16.644  0.2605 -0.0171  0.1933
 5552TIP3    H138071   1.965   2.487  16.737 -0.6771 -1.0959  0.5455
 5552TIP3    H238072   1.977   2.385  16.626 -1.4314 -0.5769 -0.0198
 5553TIP3   OH238073   5.145   4.672   1.720 -0.2905  0.3463 -0.3034
 5553TIP3    H138074   5.181   4.755   1.751  0.7255 -0.1431 -0.1319
 5553TIP3    H238075   5.124   4.688   1.628 -0.1529  0.8051 -0.2571
 5554TIP3   OH238076   4.082   4.860   4.814 -0.5344 -0.1361  0.7241
 5554TIP3    H138077   4.009   4.921   4.805  0.4153  0.8896 -0.3791
 5554TIP3    H238078   4.150   4.910   4.859  0.2059 -0.3934 -0.0696
 5555TIP3   OH238079   5.783   1.744   1.609  0.3088  0.1809  0.3894
 5555TIP3    H138080   5.763   1.663   1.561 -4.0477  1.7825 -0.9962
 5555TIP3    H238081   5.756   1.726   1.699 -0.4219 -0.0373  0.1378
 5556TIP3   OH238082   5.741   3.094   0.412  0.3486  0.6771  0.0172
 5556TIP3    H138083   5.741   3.005   0.378  0.0082  1.2356 -1.5256
 5556TIP3    H238084   5.648   3.119   0.415  0.3567  0.6539  1.4229
 5557TIP3   OH238085   2.340   2.900   4.405  0.2794  0.0671  0.3716
 5557TIP3    H138086   2.411   2.878   4.344 -0.9650  1.6324 -1.7672
 5557TIP3    H238087   2.341   2.995   4.410  1.0489  0.0242  3.8228
 5558TIP3   OH238088   1.316   1.181  14.472  0.0732 -0.0745 -0.1252
 5558TIP3    H138089   1.259   1.251  14.503  0.2579  0.2670 -0.5250
 5558TIP3    H238090   1.338   1.131  14.550 -1.0116 -0.3992 -0.0158
 5559TIP3   OH238091   5.641   5.875   3.305  0.5919 -0.1239  0.9118
 5559TIP3    H138092   5.715   5.818   3.282 -0.7411 -1.9849  1.0062
 5559TIP3    H238093   5.588   5.821   3.364 -0.2800  1.5778  1.7267
 5560TIP3   OH238094   1.270   5.688  15.528  0.0940 -0.5267  0.1107
 5560TIP3    H138095   1.310   5.600  15.530  0.1947 -0.4831  1.6004
 5560TIP3    H238096   1.212   5.689  15.604 -0.5041  0.4430 -0.3411
 5561TIP3   OH238097   2.965   1.158   4.830 -0.5258  0.1440  0.1172
 5561TIP3    H138098   2.990   1.246   4.801 -1.0332  0.4555  0.6047
 5561TIP3    H238099   2.879   1.170   4.870  0.1659 -0.2454  1.8329
 5562TIP3   OH238100   0.425   1.826  11.152 -0.0743  0.6399  0.2142
 5562TIP3    H138101   0.398   1.880  11.078 -1.4192 -0.0192  0.1953
 5562TIP3    H238102   0.409   1.736  11.124 -1.7863  0.4191  1.7149
 5563TIP3   OH238103   2.851   4.165  15.488  0.0317 -0.1027  0.3127
 5563TIP3    H138104   2.824   4.103  15.556  0.4006 -0.1233  0.4470
 5563TIP3    H238105   2.823   4.126  15.406 -1.7404  0.6084  0.5343
 5564TIP3   OH238106   3.308   3.908   0.168  0.2315 -0.4673 -0.0788
 5564TIP3    H138107   3.358   3.841   0.214 -2.2823 -2.0105  0.5998
 5564TIP3    H238108   3.327   3.893   0.075  3.5542  1.2098  0.1924
 5565TIP3   OH238109   4.205   0.506   1.879  0.6327 -0.1219  0.0415
 5565TIP3    H138110   4.184   0.476   1.790  0.8074  0.1074 -0.0784
 5565TIP3    H238111   4.145   0.456   1.935 -0.1579  0.4351 -0.2859
 5566TIP3   OH238112   1.323   1.636   6.240  0.2014  0.5544 -0.2591
 5566TIP3    H138113   1.370   1.684   6.308  0.5983  0.7117 -0.6383
 5566TIP3    H238114   1.252   1.695   6.213  0.3156  0.6745 -0.2959
 5567TIP3   OH238115   2.489   3.722  11.972 -0.0508  0.1561 -0.5891
 5567TIP3    H138116   2.406   3.702  11.930 -1.4752  2.1896  1.0572
 5567TIP3    H238117   2.481   3.683  12.059 -0.5189  2.6550  0.5788
 5568TIP3   OH238118   6.672   3.121   5.322  0.1810 -0.0438 -0.6651
 5568TIP3    H138119   6.701   3.186   5.387  0.7453 -0.4307 -0.5209
 5568TIP3    H238120   6.700   3.157   5.238 -1.6028  1.0463 -0.8492
 5569TIP3   OH238121   4.378   2.735  14.337  0.4480  0.1463 -0.4047
 5569TIP3    H138122   4.299   2.736  14.390 -0.1219 -0.3781 -1.2130
 5569TIP3    H238123   4.396   2.642  14.323  0.3481  0.2721 -1.4559
 5570TIP3   OH238124   4.728   3.162  15.893  0.4236  0.9410 -0.5120
 5570TIP3    H138125   4.720   3.256  15.911  2.1960  0.9606  0.3146
 5570TIP3    H238126   4.680   3.120  15.964 -0.3243  1.1866 -0.8510
 5571TIP3   OH238127   5.135   6.586  13.702  0.0265 -0.3370  0.3967
 5571TIP3    H138128   5.107   6.503  13.742 -0.9146 -0.4017 -0.3661
 5571TIP3    H238129   5.072   6.650  13.734  0.2676 -0.0669  0.3342
 5572TIP3   OH238130   5.278   4.113   0.434  0.0991  0.6378  0.3716
 5572TIP3    H138131   5.256   4.132   0.343 -2.4695 -1.2002  0.5225
 5572TIP3    H238132   5.272   4.198   0.478  0.2710  1.3609 -0.9486
 5573TIP3   OH238133   6.581   5.791   3.668  0.4434  0.3702 -0.4576
 5573TIP3    H138134   6.664   5.806   3.714 -0.0052  0.2220  0.4332
 5573TIP3    H238135   6.514   5.818   3.731 -0.2231 -0.7731 -0.6490
 5574TIP3   OH238136   0.531   1.123  12.269  0.6526  0.1191  0.5299
 5574TIP3    H138137   0.551   1.031  12.250  0.0033  0.2022 -0.6914
 5574TIP3    H238138   0.568   1.171  12.194  0.4656  0.7960  0.8624
 5575TIP3   OH238139   4.711   3.638  14.706  0.2493 -0.6633 -0.0607
 5575TIP3    H138140   4.727   3.727  14.673 -2.2128  0.3640  1.2095
 5575TIP3    H238141   4.770   3.631  14.782 -0.4678  0.4662  0.6428
 5576TIP3   OH238142   4.237   4.310   5.802  0.1962  0.5994  0.0819
 5576TIP3    H138143   4.236   4.283   5.893  1.2371  2.3126  0.6677
 5576TIP3    H238144   4.205   4.234   5.753  0.3380 -0.6131  1.7914
 5577TIP3   OH238145   5.498   2.754  14.124  0.3495 -0.1550  0.4348
 5577TIP3    H138146   5.468   2.807  14.197  0.0813 -1.0601  0.9915
 5577TIP3    H238147   5.565   2.697  14.162  1.8122  0.8770 -0.4922
 5578TIP3   OH238148   5.331   1.987   2.760 -0.5156  0.1741  0.4084
 5578TIP3    H138149   5.409   1.957   2.806 -0.2025  1.9261  1.0661
 5578TIP3    H238150   5.275   2.025   2.828 -0.9476  0.9483 -0.3575
 5579TIP3   OH238151   1.429   6.225  12.131 -0.1273 -0.0138 -0.5811
 5579TIP3    H138152   1.378   6.169  12.073 -0.0897  0.8184 -1.4408
 5579TIP3    H238153   1.364   6.277  12.179 -0.2162 -1.5104  1.0235
 5580TIP3   OH238154   0.306   6.255  13.976 -0.2387 -0.5656  0.1022
 5580TIP3    H138155   0.309   6.350  13.964  4.7014 -0.6630 -1.7980
 5580TIP3    H238156   0.324   6.243  14.069 -0.5194  0.3889  0.2933
 5581TIP3   OH238157   4.529   6.353  16.419 -0.1110  0.3260 -0.2235
 5581TIP3    H138158   4.458   6.333  16.481  0.4840 -0.1727  0.3101
 5581TIP3    H238159   4.604   6.303  16.451  0.3070  0.3325 -1.1565
 5582TIP3   OH238160   2.620   4.709   0.659  0.2733 -0.4648 -0.0006
 5582TIP3    H138161   2.531   4.727   0.627  0.1551 -2.0005 -0.5848
 5582TIP3    H238162   2.665   4.794   0.652 -0.8052  0.0756 -0.7799
 5583TIP3   OH238163   1.885   3.995   5.008  0.4969  0.1633  0.3438
 5583TIP3    H138164   1.961   4.001   4.949  2.0276  0.8693  2.2442
 5583TIP3    H238165   1.917   3.943   5.082 -0.6220  1.0961  1.5226
 5584TIP3   OH238166   4.427   5.536   2.390 -0.3167 -0.0502  0.0141
 5584TIP3    H138167   4.402   5.599   2.459 -2.2741  1.0337 -1.5772
 5584TIP3    H238168   4.348   5.485   2.375  0.7650 -1.8089  0.0846
 5585TIP3   OH238169   3.798   6.412  16.985  0.5205  0.1781 -0.6581
 5585TIP3    H138170   3.720   6.401  16.931 -1.6624  1.5937  1.9815
 5585TIP3    H238171   3.848   6.481  16.941 -0.4819  0.3468 -1.5843
 5586TIP3   OH238172   1.534   4.366  13.101 -0.4111  0.1082  0.1292
 5586TIP3    H138173   1.578   4.359  13.017 -4.2044  1.5313 -2.1939
 5586TIP3    H238174   1.449   4.405  13.082 -1.2297  1.2956  4.7509
 5587TIP3   OH238175   2.985   6.021   4.053 -0.3741 -0.1708 -0.2207
 5587TIP3    H138176   3.047   5.949   4.045  1.9050  1.6072  0.3022
 5587TIP3    H238177   2.949   6.033   3.966  1.8558  0.2211 -1.1539
 5588TIP3   OH238178   1.882   3.274  13.515  0.4349  0.6213 -0.7322
 5588TIP3    H138179   1.830   3.314  13.446  1.5694 -0.1314 -2.0735
 5588TIP3    H238180   1.913   3.348  13.568 -1.4421  1.1176 -0.2555
 5589TIP3   OH238181   0.207   1.776  10.964 -0.6448  0.0111 -0.3186
 5589TIP3    H138182   0.255   1.771  10.881 -1.5112  0.0429 -0.8407
 5589TIP3    H238183   0.165   1.690  10.972 -1.3627  0.3445 -0.4219
 5590TIP3   OH238184   3.540   2.782  15.962 -0.0571 -0.3857 -0.0484
 5590TIP3    H138185   3.620   2.786  15.910  0.7287 -1.5940  0.9954
 5590TIP3    H238186   3.469   2.785  15.898  0.8459 -0.5200 -1.0839
 5591TIP3   OH238187   5.664   6.029  14.929 -0.5900  0.4447 -0.7631
 5591TIP3    H138188   5.744   6.058  14.885  0.2238  1.7435  1.3952
 5591TIP3    H238189   5.608   6.107  14.932 -0.4392  0.5313  0.8129
 5592TIP3   OH238190   1.385   0.925  15.592 -1.0121  0.0497 -0.2443
 5592TIP3    H138191   1.383   0.830  15.594 -0.7877  0.0498  0.0381
 5592TIP3    H238192   1.471   0.947  15.557 -0.8917  0.1535  0.1167
 5593TIP3   OH238193   6.314   4.031   2.107 -0.4849 -0.3397 -0.0193
 5593TIP3    H138194   6.379   4.101   2.113 -0.3165 -0.3504 -1.3675
 5593TIP3    H238195   6.364   3.950   2.119 -0.5917 -0.2652  0.9866
 5594TIP3   OH238196   1.457   4.186  12.259  0.0756 -0.5058 -0.2226
 5594TIP3    H138197   1.492   4.237  12.332 -1.4897 -1.3326  1.1889
 5594TIP3    H238198   1.450   4.249  12.187  1.1809  0.4592  0.4779
 5595TIP3   OH238199   1.045   1.458   4.393 -0.0180  0.0787 -0.1993
 5595TIP3    H138200   1.098   1.486   4.468 -1.1909  0.1549  0.6334
 5595TIP3    H238201   1.102   1.400   4.343  0.3447 -1.1478  1.5409
 5596TIP3   OH238202   2.791   5.816  14.780 -0.8071 -0.1823  0.4737
 5596TIP3    H138203   2.850   5.891  14.789  0.0555 -1.0423  2.5660
 5596TIP3    H238204   2.709   5.854  14.747 -0.5070  1.7219  1.7503
 5597TIP3   OH238205   3.650   4.719   2.477 -0.2326  0.7772 -0.4678
 5597TIP3    H138206   3.701   4.719   2.396 -0.4802 -2.4634 -0.7386
 5597TIP3    H238207   3.559   4.726   2.448 -0.2963  0.0273 -0.4664
 5598TIP3   OH238208   5.653   4.266   3.236 -0.1031 -0.5524 -0.6444
 5598TIP3    H138209   5.605   4.276   3.154  0.0608  1.6810 -0.5272
 5598TIP3    H238210   5.586   4.243   3.300 -1.3206  3.0593 -0.3644
 5599TIP3   OH238211   1.424   5.316  12.253  0.3398 -0.6063 -0.4698
 5599TIP3    H138212   1.384   5.239  12.292  2.6681 -0.3250  2.7996
 5599TIP3    H238213   1.360   5.386  12.268  0.0207 -1.0725  0.3652
 5600TIP3   OH238214   1.686   5.646   4.640  0.4393  0.1957 -0.7008
 5600TIP3    H138215   1.631   5.576   4.604 -1.0325 -0.7247  2.8684
 5600TIP3    H238216   1.631   5.724   4.634  0.5055  0.2061 -1.1623
 5601TIP3   OH238217   4.377   2.989  15.441 -0.2217 -0.5434 -0.1440
 5601TIP3    H138218   4.453   2.974  15.497 -0.1961 -1.6041 -0.4487
 5601TIP3    H238219   4.357   3.082  15.453  1.1266 -0.2392 -0.0758
 5602TIP3   OH238220   3.692   4.630  16.806 -0.1884  0.0539 -0.1247
 5602TIP3    H138221   3.638   4.559  16.841  0.7844 -1.1159 -0.9142
 5602TIP3    H238222   3.669   4.706  16.860 -2.2711 -0.4897 -0.1531
 5603TIP3   OH238223   2.811   5.086  12.244  0.0810 -0.2890  0.7116
 5603TIP3    H138224   2.855   5.006  12.217 -1.2715 -0.4088 -1.3838
 5603TIP3    H238225   2.720   5.060  12.258 -0.3325  0.8056  0.1981
 5604TIP3   OH238226   6.122   2.526   3.700  0.6442 -0.0417 -0.3597
 5604TIP3    H138227   6.172   2.522   3.618 -0.1184  2.5611 -1.0449
 5604TIP3    H238228   6.035   2.496   3.676  0.9761 -1.4296  0.0729
 5605TIP3   OH238229   6.300   0.197   0.561 -0.1042 -0.0394  0.1141
 5605TIP3    H138230   6.210   0.170   0.546 -0.5663  0.0234  2.4525
 5605TIP3    H238231   6.300   0.235   0.648  1.7758  1.9378 -0.6533
 5606TIP3   OH238232   6.499   2.221  15.739 -0.3961 -0.2988 -0.1013
 5606TIP3    H138233   6.413   2.263  15.729 -0.4331 -0.2494  0.3615
 5606TIP3    H238234   6.496   2.184  15.828 -0.2180 -0.9449 -0.3575
 5607TIP3   OH238235   2.656   3.817  16.062 -0.2712 -0.1455 -0.3189
 5607TIP3    H138236   2.711   3.884  16.020  0.7986 -0.7288  0.1013
 5607TIP3    H238237   2.710   3.784  16.134 -2.2217  1.1319  1.8488
 5608TIP3   OH238238   1.548   5.566   0.510  0.2597 -0.1241 -0.4636
 5608TIP3    H138239   1.547   5.482   0.557  2.0565  0.0850  0.0110
 5608TIP3    H238240   1.503   5.626   0.569 -0.9320 -0.6978 -0.7519
 5609TIP3   OH238241   3.777   0.370  14.532  0.2694  0.2235  0.1233
 5609TIP3    H138242   3.753   0.451  14.577  0.7650  0.2260  0.3862
 5609TIP3    H238243   3.872   0.375  14.523  0.3387 -0.4838  0.4345
 5610TIP3   OH238244   1.223   4.572  14.989  0.6095 -0.0730  0.5416
 5610TIP3    H138245   1.280   4.509  15.033  0.6704 -1.0770 -0.9095
 5610TIP3    H238246   1.277   4.610  14.920 -0.4739 -1.1470 -0.9565
 5611TIP3   OH238247   1.234   6.735   1.128 -0.1660 -0.4270  0.2985
 5611TIP3    H138248   1.240   6.754   1.222  1.2055 -1.5763  0.4731
 5611TIP3    H238249   1.201   6.645   1.124  0.9247 -0.8190 -0.2706
 5612TIP3   OH238250   2.845   2.940  14.695 -0.2008  0.4598 -0.5525
 5612TIP3    H138251   2.869   3.032  14.697 -0.4252  0.6139 -2.9377
 5612TIP3    H238252   2.847   2.916  14.603  0.9169 -2.2213  0.0745
 5613TIP3   OH238253   4.916   3.712  13.834 -0.3545  0.5376 -0.2557
 5613TIP3    H138254   4.978   3.731  13.904 -1.1651  0.0087  0.6235
 5613TIP3    H238255   4.854   3.651  13.873 -0.9023  0.3448 -1.3995
 5614TIP3   OH238256   3.955   5.394  16.227  0.1759 -0.0527 -0.2211
 5614TIP3    H138257   3.863   5.401  16.251  0.2364 -0.5189  0.1459
 5614TIP3    H238258   4.003   5.419  16.306  0.3797 -1.7756  0.2237
 5615TIP3   OH238259   2.787   4.969  14.784 -0.7163  0.3562 -0.4643
 5615TIP3    H138260   2.835   5.036  14.833 -0.7303  0.2921 -0.3619
 5615TIP3    H238261   2.824   4.973  14.696  0.7285 -0.8699  0.0259
 5616TIP3   OH238262   0.508   5.521   0.688  0.1908  0.0027  0.2539
 5616TIP3    H138263   0.453   5.597   0.668  1.7132  1.5197  1.4280
 5616TIP3    H238264   0.534   5.487   0.603 -2.2519 -0.5754 -0.3219
 5617TIP3   OH238265   4.471   0.277   0.335  0.4848  0.0940 -0.1004
 5617TIP3    H138266   4.475   0.191   0.378  1.7823  0.3350  0.2951
 5617TIP3    H238267   4.452   0.257   0.244 -3.0503 -0.4086  0.5924
 5618TIP3   OH238268   5.214   3.493  11.565 -0.0821  0.2583  0.0156
 5618TIP3    H138269   5.244   3.569  11.515  1.1306  0.3635  0.8699
 5618TIP3    H238270   5.174   3.529  11.643 -0.4863  0.0435 -0.0896
 5619TIP3   OH238271   4.034   1.479   4.373  0.8238  0.0103  0.0696
 5619TIP3    H138272   3.951   1.432   4.378  0.6081 -0.1063 -2.9026
 5619TIP3    H238273   4.091   1.434   4.435 -1.1461 -0.1587  1.8818
 5620TIP3   OH238274   6.443   5.927   5.384 -0.5378 -0.2968 -0.2400
 5620TIP3    H138275   6.459   5.841   5.422 -1.8734 -0.1381  0.7406
 5620TIP3    H238276   6.522   5.945   5.333  0.9056 -0.9557  1.6363
 5621TIP3   OH238277   4.839   4.088   4.222  0.0971 -0.1413  0.3468
 5621TIP3    H138278   4.767   4.131   4.176  1.4972 -0.3933 -2.2440
 5621TIP3    H238279   4.892   4.159   4.257  0.9000  0.2432 -1.5364
 5622TIP3   OH238280   0.434   2.329   0.584  0.2613  0.1129 -0.0403
 5622TIP3    H138281   0.510   2.284   0.620  0.0539 -1.7603 -1.8087
 5622TIP3    H238282   0.369   2.326   0.654  1.3373  0.5599  1.0065
 5623TIP3   OH238283   5.886   6.381  13.440  0.1414  0.6253 -0.1691
 5623TIP3    H138284   5.946   6.348  13.507 -0.8192 -0.2848  0.2707
 5623TIP3    H238285   5.866   6.305  13.385 -0.9777  0.7965 -0.0242
 5624TIP3   OH238286   0.915   2.149  11.518 -0.8061 -0.0689  0.6211
 5624TIP3    H138287   0.997   2.188  11.549  0.5856 -1.8294 -0.6515
 5624TIP3    H238288   0.907   2.179  11.428 -1.5724  0.0628  0.7284
 5625TIP3   OH238289   3.073   0.524  16.681  0.2349  0.2123 -0.6594
 5625TIP3    H138290   3.082   0.525  16.776 -1.1800 -0.1320 -0.4919
 5625TIP3    H238291   3.061   0.616  16.657  1.0047  0.3399 -0.5510
 5626TIP3   OH238292   3.999   2.467   4.350  0.1536  0.5060  0.0063
 5626TIP3    H138293   4.053   2.502   4.421 -0.6916 -0.3784  1.1179
 5626TIP3    H238294   4.059   2.410   4.301  0.5650  0.5509  0.4414
 5627TIP3   OH238295   5.475   1.577  11.144  0.1842 -0.1312  0.4412
 5627TIP3    H138296   5.382   1.591  11.164 -0.6829 -1.5422 -2.1204
 5627TIP3    H238297   5.478   1.567  11.049  2.8152 -1.2904  0.5549
 5628TIP3   OH238298   1.156   1.958   4.573 -0.2464 -0.5431 -0.3057
 5628TIP3    H138299   1.101   1.996   4.641  1.0989  2.3662 -0.6989
 5628TIP3    H238300   1.186   2.033   4.522  1.0268 -2.3750 -2.4266
 5629TIP3   OH238301   6.564   0.228  16.157  0.2780 -0.1686  0.0646
 5629TIP3    H138302   6.636   0.290  16.173 -1.1335  2.0864 -1.6350
 5629TIP3    H238303   6.589   0.184  16.076 -0.2594  0.7287 -0.6127
 5630TIP3   OH238304   4.694   4.422  10.708 -0.4072  0.2142 -0.2179
 5630TIP3    H138305   4.641   4.361  10.657 -0.6465  1.1250 -1.0719
 5630TIP3    H238306   4.662   4.509  10.684  0.9082  0.7522 -0.1190
 5631TIP3   OH238307   2.342   0.588  17.004  0.0735 -0.0224 -0.0300
 5631TIP3    H138308   2.359   0.657  16.939 -1.6939 -0.3970 -0.9323
 5631TIP3    H238309   2.339   0.634  17.088  3.5059  0.3349  0.0510
 5632TIP3   OH238310   6.424   4.069  12.786  0.0174  0.2247  0.2238
 5632TIP3    H138311   6.377   4.052  12.867  0.5789 -0.7359  0.3597
 5632TIP3    H238312   6.507   4.022  12.795  0.6228  1.1156 -0.3931
 5633TIP3   OH238313   3.924   6.360  13.936  0.5335 -0.4618 -0.7385
 5633TIP3    H138314   3.987   6.338  14.005  1.5016 -0.8137 -1.7091
 5633TIP3    H238315   3.849   6.303  13.953  0.2415  0.2891  0.7094
 5634TIP3   OH238316   5.904   5.410  12.050  0.3769 -0.3067 -0.2921
 5634TIP3    H138317   5.839   5.480  12.040  0.2087 -0.5360 -0.9107
 5634TIP3    H238318   5.970   5.447  12.108  1.1532  1.0132 -1.9059
 5635TIP3   OH238319   2.238   1.682  10.581  0.2310  0.2628  0.1711
 5635TIP3    H138320   2.245   1.601  10.632  0.1325  0.3230  0.2820
 5635TIP3    H238321   2.191   1.743  10.639 -0.3737  0.1614 -0.2017
 5636TIP3   OH238322   5.929   1.032   1.576 -0.4791  0.2923  0.5666
 5636TIP3    H138323   5.882   0.990   1.504  2.7869 -0.8752 -1.0959
 5636TIP3    H238324   5.982   1.100   1.534  2.3082 -1.1031  1.5875
 5637TIP3   OH238325   3.855   4.253  12.487  0.5704 -0.2468 -0.3310
 5637TIP3    H138326   3.935   4.295  12.519  0.2330  1.0798 -1.1132
 5637TIP3    H238327   3.885   4.193  12.419  0.7978  2.1613 -2.5136
 5638TIP3   OH238328   0.151   2.994  10.876 -0.2699  0.4135  0.6948
 5638TIP3    H138329   0.116   2.973  10.790  0.2095 -0.1557  0.6281
 5638TIP3    H238330   0.146   3.090  10.882 -0.2924  0.4557  0.0301
 5639TIP3   OH238331   3.500   3.732   5.898 -0.0150  0.3641  0.1373
 5639TIP3    H138332   3.502   3.700   5.808  1.5143 -0.4834  0.4249
 5639TIP3    H238333   3.433   3.679   5.941 -0.4163  0.4452 -0.3781
 5640TIP3   OH238334   1.761   3.848   0.790  0.1311  0.3968 -0.9922
 5640TIP3    H138335   1.700   3.785   0.829  1.4664 -0.8247 -0.8028
 5640TIP3    H238336   1.731   3.858   0.700  0.8838 -1.8743 -1.5490
 5641TIP3   OH238337   5.652   6.495  14.568 -0.1116  0.2686  0.2286
 5641TIP3    H138338   5.595   6.491  14.491 -1.0400 -0.3987  0.9284
 5641TIP3    H238339   5.628   6.578  14.610  0.2950  0.5655 -0.1255
 5642TIP3   OH238340   4.132   6.373   4.021  0.4347 -0.5495 -0.3858
 5642TIP3    H138341   4.052   6.370   3.968  0.4482 -0.0740 -0.4338
 5642TIP3    H238342   4.102   6.360   4.111  0.2929 -0.2787 -0.3942
 5643TIP3   OH238343   0.428   2.590  17.249 -0.3711  0.3643  0.0933
 5643TIP3    H138344   0.376   2.576  17.170 -1.0720 -1.5748  0.8395
 5643TIP3    H238345   0.519   2.578  17.220 -0.1843  3.8185 -1.2278
 5644TIP3   OH238346   6.244   3.073   6.434  0.1994 -0.2098 -0.0150
 5644TIP3    H138347   6.247   2.985   6.398 -1.5681 -0.0530 -0.6325
 5644TIP3    H238348   6.298   3.069   6.513 -0.6308 -2.0956  0.4965
 5645TIP3   OH238349   5.891   4.981   1.336  0.0724 -0.5374 -0.1537
 5645TIP3    H138350   5.899   5.070   1.370  0.9463 -0.6334 -0.0899
 5645TIP3    H238351   5.964   4.973   1.274 -0.5092 -0.9248 -0.7931
 5646TIP3   OH238352   4.234   0.916  11.744 -0.2912  0.3062  0.7500
 5646TIP3    H138353   4.294   0.991  11.746 -1.0458  0.9426  0.2470
 5646TIP3    H238354   4.279   0.847  11.792  1.4781  0.2923 -0.8351
 5647TIP3   OH238355   6.113   2.186   0.602  0.0237 -0.5944 -0.0300
 5647TIP3    H138356   6.084   2.214   0.689  0.6860 -0.2808  0.0955
 5647TIP3    H238357   6.050   2.226   0.542  1.1463  1.5443  0.1112
 5648TIP3   OH238358   2.517   2.739   4.669 -0.3246  0.3410 -0.5127
 5648TIP3    H138359   2.604   2.705   4.688 -0.3133 -0.2498 -1.5127
 5648TIP3    H238360   2.518   2.756   4.574 -1.7616 -1.1562 -0.8556
 5649TIP3   OH238361   2.249   3.289   1.505  0.4955 -0.2180 -0.1453
 5649TIP3    H138362   2.210   3.231   1.440  1.8406  0.0713 -1.2427
 5649TIP3    H238363   2.253   3.374   1.462  1.8200 -0.1241  0.1312
 5650TIP3   OH238364   3.694   0.083  14.430 -0.4416 -0.2076 -0.2905
 5650TIP3    H138365   3.767   0.037  14.470  0.6608  1.1169 -0.7194
 5650TIP3    H238366   3.648   0.015  14.380 -0.1562 -1.2738  0.8303
 5651TIP3   OH238367   2.738   0.606   6.410  0.0704 -0.0520  0.2298
 5651TIP3    H138368   2.688   0.526   6.424 -0.2148  0.2163  0.7623
 5651TIP3    H238369   2.823   0.576   6.378  0.2811 -0.6225  1.2758
 5652TIP3   OH238370   2.468   4.920  15.757  0.4273 -0.1143 -0.4256
 5652TIP3    H138371   2.422   4.938  15.839  1.9171 -0.8861  0.6330
 5652TIP3    H238372   2.447   4.994  15.700  0.2046  0.9700  1.0208
 5653TIP3   OH238373   3.136   4.174  14.230  0.1034  0.1903  0.4640
 5653TIP3    H138374   3.131   4.097  14.174 -3.1511  1.1355 -0.7536
 5653TIP3    H238375   3.172   4.243  14.174 -1.9559  0.8070 -0.1974
 5654TIP3   OH238376   0.541   4.054  10.897  0.4901 -0.6028 -0.0820
 5654TIP3    H138377   0.566   3.967  10.926 -0.2270 -0.1281  2.1282
 5654TIP3    H238378   0.460   4.041  10.848  1.2254 -1.3223 -1.1525
 5655TIP3   OH238379   3.015   5.076  11.066 -0.5560  0.0396  0.3724
 5655TIP3    H138380   3.075   5.092  11.139  0.2088  2.4654 -0.6868
 5655TIP3    H238381   3.031   4.985  11.042  1.0305 -0.0521  1.6183
 5656TIP3   OH238382   2.050   0.972   5.080  0.4559 -0.6499 -0.2613
 5656TIP3    H138383   2.142   0.946   5.070  0.2488 -1.6393  0.2661
 5656TIP3    H238384   2.043   1.055   5.032  1.9016  0.0531  0.6731
 5657TIP3   OH238385   5.844   2.239   0.469 -0.6874  0.0364 -0.1738
 5657TIP3    H138386   5.814   2.158   0.509 -1.2650  0.7315  0.8459
 5657TIP3    H238387   5.858   2.217   0.377  0.8409 -1.6503  0.4007
 5658TIP3   OH238388   0.085   0.045   3.760  0.2520  0.4470 -0.6070
 5658TIP3    H138389   0.167   0.092   3.745  0.5945  0.0313 -0.0661
 5658TIP3    H238390   0.034   0.105   3.815  1.8512 -0.9270  2.6117
 5659TIP3   OH238391   4.745   1.556  13.075  0.0972  0.8290  0.0048
 5659TIP3    H138392   4.760   1.471  13.116 -0.6304  0.2218 -0.9368
 5659TIP3    H238393   4.788   1.619  13.133  0.9572 -0.2109  0.5231
 5660TIP3   OH238394   0.566   0.561   1.003  0.0319 -0.4134 -0.4079
 5660TIP3    H138395   0.661   0.548   0.997 -0.0414 -0.4003 -1.9850
 5660TIP3    H238396   0.542   0.520   1.086  1.4236 -0.3331  0.0675
 5661TIP3   OH238397   5.061   0.687  14.118  0.1460  0.2436  0.3201
 5661TIP3    H138398   4.978   0.688  14.071  0.2922 -1.9887 -0.0992
 5661TIP3    H238399   5.038   0.669  14.209  0.1222  0.5663  0.3800
 5662TIP3   OH238400   2.091   0.087  11.300  0.0742  0.6382 -0.2806
 5662TIP3    H138401   2.070   0.074  11.393  1.2962  0.0932 -0.0605
 5662TIP3    H238402   2.173   0.039  11.287  0.1218  1.0273 -1.5599
 5663TIP3   OH238403   6.373   1.812   1.983 -0.7002 -0.5198  0.1743
 5663TIP3    H138404   6.347   1.900   2.010  0.1584 -0.4773  0.9422
 5663TIP3    H238405   6.430   1.826   1.907 -0.7394 -0.4290  0.1618
 5664TIP3   OH238406   1.608   2.032   1.155  0.4504 -0.7042 -0.2426
 5664TIP3    H138407   1.686   2.069   1.197  0.0703  1.0463 -1.0159
 5664TIP3    H238408   1.642   1.983   1.080  0.8512 -0.2337 -0.3759
 5665TIP3   OH238409   5.074   1.661   3.798 -0.2807 -0.4643 -0.8001
 5665TIP3    H138410   5.023   1.679   3.719 -1.8982  1.1642  0.5310
 5665TIP3    H238411   5.147   1.723   3.795 -0.5959 -0.0921 -0.7963
 5666TIP3   OH238412   0.091   1.707   2.459 -0.0487  0.3480 -0.7117
 5666TIP3    H138413   0.086   1.723   2.554  0.1135  0.5036 -0.7312
 5666TIP3    H238414   0.075   1.613   2.451 -0.1083  0.3413 -0.5335
 5667TIP3   OH238415   2.531   5.452  15.607 -0.6257  0.2901 -0.3175
 5667TIP3    H138416   2.626   5.453  15.609 -0.5722 -0.4632 -1.4103
 5667TIP3    H238417   2.505   5.543  15.622  0.2870  0.6200 -0.7178
 5668TIP3   OH238418   4.594   3.215  16.880 -0.3601 -0.3083  0.0261
 5668TIP3    H138419   4.524   3.258  16.831  1.1662  0.8800 -1.2040
 5668TIP3    H238420   4.589   3.123  16.853 -2.7032 -0.7128  1.5459
 5669TIP3   OH238421   1.112   0.339  15.154 -0.3642 -0.1217  0.0659
 5669TIP3    H138422   1.195   0.293  15.138 -1.2973 -1.8020 -0.1532
 5669TIP3    H238423   1.078   0.300  15.234 -1.5361 -0.3408 -0.5220
 5670TIP3   OH238424   2.284   5.858   6.409 -0.3735  0.0345  0.1287
 5670TIP3    H138425   2.273   5.833   6.501  0.8005  2.1278  0.9032
 5670TIP3    H238426   2.377   5.844   6.392 -0.6740 -0.7984 -0.9281
 5671TIP3   OH238427   2.570   2.612   6.006  0.7307 -0.3427  0.9177
 5671TIP3    H138428   2.554   2.570   6.090  0.4038  0.3401  1.1958
 5671TIP3    H238429   2.613   2.694   6.027 -0.9207  0.6616  0.5410
 5672TIP3   OH238430   4.816   5.395  12.445 -0.6084 -0.0149 -0.2818
 5672TIP3    H138431   4.778   5.308  12.459  0.4070 -0.1936  1.6219
 5672TIP3    H238432   4.900   5.378  12.402 -0.7114  0.0970 -0.5351
 5673TIP3   OH238433   5.249   6.346   4.463 -0.0573  0.2360 -0.6029
 5673TIP3    H138434   5.332   6.353   4.417 -0.1255 -0.9225 -0.9277
 5673TIP3    H238435   5.184   6.332   4.394 -0.1687 -1.4433 -0.1953
 5674TIP3   OH238436   5.872   3.755  16.180  0.1626  0.3245 -0.6987
 5674TIP3    H138437   5.948   3.798  16.221  1.2779 -0.9422 -1.3717
 5674TIP3    H238438   5.898   3.664  16.170 -1.3124 -0.0614 -1.3321
 5675TIP3   OH238439   4.062   5.656  15.503 -0.2062  0.2356  0.1032
 5675TIP3    H138440   4.017   5.738  15.519 -1.0185 -0.3242  0.7587
 5675TIP3    H238441   3.992   5.593  15.484  0.2693 -0.7025  1.3411
 5676TIP3   OH238442   5.789   6.100   5.182 -0.4399 -0.3993  0.2047
 5676TIP3    H138443   5.795   6.195   5.194  2.7388 -0.6545  1.7413
 5676TIP3    H238444   5.697   6.085   5.160 -0.9512  3.0628 -0.7706
 5677TIP3   OH238445   4.752   4.595  12.674 -0.0398  0.3424  0.1602
 5677TIP3    H138446   4.682   4.566  12.733 -0.8382 -0.6512 -1.2218
 5677TIP3    H238447   4.833   4.575  12.722 -0.6508  1.1580  1.6192
 5678TIP3   OH238448   5.601   6.280   0.884 -0.2535 -0.3015 -0.1373
 5678TIP3    H138449   5.649   6.211   0.930 -2.2211 -2.3926 -1.0549
 5678TIP3    H238450   5.521   6.292   0.934 -0.0046  1.3167 -0.0567
 5679TIP3   OH238451   2.139   2.508   4.556  1.0269  0.4059 -0.8633
 5679TIP3    H138452   2.230   2.481   4.546  1.0061 -0.8534  1.6689
 5679TIP3    H238453   2.141   2.574   4.626 -0.0250  0.1357 -0.5564
 5680TIP3   OH238454   4.061   2.621  14.134 -0.0668 -0.2211  0.2181
 5680TIP3    H138455   4.052   2.711  14.163 -0.4766  0.1947 -1.1083
 5680TIP3    H238456   4.110   2.578  14.204  1.9022  1.4940 -0.0127
 5681TIP3   OH238457   5.470   4.251  13.621 -0.1266 -0.0242  0.0317
 5681TIP3    H138458   5.551   4.280  13.664 -0.7498  1.4253  0.3052
 5681TIP3    H238459   5.426   4.199  13.687  1.0883 -1.8232 -0.5134
 5682TIP3   OH238460   6.365   2.006   2.831 -0.2600 -0.0593 -0.2300
 5682TIP3    H138461   6.421   1.951   2.884 -0.7445  0.6451  1.0456
 5682TIP3    H238462   6.409   2.091   2.830 -0.5357  0.0852 -0.4823
 5683TIP3   OH238463   4.635   6.589  15.335 -0.1582  0.1013  0.3880
 5683TIP3    H138464   4.721   6.547  15.337 -0.7458 -1.3962 -1.9281
 5683TIP3    H238465   4.655   6.683  15.336  1.5957 -0.1903 -0.8295
 5684TIP3   OH238466   1.485   4.155  16.444 -0.3650  0.1297 -0.2779
 5684TIP3    H138467   1.497   4.171  16.351 -0.4083 -1.1287 -0.5171
 5684TIP3    H238468   1.569   4.119  16.474 -0.4877  0.1333  0.0839
 5685TIP3   OH238469   2.635   0.057  17.005 -0.5600 -0.1507 -0.6519
 5685TIP3    H138470   2.622   0.074  17.098  0.0326  1.6071 -0.8402
 5685TIP3    H238471   2.547   0.058  16.968 -0.7030  0.9004 -0.3425
 5686TIP3   OH238472   5.559   6.447  14.979 -0.0658  0.3647  0.0033
 5686TIP3    H138473   5.519   6.530  14.952 -0.8748 -0.0911 -0.2453
 5686TIP3    H238474   5.543   6.388  14.905 -1.0437 -0.4953  0.8690
 5687TIP3   OH238475   5.868   5.198   0.978  0.0553  0.0304  0.8529
 5687TIP3    H138476   5.882   5.287   0.947  0.0279 -0.1413  0.3379
 5687TIP3    H238477   5.773   5.184   0.970 -0.3478  0.7932  3.2440
 5688TIP3   OH238478   3.087   4.718  13.652 -0.1525 -0.1251 -0.6273
 5688TIP3    H138479   3.019   4.781  13.626  0.2286  1.8845  2.6958
 5688TIP3    H238480   3.165   4.745  13.603 -0.3012  1.3045 -0.1243
 5689TIP3   OH238481   0.076   4.121  13.597 -0.0069  0.1417  0.2444
 5689TIP3    H138482   0.064   4.216  13.596 -0.8740  0.0518  0.7381
 5689TIP3    H238483  -0.012   4.085  13.582  0.3766 -0.5878 -0.3576
 5690TIP3   OH238484   4.083   6.131   6.169  0.0742  0.3278 -0.0880
 5690TIP3    H138485   4.004   6.090   6.205  0.5606 -0.2825  0.3001
 5690TIP3    H238486   4.100   6.205   6.227  0.1429  0.0862  0.2028
 5691TIP3   OH238487   6.595   3.755   3.312  0.2015 -0.3929 -0.1692
 5691TIP3    H138488   6.504   3.786   3.321  0.5365  0.2565  1.2632
 5691TIP3    H238489   6.587   3.659   3.309 -0.4461 -0.4396  1.6530
 5692TIP3   OH238490   4.997   2.149   0.389  0.0225  0.7649  0.3595
 5692TIP3    H138491   4.930   2.091   0.352  0.0269  0.7883  0.3151
 5692TIP3    H238492   5.021   2.108   0.472 -1.3473  1.7025  1.2587
 5693TIP3   OH238493   4.985   1.767  12.831 -0.5623  0.2528 -0.1738
 5693TIP3    H138494   4.894   1.741  12.841 -0.4114 -0.5732 -0.7894
 5693TIP3    H238495   5.028   1.690  12.794 -0.0192  1.2886 -1.7846
 5694TIP3   OH238496   6.732   3.419  11.496  0.0697 -0.6549  0.1961
 5694TIP3    H138497   6.763   3.358  11.563  1.0885 -0.0238  0.3303
 5694TIP3    H238498   6.786   3.399  11.419  0.6915  0.3072  0.3624
 5695TIP3   OH238499   6.321   1.206   5.611  0.0408  0.3152 -0.0774
 5695TIP3    H138500   6.372   1.202   5.530  1.0451  0.3350  0.5333
 5695TIP3    H238501   6.382   1.177   5.679 -0.1317  2.2273  0.9545
 5696TIP3   OH238502   5.384   6.218  14.192  0.2101  0.8266 -0.2713
 5696TIP3    H138503   5.401   6.225  14.098 -0.3372 -1.1804 -0.5652
 5696TIP3    H238504   5.318   6.284  14.209  0.3716  1.2743 -1.2846
 5697TIP3   OH238505   6.085   6.380   4.785  0.5442 -0.2759  0.3395
 5697TIP3    H138506   6.027   6.307   4.807  1.9109 -1.9073 -1.1424
 5697TIP3    H238507   6.172   6.339   4.780  0.9478  0.7387 -3.6613
 5698TIP3   OH238508   4.318   4.204   0.178 -0.2425 -0.0403 -0.5222
 5698TIP3    H138509   4.289   4.172   0.264 -0.5059  1.8037  0.1333
 5698TIP3    H238510   4.413   4.193   0.179 -0.4370 -1.9182 -0.8404
 5699TIP3   OH238511   6.584   0.063   3.002  0.1540 -0.4962  0.0654
 5699TIP3    H138512   6.489   0.076   2.999  0.0463 -1.1967  0.4536
 5699TIP3    H238513   6.598  -0.026   2.969  0.7565 -0.0746 -0.8730
 5700TIP3   OH238514   1.132   4.391   1.379  0.4232  0.2923  0.0827
 5700TIP3    H138515   1.135   4.416   1.286  1.1351  0.4450  0.1429
 5700TIP3    H238516   1.038   4.385   1.399  0.2560 -1.0022 -0.9709
 5701TIP3   OH238517   6.632   6.694  12.586  0.3892  0.0269  0.1968
 5701TIP3    H138518   6.709   6.750  12.592  0.6443  0.1965 -3.0056
 5701TIP3    H238519   6.666   6.605  12.591  0.6999  0.1126 -0.3368
 5702TIP3   OH238520   5.626   5.201  15.955 -0.5074 -0.0308 -0.7037
 5702TIP3    H138521   5.689   5.248  16.009 -0.1630 -0.8380 -0.3851
 5702TIP3    H238522   5.637   5.239  15.867  1.3283 -0.9734 -0.9410
 5703TIP3   OH238523   4.276   3.555  16.255  0.1328 -0.4222  0.3853
 5703TIP3    H138524   4.309   3.643  16.240  1.2752 -0.6001  1.6919
 5703TIP3    H238525   4.344   3.498  16.218 -0.7538 -0.7780 -0.7600
 5704TIP3   OH238526   1.550   6.254  15.154  0.4853  0.3079  0.4387
 5704TIP3    H138527   1.478   6.282  15.211  0.8238 -0.6873  1.4115
 5704TIP3    H238528   1.508   6.234  15.071  0.0355  2.2041  0.1728
 5705TIP3   OH238529   1.649   0.706   1.526  0.0170  0.3055 -0.0558
 5705TIP3    H138530   1.660   0.739   1.615  0.2667  0.3708 -0.1116
 5705TIP3    H238531   1.657   0.611   1.534 -0.1131  0.2989  0.0129
 5706TIP3   OH238532   4.724   6.729  16.449  0.2679  0.5721  0.1063
 5706TIP3    H138533   4.733   6.713  16.543 -0.3437  0.5882  0.1725
 5706TIP3    H238534   4.802   6.779  16.426  1.2905 -0.8809  0.2617
 5707TIP3   OH238535   3.510   1.492   2.560  0.3117 -0.1575  0.8300
 5707TIP3    H138536   3.600   1.512   2.584  0.0836  0.2784  1.3519
 5707TIP3    H238537   3.462   1.491   2.643 -0.1725 -0.3358  0.5566
 5708TIP3   OH238538   0.411   3.052   3.959 -0.1850 -0.2476  0.0402
 5708TIP3    H138539   0.403   3.147   3.959 -1.2480 -0.3141 -0.8552
 5708TIP3    H238540   0.453   3.032   3.875 -0.5514 -0.5978 -0.0645
 5709TIP3   OH238541   3.306   4.573  14.624 -0.1922  0.1000 -0.0403
 5709TIP3    H138542   3.382   4.515  14.618  1.7222  2.5425 -0.5277
 5709TIP3    H238543   3.293   4.584  14.718  0.5490  0.2751  0.0476
 5710TIP3   OH238544   0.744   4.025  14.386  0.2102  0.0034 -0.1729
 5710TIP3    H138545   0.742   3.930  14.394  0.6805 -0.0688 -0.8482
 5710TIP3    H238546   0.674   4.045  14.325  1.4107 -0.0996 -1.6361
 5711TIP3   OH238547   5.439   1.237  10.491 -0.1132 -0.2340  0.0687
 5711TIP3    H138548   5.418   1.330  10.486 -0.1804 -0.3074 -2.0313
 5711TIP3    H238549   5.374   1.200  10.550 -0.9073  0.8397 -0.1209
 5712TIP3   OH238550   0.910   0.261  17.086 -0.5896 -0.1006  0.2122
 5712TIP3    H138551   0.982   0.202  17.110 -3.0335 -3.8261 -0.7113
 5712TIP3    H238552   0.833   0.224  17.128 -2.4935  1.9054 -1.2515
 5713TIP3   OH238553   1.198   3.169   1.006 -0.2888 -0.8954  0.1500
 5713TIP3    H138554   1.282   3.144   0.969  0.2150  0.5652  0.2487
 5713TIP3    H238555   1.193   3.123   1.089  1.6993  1.0687  1.4747
 5714TIP3   OH238556   5.750   4.075   1.329  1.2402 -0.7302 -0.1165
 5714TIP3    H138557   5.843   4.078   1.352  0.9076  0.3609  1.2760
 5714TIP3    H238558   5.745   4.011   1.258  3.1472 -0.2699 -0.7380
 5715TIP3   OH238559   3.353   5.045  14.103 -0.1054 -0.1409  0.5545
 5715TIP3    H138560   3.344   5.050  14.008  2.4643  0.9937  0.2656
 5715TIP3    H238561   3.276   5.089  14.137 -0.2688  0.9167 -1.0855
 5716TIP3   OH238562   5.646   2.429   4.183 -1.0434  0.3792 -0.6950
 5716TIP3    H138563   5.590   2.476   4.122 -0.8832 -1.3785 -2.2592
 5716TIP3    H238564   5.643   2.338   4.154  0.9675 -0.1105  0.4459
 5717TIP3   OH238565   4.034   6.204   5.130 -0.6897  0.3065  0.3124
 5717TIP3    H138566   3.972   6.164   5.190 -1.5277 -0.0586 -0.7620
 5717TIP3    H238567   4.116   6.158   5.145 -0.8326  0.3672  1.3137
 5718TIP3   OH238568   0.658   2.876  11.534 -0.0808 -0.1815  0.2835
 5718TIP3    H138569   0.661   2.964  11.571  0.6088 -0.6325  1.3453
 5718TIP3    H238570   0.643   2.890  11.441 -0.4564  1.0399  0.5073
 5719TIP3   OH238571   5.949   4.674  10.914  0.5519  0.0318 -0.2934
 5719TIP3    H138572   5.975   4.612  10.846  1.1132  0.1763 -0.2181
 5719TIP3    H238573   6.000   4.753  10.895 -0.3426  0.5593 -0.5336
 5720TIP3   OH238574   5.880   3.295   1.620 -0.0384 -0.4965 -0.0954
 5720TIP3    H138575   5.967   3.319   1.653  0.5507 -2.8213  0.2379
 5720TIP3    H238576   5.867   3.350   1.543  1.8454 -0.2455 -0.2779
 5721TIP3   OH238577   1.186   0.945   5.153 -0.1158  0.7340 -0.0636
 5721TIP3    H138578   1.135   0.889   5.212 -0.2947  1.9413  0.9609
 5721TIP3    H238579   1.267   0.896   5.138 -0.3967  0.0582  0.5706
 5722TIP3   OH238580   4.636   0.253   0.966  0.7745 -0.3124  0.4343
 5722TIP3    H138581   4.666   0.316   1.031  1.5066 -1.7420  1.5723
 5722TIP3    H238582   4.652   0.168   1.008 -1.2211 -1.2320 -0.5693
 5723TIP3   OH238583   4.709   5.022  13.472  0.1363 -0.4524  0.6094
 5723TIP3    H138584   4.735   5.107  13.434  0.5474  0.0990  2.0322
 5723TIP3    H238585   4.766   5.013  13.549  1.4981 -2.9779 -0.5894
 5724TIP3   OH238586   5.568   4.806  10.568  0.2154 -0.6045 -0.7783
 5724TIP3    H138587   5.502   4.746  10.531  1.0956 -1.4612 -0.9899
 5724TIP3    H238588   5.638   4.749  10.598  0.1129  0.1672  1.0542
 5725TIP3   OH238589   0.868   5.670  14.439 -0.3558 -0.4691  0.2046
 5725TIP3    H138590   0.915   5.748  14.409 -2.6126  0.3260 -1.5835
 5725TIP3    H238591   0.897   5.601  14.380 -0.8843 -0.1318 -0.4706
 5726TIP3   OH238592   0.560   4.091  11.318  0.3873  0.6208  0.2102
 5726TIP3    H138593   0.486   4.087  11.377  0.3961 -0.5055  0.1589
 5726TIP3    H238594   0.586   4.183  11.319  0.7341  0.5534  2.3775
 5727TIP3   OH238595   1.742   2.976  13.017  0.5006  0.0753 -0.2856
 5727TIP3    H138596   1.826   2.960  13.060  1.1998 -0.4714 -1.7799
 5727TIP3    H238597   1.704   2.889  13.007  0.2319  0.2223 -0.5529
 5728TIP3   OH238598   1.011   5.013   2.081 -0.0302 -0.3733 -0.0407
 5728TIP3    H138599   0.988   5.004   2.173  1.4446  0.2978  0.4173
 5728TIP3    H238600   1.090   4.960   2.070  0.9866  1.1566 -0.4222
 5729TIP3   OH238601   5.816   3.622   6.810  0.2952 -0.5142  0.0690
 5729TIP3    H138602   5.754   3.589   6.877 -0.3719 -0.6439 -0.5957
 5729TIP3    H238603   5.762   3.634   6.732  0.9222  0.3549 -0.2419
 5730TIP3   OH238604   2.970   4.118  17.174 -0.1924  0.7458  0.4839
 5730TIP3    H138605   2.929   4.062  17.240  0.9538  1.1756  1.6247
 5730TIP3    H238606   2.990   4.199  17.222  3.1281  0.1008  0.4367
 5731TIP3   OH238607   1.088   6.669  16.815  0.1284 -0.0823  0.6676
 5731TIP3    H138608   1.069   6.760  16.839 -1.3641  0.0229 -0.7279
 5731TIP3    H238609   1.129   6.632  16.893 -0.3723  1.4433  1.7085
 5732TIP3   OH238610   5.286   5.372   4.728 -0.1307  0.2599 -0.2355
 5732TIP3    H138611   5.308   5.289   4.685 -0.6013  0.3497 -0.6531
 5732TIP3    H238612   5.194   5.386   4.707 -0.2943  0.4444  0.5734
 5733TIP3   OH238613   4.625   0.287   0.007 -0.4774  0.3560 -0.1069
 5733TIP3    H138614   4.672   0.267  -0.074 -0.5206  0.1988 -0.0945
 5733TIP3    H238615   4.625   0.382   0.012  0.9047  0.3448  0.5133
 5734TIP3   OH238616   5.440   5.467   3.952 -0.5787  0.0038 -0.2684
 5734TIP3    H138617   5.437   5.453   4.047 -0.2965 -1.5402 -0.4598
 5734TIP3    H238618   5.455   5.380   3.915  0.7080  0.7779 -1.6769
 5735TIP3   OH238619   1.995   2.516  17.121  0.2192  0.0583 -0.1710
 5735TIP3    H138620   2.069   2.476  17.168 -1.3879 -2.1190  0.6914
 5735TIP3    H238621   1.959   2.579  17.183  0.6744  0.3281 -0.1723
 5736TIP3   OH238622   6.120   1.385  16.678  0.1991  0.2142 -0.1038
 5736TIP3    H138623   6.188   1.409  16.615  0.9687 -0.6370  0.3776
 5736TIP3    H238624   6.168   1.366  16.759 -0.6597  0.0402  0.3760
 5737TIP3   OH238625   1.895   2.388  12.212 -0.2336 -0.5327  0.2700
 5737TIP3    H138626   1.980   2.371  12.171 -0.3079 -0.5313  0.1137
 5737TIP3    H238627   1.893   2.331  12.289  0.8463  1.0860  1.5780
 5738TIP3   OH238628   1.488   3.177   2.173  0.2631 -0.1813 -0.4527
 5738TIP3    H138629   1.541   3.156   2.250  1.0152 -0.2485 -0.9796
 5738TIP3    H238630   1.454   3.092   2.144  0.0370 -0.1647 -0.2394
 5739TIP3   OH238631   5.683   4.633   5.345  0.2029  0.5930 -0.5903
 5739TIP3    H138632   5.659   4.543   5.366 -2.1594  1.4016  0.4474
 5739TIP3    H238633   5.699   4.631   5.250 -1.0944 -0.6626 -0.8195
 5740TIP3   OH238634   2.499   1.906   4.331  0.1729 -0.1221  0.0265
 5740TIP3    H138635   2.467   1.863   4.251  0.7720 -0.3211 -0.1091
 5740TIP3    H238636   2.579   1.949   4.304  0.4100 -0.2407  0.5385
 5741TIP3   OH238637   2.788   2.621  17.192  0.6586 -0.1760  0.8300
 5741TIP3    H138638   2.713   2.680  17.182 -0.8411 -1.6760  2.4989
 5741TIP3    H238639   2.831   2.651  17.272  1.0959 -0.1183  0.5765
 5742TIP3   OH238640   0.770   3.194   6.385 -0.3803  0.3437  0.0130
 5742TIP3    H138641   0.683   3.205   6.347 -0.1587 -1.6497 -1.1852
 5742TIP3    H238642   0.754   3.144   6.465 -0.2808 -0.7150 -0.6179
 5743TIP3   OH238643   1.295   4.152   3.661  0.2494 -0.2248 -0.1751
 5743TIP3    H138644   1.350   4.126   3.586  0.7758  0.2158  0.0530
 5743TIP3    H238645   1.277   4.070   3.706  0.3809 -0.4255 -0.4809
 5744TIP3   OH238646   4.433   4.874  14.189  0.1057 -0.6492  0.5507
 5744TIP3    H138647   4.449   4.960  14.150 -0.1288 -0.2967  1.2059
 5744TIP3    H238648   4.498   4.867  14.259 -0.8424 -0.3373  1.4998
 5745TIP3   OH238649   4.396   4.688   5.843  0.4901  0.4526  0.0454
 5745TIP3    H138650   4.448   4.765   5.822  2.2115 -0.0059  2.2498
 5745TIP3    H238651   4.460   4.624   5.876 -1.4318 -0.0210  3.2570
 5746TIP3   OH238652   5.533   6.660   0.898  1.1030 -0.7128  0.2913
 5746TIP3    H138653   5.480   6.705   0.832  1.4198 -1.4964 -0.5101
 5746TIP3    H238654   5.471   6.602   0.942  0.7787  0.1849  1.0593
 5747TIP3   OH238655   3.293   3.672  13.137  0.4953  0.0042  0.1441
 5747TIP3    H138656   3.312   3.739  13.071 -2.2693 -0.0406 -0.8184
 5747TIP3    H238657   3.289   3.590  13.088 -3.5903  0.2196 -0.2274
 5748TIP3   OH238658   0.291   5.389   6.388 -0.1859  0.5342 -0.0410
 5748TIP3    H138659   0.202   5.402   6.356  0.0228  0.8045 -0.5216
 5748TIP3    H238660   0.323   5.477   6.407  0.6104  0.6144 -1.6140
 5749TIP3   OH238661   6.521   0.324   5.012 -0.0630  0.5870  0.0942
 5749TIP3    H138662   6.584   0.369   4.956 -0.1926  0.7528  0.0802
 5749TIP3    H238663   6.573   0.263   5.063  0.0038  0.1161 -0.5216
 5750TIP3   OH238664   5.302   3.457  14.236 -0.0203  0.6793 -0.7158
 5750TIP3    H138665   5.358   3.461  14.314  1.5571  0.6152 -1.7930
 5750TIP3    H238666   5.284   3.364  14.225  3.2101  0.1259 -2.6691
 5751TIP3   OH238667   4.695   5.740   3.526  0.1201 -0.6055 -0.0073
 5751TIP3    H138668   4.619   5.783   3.485  1.0893  1.4114  0.1677
 5751TIP3    H238669   4.658   5.692   3.600 -1.0933 -0.4148 -0.4615
 5752TIP3   OH238670   2.389   6.606  13.475 -0.0004  0.6201 -0.2088
 5752TIP3    H138671   2.301   6.582  13.448 -0.7141  0.6519  1.8997
 5752TIP3    H238672   2.404   6.692  13.435 -0.8885  0.5765 -0.6536
 5753TIP3   OH238673   3.543   3.984   3.084  0.2391 -0.3618 -0.2566
 5753TIP3    H138674   3.608   3.928   3.128 -0.0863  0.1675  0.9430
 5753TIP3    H238675   3.483   4.009   3.154  0.3482  1.4375 -0.7738
 5754TIP3   OH238676   6.374   2.846  16.340 -0.4277  0.4182 -0.0909
 5754TIP3    H138677   6.363   2.929  16.294  2.0923  1.0776  0.3443
 5754TIP3    H238678   6.463   2.818  16.319  0.0940 -0.3313  2.6343
 5755TIP3   OH238679   6.359   6.647  15.990 -0.0752 -0.5822 -0.1658
 5755TIP3    H138680   6.379   6.599  15.910  0.4041  0.0198 -0.4181
 5755TIP3    H238681   6.433   6.629  16.048  0.7065  0.7826 -0.7002
 5756TIP3   OH238682   2.919   1.001  10.909 -0.0585  0.1885 -0.2025
 5756TIP3    H138683   2.953   0.931  10.965 -0.5696  0.6496  0.7132
 5756TIP3    H238684   2.832   0.970  10.884 -0.6407  0.8424  0.9108
 5757TIP3   OH238685   1.519   3.733  11.792 -0.1464  0.2182  0.4570
 5757TIP3    H138686   1.573   3.657  11.771 -1.3493 -0.9145  1.3294
 5757TIP3    H238687   1.525   3.742  11.887 -1.0157  0.4333  0.4992
 5758TIP3   OH238688   1.285   0.701   1.274  0.1167  0.3788  0.1131
 5758TIP3    H138689   1.295   0.790   1.241  0.4655  0.2728 -0.0793
 5758TIP3    H238690   1.374   0.675   1.299  0.4139 -0.6877 -1.8715
 5759TIP3   OH238691   0.228   0.671   2.164  0.0547 -0.6271  0.3054
 5759TIP3    H138692   0.170   0.733   2.208 -0.1476 -0.3528 -0.3228
 5759TIP3    H238693   0.267   0.619   2.234  1.5774  1.3417  1.0368
 5760TIP3   OH238694   5.253   3.011  11.843 -0.5018  0.7594 -0.0358
 5760TIP3    H138695   5.293   3.081  11.895  3.9267 -1.5260  0.1024
 5760TIP3    H238696   5.230   3.053  11.760 -0.2430  2.8303  0.8757
 5761TIP3   OH238697   0.446   1.660  11.806 -0.3417  0.0113  0.6024
 5761TIP3    H138698   0.517   1.683  11.746 -0.6239  0.1326  0.3067
 5761TIP3    H238699   0.367   1.691  11.762 -0.5287  0.3767  1.1815
 5762TIP3   OH238700   5.883   3.939  16.552 -0.1629 -0.1048  0.7744
 5762TIP3    H138701   5.793   3.950  16.522  0.3490 -0.8818 -1.1981
 5762TIP3    H238702   5.921   3.877  16.491  2.9387  3.3545 -1.2402
 5763TIP3   OH238703   3.400   4.371   5.674  0.4575  0.2052 -0.4754
 5763TIP3    H138704   3.467   4.425   5.631  0.6466  0.9901  0.7377
 5763TIP3    H238705   3.437   4.353   5.761  0.4295 -1.9928 -0.8669
 5764TIP3   OH238706   3.516   3.094   2.844  0.9521  0.3978  0.1021
 5764TIP3    H138707   3.489   3.143   2.766 -0.6237  0.5301  0.7115
 5764TIP3    H238708   3.527   3.162   2.911 -2.3331 -0.0614  1.2682
 5765TIP3   OH238709   1.897   2.204  13.972 -0.1634 -0.6335  0.3950
 5765TIP3    H138710   1.869   2.165  13.889 -1.8325 -0.2207  0.7187
 5765TIP3    H238711   1.852   2.153  14.039 -0.7981  0.5627  0.9148
 5766TIP3   OH238712   1.005   4.086  13.915  0.0912 -0.0181  0.9568
 5766TIP3    H138713   0.972   4.070  13.826  0.3135  1.6406  0.5410
 5766TIP3    H238714   0.944   4.149  13.953  1.3058  1.1381  1.0937
 5767TIP3   OH238715   5.491   3.643   4.797 -0.8614  1.1881 -0.2967
 5767TIP3    H138716   5.503   3.664   4.705  0.7567  0.9481 -0.1804
 5767TIP3    H238717   5.522   3.553   4.805 -1.2493  1.1114  0.4223
 5768TIP3   OH238718   0.970   5.920   3.264  0.0299 -0.5333 -0.2350
 5768TIP3    H138719   1.011   5.847   3.218  1.1758 -1.0538  1.5082
 5768TIP3    H238720   1.009   5.998   3.223  1.0649 -0.9746 -0.1240
 5769TIP3   OH238721   2.583   1.167  17.208  0.0059  0.0136  0.0914
 5769TIP3    H138722   2.657   1.142  17.153  0.0692  0.1126  0.1317
 5769TIP3    H238723   2.562   1.256  17.180 -1.1190 -0.5762 -1.0252
 5770TIP3   OH238724   2.811   4.845  15.503  0.6189 -0.0090 -0.1998
 5770TIP3    H138725   2.841   4.825  15.415  4.0693 -2.2650  1.2659
 5770TIP3    H238726   2.756   4.771  15.528  1.2424 -0.3613  0.1627
 5771TIP3   OH238727   4.024   0.055  17.034 -0.0653  0.8698 -0.1971
 5771TIP3    H138728   3.934   0.061  17.003  0.0159 -0.5032 -0.7817
 5771TIP3    H238729   4.073   0.020  16.960  0.8143  0.9512  0.3336
 5772TIP3   OH238730   0.422   5.931   0.233  0.0837 -0.2823  0.1411
 5772TIP3    H138731   0.368   5.907   0.158  2.3829  0.2226 -1.7936
 5772TIP3    H238732   0.509   5.949   0.196  1.6284 -1.0570  3.0510
 5773TIP3   OH238733   6.212   4.230   1.886 -0.0655  0.1760 -0.0425
 5773TIP3    H138734   6.290   4.275   1.852 -1.0426  0.8958 -1.4483
 5773TIP3    H238735   6.226   4.138   1.863  0.5113  0.2423  0.0183
 5774TIP3   OH238736   1.379   5.386  10.800  1.1033 -0.5205 -0.1062
 5774TIP3    H138737   1.349   5.304  10.840  0.3595 -0.2468 -0.0830
 5774TIP3    H238738   1.303   5.444  10.805  1.6124  0.1550 -0.1721
 5775TIP3   OH238739   0.147   2.271   0.294  0.1048  0.2329  0.3677
 5775TIP3    H138740   0.097   2.277   0.213  0.9975  0.7253 -0.1522
 5775TIP3    H238741   0.206   2.347   0.293  0.8349 -0.3035  0.9845
 5776TIP3   OH238742   2.951   6.012  16.085 -0.3825 -0.8021 -0.3953
 5776TIP3    H138743   2.859   6.003  16.108 -0.1171  0.7489  1.5790
 5776TIP3    H238744   2.995   5.943  16.135 -0.5150 -2.2522 -2.1707
 5777TIP3   OH238745   3.252   2.572  14.721 -0.0991 -0.4424 -0.6639
 5777TIP3    H138746   3.197   2.515  14.667 -1.2554  0.1045 -0.0907
 5777TIP3    H238747   3.267   2.523  14.801  0.6048 -0.7539 -0.9757
 5778TIP3   OH238748   3.635   4.955   5.273 -1.1971 -0.1793 -0.2709
 5778TIP3    H138749   3.711   4.967   5.329 -1.2936 -0.7812  0.0045
 5778TIP3    H238750   3.668   4.970   5.184 -0.6196 -0.9796 -0.2040
 5779TIP3   OH238751   1.274   3.554  14.025 -0.4811 -0.1006  0.5129
 5779TIP3    H138752   1.280   3.614  13.951  2.1154 -0.4466  0.3622
 5779TIP3    H238753   1.299   3.606  14.101  0.7156 -0.6891  0.5410
 5780TIP3   OH238754   6.366   5.829   6.555 -0.3288 -0.4036  0.4145
 5780TIP3    H138755   6.404   5.743   6.573 -0.3845 -0.3870  0.6136
 5780TIP3    H238756   6.303   5.842   6.626  1.0447  0.6309  1.5177
 5781TIP3   OH238757   3.392   4.742   1.641 -0.0487 -0.0726 -0.1420
 5781TIP3    H138758   3.438   4.739   1.557  1.9655  1.1789  0.8561
 5781TIP3    H238759   3.325   4.674   1.634  1.3896 -1.3799 -2.0076
 5782TIP3   OH238760   0.951   3.609   5.904  0.1049  0.0333 -0.5398
 5782TIP3    H138761   0.941   3.696   5.943 -1.4494  0.1455 -1.1104
 5782TIP3    H238762   1.013   3.563   5.961 -1.8731  0.2683  1.9385
 5783TIP3   OH238763   3.434   2.361  15.324 -0.1065  0.0896  0.1186
 5783TIP3    H138764   3.460   2.306  15.399 -0.0571  1.2129  0.9509
 5783TIP3    H238765   3.466   2.313  15.248 -0.0613 -1.0347  0.8137
 5784TIP3   OH238766   3.088   0.589   3.956  0.0153 -0.6579 -1.0905
 5784TIP3    H138767   3.041   0.505   3.955 -0.4843 -0.3950 -0.3908
 5784TIP3    H238768   3.072   0.624   4.043 -0.3584  0.5028 -1.6051
 5785TIP3   OH238769   1.308   5.629  11.829  0.1074 -0.2332 -0.1313
 5785TIP3    H138770   1.248   5.584  11.888  0.0546  1.1981  0.9729
 5785TIP3    H238771   1.255   5.654  11.754 -0.5212  0.3523  0.4919
 5786TIP3   OH238772   5.410   2.078  16.704  0.5392  0.1089  0.5455
 5786TIP3    H138773   5.371   2.093  16.790 -0.6608  0.4641 -0.0438
 5786TIP3    H238774   5.394   1.986  16.686  1.6887 -0.2221  1.1224
 5787TIP3   OH238775   6.306   0.380   0.792 -0.0849  0.1493  0.8361
 5787TIP3    H138776   6.290   0.465   0.752  0.1767 -0.5366 -0.7919
 5787TIP3    H238777   6.376   0.397   0.856 -0.5251  1.2719  1.0451
 5788TIP3   OH238778   0.273   3.386  13.430  0.1880  0.0736 -0.1933
 5788TIP3    H138779   0.316   3.368  13.514  1.0750 -0.5668 -0.7753
 5788TIP3    H238780   0.307   3.320  13.370  0.1434  0.9838 -1.2594
 5789TIP3   OH238781   4.399   1.436   2.665 -0.4057  0.2722  0.3237
 5789TIP3    H138782   4.384   1.496   2.592  1.0893  0.8476  0.4651
 5789TIP3    H238783   4.344   1.471   2.736  0.4552  1.5006  0.4104
 5790TIP3   OH238784   2.560   0.228   3.921 -0.3521  0.1639  0.1002
 5790TIP3    H138785   2.528   0.187   4.000 -0.0536 -0.8527 -0.2910
 5790TIP3    H238786   2.486   0.279   3.888 -1.4772 -1.8393 -0.5911
 5791TIP3   OH238787   0.621   6.726   2.683  0.0691  0.2196 -0.0993
 5791TIP3    H138788   0.619   6.707   2.589 -1.0971 -0.3088  0.0082
 5791TIP3    H238789   0.602   6.642   2.724  3.5867 -0.2813  0.7778
 5792TIP3   OH238790   3.610   3.213  11.444 -0.6436  0.2232  0.6084
 5792TIP3    H138791   3.674   3.162  11.394 -0.6878 -0.7653  1.5289
 5792TIP3    H238792   3.530   3.207  11.392 -0.7630 -1.0223  0.8871
 5793TIP3   OH238793   4.927   1.852   2.255 -0.0017 -0.3221  0.0908
 5793TIP3    H138794   4.845   1.849   2.303 -0.0379 -0.7503  0.0093
 5793TIP3    H238795   4.924   1.776   2.198  0.4091 -0.2859  0.0159
 5794TIP3   OH238796   0.100   6.260   1.244  0.5948 -0.5887 -0.1687
 5794TIP3    H138797   0.141   6.207   1.312 -0.8334 -0.5085  0.8125
 5794TIP3    H238798   0.013   6.221   1.233  0.0776  0.6194 -0.5210
 5795TIP3   OH238799   6.381   4.915   4.580 -0.4721  0.0609  0.0478
 5795TIP3    H138800   6.305   4.946   4.529 -1.6035 -1.4201  0.7540
 5795TIP3    H238801   6.352   4.831   4.617  0.5184  0.7703  2.6343
 5796TIP3   OH238802   0.818   3.828  15.581 -0.3520  0.2342  0.5570
 5796TIP3    H138803   0.831   3.906  15.636  1.8384 -0.1034  0.6160
 5796TIP3    H238804   0.886   3.767  15.611 -0.6731 -0.8877 -0.9182
 5797TIP3   OH238805   2.035   3.920  13.324  0.0077 -0.0209  0.4027
 5797TIP3    H138806   2.054   3.866  13.247  1.6648  1.4387 -0.2903
 5797TIP3    H238807   2.081   3.876  13.395  2.2118  0.8744 -0.3482
 5798TIP3   OH238808   4.707   3.408   2.518  0.0004  0.2027  0.4992
 5798TIP3    H138809   4.721   3.325   2.471 -0.2179  0.9114 -0.8553
 5798TIP3    H238810   4.613   3.408   2.538  0.0778 -0.0571  0.8965
 5799TIP3   OH238811   3.317   2.692  10.792 -0.0255  0.2645  0.2313
 5799TIP3    H138812   3.403   2.651  10.800 -0.4771 -0.8369 -0.3489
 5799TIP3    H238813   3.287   2.667  10.705  0.1282  2.7624 -0.6188
 5800TIP3   OH238814   2.525   6.606   0.327 -0.0957  0.3788 -0.3084
 5800TIP3    H138815   2.561   6.691   0.354 -1.0665  0.5100  0.6692
 5800TIP3    H238816   2.575   6.542   0.376  0.0707  0.4393 -0.3989
 5801TIP3   OH238817   1.671   1.863  16.862 -0.3345 -0.0759  0.1063
 5801TIP3    H138818   1.646   1.771  16.854 -3.9694  0.8403 -0.9256
 5801TIP3    H238819   1.676   1.894  16.772  0.0933  0.9157  0.4587
 5802TIP3   OH238820   4.021   4.565  14.033 -0.0894  0.0775  0.3484
 5802TIP3    H138821   4.069   4.532  14.109 -1.2727 -0.9911  0.6419
 5802TIP3    H238822   3.971   4.639  14.067  1.0938  1.0373  0.0947
 5803TIP3   OH238823   6.171   4.000   1.664  0.1341 -0.5000 -0.5317
 5803TIP3    H138824   6.153   3.923   1.717 -0.3673 -0.0372 -0.0247
 5803TIP3    H238825   6.267   4.009   1.667  0.1786 -0.9660 -0.4170
 5804TIP3   OH238826   1.546   3.789  13.973 -0.0343 -0.3901 -0.4656
 5804TIP3    H138827   1.485   3.797  14.047 -0.8353 -0.7995 -1.0539
 5804TIP3    H238828   1.601   3.866  13.978  1.0086 -1.1992  1.5010
 5805TIP3   OH238829   2.463   1.979  14.133 -0.2834 -0.2346  0.6234
 5805TIP3    H138830   2.465   2.074  14.128  1.8693 -0.2892 -1.0211
 5805TIP3    H238831   2.378   1.954  14.098 -0.4403  1.0614  0.0401
 5806TIP3   OH238832   5.068   5.305  11.645 -0.1899  0.1529 -0.3162
 5806TIP3    H138833   5.075   5.314  11.550 -0.2770 -2.3293 -0.6182
 5806TIP3    H238834   5.004   5.235  11.658 -0.7074  0.9144  1.6193
 5807TIP3   OH238835   1.330   5.407  13.368  0.0402 -0.3255  0.1319
 5807TIP3    H138836   1.274   5.478  13.338 -2.7237 -2.4249 -0.1042
 5807TIP3    H238837   1.388   5.389  13.295  0.1843  1.0695 -0.1244
 5808TIP3   OH238838   6.493   6.202  14.867  0.3016 -0.0805 -0.0668
 5808TIP3    H138839   6.445   6.215  14.786  2.0676 -1.8148 -1.4953
 5808TIP3    H238840   6.510   6.290  14.900 -1.7215  0.6166 -0.7404
 5809TIP3   OH238841   3.091   1.629  11.008 -0.6454  0.0001 -0.0551
 5809TIP3    H138842   3.022   1.574  11.044  0.4441 -2.9460 -2.0171
 5809TIP3    H238843   3.168   1.608  11.060 -0.5277  0.8523  0.1270
 5810TIP3   OH238844   5.571   4.872   1.682  0.5653  0.2291  0.1927
 5810TIP3    H138845   5.562   4.900   1.591 -1.8849 -1.4188 -0.1944
 5810TIP3    H238846   5.608   4.947   1.727  4.0727  0.3579 -2.4856
 5811TIP3   OH238847   1.240   6.036   4.082  0.1883  0.3736  0.0355
 5811TIP3    H138848   1.161   6.073   4.121  0.4498  2.1984 -1.0198
 5811TIP3    H238849   1.295   6.112   4.064  0.6261 -0.4564 -2.6232
 5812TIP3   OH238850   5.489   6.609  10.904 -0.5154  0.9059 -0.4513
 5812TIP3    H138851   5.398   6.610  10.931 -1.2495  0.9800 -2.7418
 5812TIP3    H238852   5.511   6.700  10.884 -0.5288  0.6829 -1.5958
 5813TIP3   OH238853   5.270   5.697  14.284 -0.2190  0.0033 -0.1373
 5813TIP3    H138854   5.182   5.690  14.320 -0.1274  0.2362  0.1347
 5813TIP3    H238855   5.288   5.791  14.281 -0.3830  0.0120 -1.1840
 5814TIP3   OH238856   0.850   1.509  15.323  0.7467  0.1361  0.1835
 5814TIP3    H138857   0.788   1.571  15.361  1.7064  0.1124  1.8728
 5814TIP3    H238858   0.914   1.493  15.392  2.4811 -0.0848 -1.3869
 5815TIP3   OH238859   5.913   4.087   1.701 -0.3058  0.0394  0.2244
 5815TIP3    H138860   6.006   4.105   1.716 -0.2260 -0.7192  0.7252
 5815TIP3    H238861   5.873   4.174   1.691  0.4084  0.3861  0.2928
 5816TIP3   OH238862   4.681   4.637  11.167  1.1197  0.2348  0.4525
 5816TIP3    H138863   4.743   4.634  11.094 -0.2920 -1.3851 -0.7775
 5816TIP3    H238864   4.613   4.698  11.137  0.2833 -0.8087  0.1376
 5817TIP3   OH238865   2.415   5.386  15.858 -0.0345  0.2315  0.3853
 5817TIP3    H138866   2.326   5.396  15.891 -0.4813  0.0962 -0.7239
 5817TIP3    H238867   2.407   5.397  15.763  1.0988  0.0156  0.2472
 5818TIP3   OH238868   6.372   6.479  11.570 -0.1502 -0.1871  0.1236
 5818TIP3    H138869   6.329   6.550  11.619  0.7811  0.1420  0.4824
 5818TIP3    H238870   6.465   6.499  11.577  0.0483 -0.7233 -0.9017
 5819TIP3   OH238871   5.405   3.208   0.545  0.3943 -0.5360 -0.3779
 5819TIP3    H138872   5.468   3.224   0.475  0.4765  0.4239 -0.0996
 5819TIP3    H238873   5.457   3.168   0.615  0.1946 -2.0817 -1.0614
 5820TIP3   OH238874   5.725   6.743  13.282  0.6497  0.4152 -0.3160
 5820TIP3    H138875   5.772   6.819  13.249  1.2399 -0.2188 -0.9775
 5820TIP3    H238876   5.781   6.669  13.259 -0.2145 -0.2707 -0.2482
 5821TIP3   OH238877   1.981   4.079   2.838  0.3549 -0.1002 -0.2439
 5821TIP3    H138878   2.010   4.099   2.927  1.1659 -0.2593 -0.4621
 5821TIP3    H238879   2.063   4.067   2.789 -0.0406  1.1584 -1.2814
 5822TIP3   OH238880   0.514   5.410  15.654 -0.1954 -0.1477  0.0515
 5822TIP3    H138881   0.597   5.453  15.677  0.0026 -1.0451  1.0557
 5822TIP3    H238882   0.468   5.475  15.600  0.3604  1.0757  1.0065
 5823TIP3   OH238883   1.586   5.888  12.896 -0.0012  0.2626 -0.4244
 5823TIP3    H138884   1.500   5.873  12.936 -0.3698 -1.6404 -1.8041
 5823TIP3    H238885   1.603   5.981  12.910 -1.7946  0.4558  0.8082
 5824TIP3   OH238886   4.076   2.972   0.874 -0.4616 -0.2868  0.1396
 5824TIP3    H138887   4.142   2.935   0.932  3.9016  1.6222 -2.9848
 5824TIP3    H238888   4.103   2.943   0.786 -3.2897  1.4164 -1.4319
 5825TIP3   OH238889   2.611   0.719  16.380 -0.2686 -0.6095  0.2874
 5825TIP3    H138890   2.568   0.709  16.295 -0.7238  1.6695  0.1661
 5825TIP3    H238891   2.563   0.661  16.439 -2.0763  0.1547 -0.3607
 5826TIP3   OH238892   3.846   1.833  16.671  0.0886 -0.4918 -0.8546
 5826TIP3    H138893   3.760   1.825  16.712  0.8355  0.8696  1.1140
 5826TIP3    H238894   3.858   1.750  16.624 -2.9172 -0.1053 -2.5946
 5827TIP3   OH238895   5.414   5.970   4.294 -0.2607  0.0282 -0.4900
 5827TIP3    H138896   5.391   5.881   4.321  1.8074 -0.6195 -0.7071
 5827TIP3    H238897   5.352   5.990   4.223 -1.6538 -0.6549  0.4773
 5828TIP3   OH238898   1.300   5.073  11.910 -0.0248  0.5332  0.3344
 5828TIP3    H138899   1.344   5.003  11.958  2.8547  2.8261  1.3653
 5828TIP3    H238900   1.338   5.070  11.822 -0.4175  0.3700  0.1702
 5829TIP3   OH238901   6.042   4.647  15.217 -0.5656  0.3150 -0.4443
 5829TIP3    H138902   6.095   4.628  15.295  0.4592 -0.5941 -1.3267
 5829TIP3    H238903   6.105   4.678  15.152 -1.1157 -0.6299 -1.4644
 5830TIP3   OH238904   3.419   5.678  13.705 -0.2778  0.2083  0.7164
 5830TIP3    H138905   3.461   5.606  13.752  0.0858  0.1203  0.2640
 5830TIP3    H238906   3.387   5.736  13.773  1.8572  1.0356  1.1011
 5831TIP3   OH238907   1.614   6.580   0.347 -0.3981 -0.2239  0.2350
 5831TIP3    H138908   1.601   6.675   0.356  0.5612  0.0100 -0.5903
 5831TIP3    H238909   1.527   6.543   0.359 -1.5137  1.0629 -2.8309
 5832TIP3   OH238910   2.300   1.507  16.250 -0.0317  0.3625 -0.8067
 5832TIP3    H138911   2.371   1.558  16.289 -0.9255  1.6008 -0.7343
 5832TIP3    H238912   2.320   1.416  16.273  1.0629  0.7721 -0.0591
 5833TIP3   OH238913   2.640   4.576  16.228  0.0275 -0.0355 -0.5002
 5833TIP3    H138914   2.692   4.498  16.209 -0.5272 -0.2630 -1.1480
 5833TIP3    H238915   2.603   4.561  16.315  1.5764  0.4354  0.2613
 5834TIP3   OH238916   1.432   3.695   2.254 -0.1585  0.1797 -0.1442
 5834TIP3    H138917   1.528   3.692   2.249 -0.0277  0.8659  1.4042
 5834TIP3    H238918   1.406   3.756   2.186  0.4610 -0.3874 -0.9062
 5835TIP3   OH238919   4.103   4.169  14.005  0.4058  0.8346 -0.1453
 5835TIP3    H138920   4.034   4.123  13.958 -0.1321  1.3539  0.1342
 5835TIP3    H238921   4.058   4.231  14.062  0.9244 -0.9643  2.4130
 5836TIP3   OH238922   0.160   5.944   2.240 -0.1312 -0.2454 -0.5138
 5836TIP3    H138923   0.185   5.857   2.272  0.2883  0.8960  2.5615
 5836TIP3    H238924   0.153   5.998   2.318 -3.3231  1.8361 -1.9924
 5837TIP3   OH238925   1.773   3.850   1.905 -0.2859  0.0633 -0.1036
 5837TIP3    H138926   1.830   3.773   1.910 -0.1260  0.1084 -1.1042
 5837TIP3    H238927   1.782   3.892   1.991  0.3431 -0.5234  0.1261
 5838TIP3   OH238928   1.282   5.090  13.158  0.0520  0.1631  0.5926
 5838TIP3    H138929   1.295   5.062  13.248  2.2327 -0.2045  0.2146
 5838TIP3    H238930   1.230   5.019  13.118 -1.9419  0.8688  1.7680
 5839TIP3   OH238931   6.059   5.748   3.815  0.4661  0.2143 -0.0343
 5839TIP3    H138932   6.035   5.773   3.726  2.1464  0.8622 -0.3343
 5839TIP3    H238933   6.091   5.828   3.855 -1.6677  0.2931  1.7133
 5840TIP3   OH238934   3.253   6.258  15.316 -0.3014 -0.1467  0.3627
 5840TIP3    H138935   3.224   6.255  15.225  0.0409  0.4135  0.2290
 5840TIP3    H238936   3.218   6.340  15.350  2.3628  1.3659 -0.2644
 5841TIP3   OH238937   5.883   5.734  11.136 -0.1155 -0.2783 -0.2942
 5841TIP3    H138938   5.835   5.725  11.054 -0.2347 -1.0152 -0.1495
 5841TIP3    H238939   5.890   5.644  11.170 -0.2491  0.0433  0.6032
 5842TIP3   OH238940   3.379   2.950  12.557 -0.3074 -0.1526  0.0553
 5842TIP3    H138941   3.358   3.021  12.617  2.3379  0.3863  0.4696
 5842TIP3    H238942   3.421   2.994  12.482 -1.3895 -1.0351 -1.1107
 5843TIP3   OH238943   0.234   2.835   3.550  0.2711 -0.3337 -0.0116
 5843TIP3    H138944   0.194   2.920   3.529  0.2197 -0.8326 -2.1180
 5843TIP3    H238945   0.328   2.849   3.535  0.4790 -0.1978  1.3178
 5844TIP3   OH238946   3.948   5.074   1.232 -0.0866 -0.3880 -0.2998
 5844TIP3    H138947   4.040   5.083   1.206  0.0830  0.5799  0.5685
 5844TIP3    H238948   3.904   5.041   1.154  0.8372  0.0619 -1.0318
 5845TIP3   OH238949   1.530   6.035   0.087  0.0576  0.6411  0.2884
 5845TIP3    H138950   1.547   6.098   0.157 -0.4737  0.4755  0.5789
 5845TIP3    H238951   1.435   6.021   0.090  0.0113  0.7256 -0.5537
 5846TIP3   OH238952   1.137   6.285  12.196 -0.3244  0.1521 -0.1411
 5846TIP3    H138953   1.138   6.272  12.291 -1.1169  0.4048 -0.0873
 5846TIP3    H238954   1.060   6.236  12.166 -0.6400  0.8531 -0.5166
 5847TIP3   OH238955   0.342   5.857   5.620 -0.1977  0.3414  0.6421
 5847TIP3    H138956   0.361   5.864   5.714 -0.3864 -0.1574  0.7165
 5847TIP3    H238957   0.404   5.792   5.588  0.1520  0.8184  0.3340
 5848TIP3   OH238958   3.014   3.984   4.767 -0.1578 -0.3313 -0.0626
 5848TIP3    H138959   3.063   3.927   4.826  1.1130  1.7451  1.0140
 5848TIP3    H238960   3.048   3.965   4.680  0.1416 -1.2705  0.2465
 5849TIP3   OH238961   4.909   6.126  15.796 -0.1894 -0.5847  0.6808
 5849TIP3    H138962   4.987   6.071  15.786 -0.7598 -1.3721  0.4954
 5849TIP3    H238963   4.895   6.131  15.891 -0.7469 -1.6566  0.6717
 5850TIP3   OH238964   1.041   1.275   1.612  0.6164 -0.4186  0.0487
 5850TIP3    H138965   1.011   1.331   1.541  0.0156  0.0919  0.6933
 5850TIP3    H238966   1.114   1.226   1.574  1.8779  1.5660 -0.2408
 5851TIP3   OH238967   1.603   0.962  13.960 -0.4638  0.2910  0.2781
 5851TIP3    H138968   1.581   0.871  13.942 -0.0346  0.4985 -1.4682
 5851TIP3    H238969   1.577   0.975  14.051  0.0474 -1.7509  0.7827
 5852TIP3   OH238970   2.766   6.458   3.129 -0.9301  0.1227  0.4684
 5852TIP3    H138971   2.684   6.440   3.084 -0.2667 -0.3542 -0.5657
 5852TIP3    H238972   2.793   6.374   3.166 -1.4516  0.4962  1.7755
 5853TIP3   OH238973   2.441   0.373   4.194  0.2587 -0.1280 -0.7323
 5853TIP3    H138974   2.384   0.427   4.140 -0.1249  2.1593  1.7353
 5853TIP3    H238975   2.401   0.287   4.194 -2.2562  0.9574 -0.5186
 5854TIP3   OH238976   2.015   4.802   0.989  0.4157  0.1681 -0.3912
 5854TIP3    H138977   2.083   4.847   0.939  0.8652 -0.8295 -0.7271
 5854TIP3    H238978   1.981   4.867   1.049  1.5978  0.7300 -0.3068
 5855TIP3   OH238979   5.707   2.144   1.508  0.2487  0.4233  0.1483
 5855TIP3    H138980   5.661   2.061   1.516  0.1107  0.5256  0.4368
 5855TIP3    H238981   5.733   2.149   1.416 -0.7810  0.6054 -0.1456
 5856TIP3   OH238982   0.894   4.436  10.948 -0.5767  0.0696  0.0656
 5856TIP3    H138983   0.827   4.478  10.893 -2.2529 -0.1348  1.8511
 5856TIP3    H238984   0.913   4.354  10.904 -1.5342  0.1174 -0.4644
 5857TIP3   OH238985   4.358   0.590   1.176 -0.9385 -0.8420  0.1176
 5857TIP3    H138986   4.374   0.584   1.270 -1.2047 -2.3042  0.1034
 5857TIP3    H238987   4.264   0.605   1.168 -0.7015  0.7681  0.0888
 5858TIP3   OH238988   3.023   1.242   1.688  0.7187 -0.1325 -0.6797
 5858TIP3    H138989   3.081   1.287   1.750 -0.9124  0.6923  0.3517
 5858TIP3    H238990   3.047   1.277   1.603 -0.0340  2.3456  0.0110
 5859TIP3   OH238991   2.778   4.016  14.232  0.2667 -0.2867 -0.2151
 5859TIP3    H138992   2.814   3.991  14.317 -0.0572 -0.7368 -0.2052
 5859TIP3    H238993   2.821   3.958  14.169  0.6091  0.1415 -0.3748
 5860TIP3   OH238994   3.791   1.966   1.246 -0.6193 -0.2701  0.8071
 5860TIP3    H138995   3.727   1.907   1.206 -0.8415 -1.1560  2.3803
 5860TIP3    H238996   3.819   1.921   1.326  0.6310  0.9213  1.0891
 5861TIP3   OH238997   2.849   2.655   3.851 -0.1846 -0.4292 -0.3198
 5861TIP3    H138998   2.782   2.643   3.783  1.5266 -0.4511 -2.0691
 5861TIP3    H238999   2.931   2.632   3.808  1.4220  2.9285  0.6383
 5862TIP3   OH239000   1.270   1.833  15.929 -0.7852  0.0592  0.6234
 5862TIP3    H139001   1.299   1.806  16.016 -1.7370  1.1243  1.3115
 5862TIP3    H239002   1.181   1.799  15.922 -1.4500  1.6125  0.9096
 5863TIP3   OH239003   3.480   6.519  14.709 -0.0859 -0.1587  0.1641
 5863TIP3    H139004   3.450   6.458  14.642 -0.0443  0.9768 -0.9184
 5863TIP3    H239005   3.564   6.550  14.677  0.4020 -0.3257  1.2396
 5864TIP3   OH239006   4.497   5.942   1.566 -0.1559 -0.1086  0.0563
 5864TIP3    H139007   4.573   6.000   1.563  0.6253 -1.1124 -0.0208
 5864TIP3    H239008   4.480   5.928   1.659  2.5133 -3.3095  0.2653
 5865TIP3   OH239009   4.214   1.401  13.069  0.0914 -1.0177 -0.1547
 5865TIP3    H139010   4.300   1.444  13.075 -0.5219  0.3617 -0.7217
 5865TIP3    H239011   4.162   1.442  13.139 -1.1492  0.8023 -2.0315
 5866TIP3   OH239012   1.957   0.787  11.502  0.1323 -0.2170  0.2595
 5866TIP3    H139013   1.884   0.809  11.560  1.1981  2.5859  0.7157
 5866TIP3    H239014   1.939   0.836  11.421  0.4774 -1.1636 -0.4067
 5867TIP3   OH239015   0.315   4.409   5.239 -0.0870  0.3549 -0.3660
 5867TIP3    H139016   0.365   4.327   5.245 -1.1663 -0.2172  1.7167
 5867TIP3    H239017   0.377   4.477   5.265 -0.0513 -0.2244  1.1432
 5868TIP3   OH239018   5.786   4.872   2.273  0.3528 -0.0921 -0.4619
 5868TIP3    H139019   5.701   4.830   2.284  1.0545 -1.6719 -0.8729
 5868TIP3    H239020   5.841   4.806   2.231  2.2733  0.3161  1.2631
 5869TIP3   OH239021   0.684   0.514  13.257 -0.1144 -0.3577  0.2024
 5869TIP3    H139022   0.651   0.578  13.194 -0.0235  1.3660  1.8327
 5869TIP3    H239023   0.778   0.531  13.263  0.1711 -1.6314 -0.4119
 5870TIP3   OH239024   6.072   1.584   4.022 -0.3874  0.1870 -0.3385
 5870TIP3    H139025   6.105   1.497   4.045 -0.1856  0.3632  0.0478
 5870TIP3    H239026   6.036   1.574   3.934 -0.2249 -0.2515 -0.3552
 5871TIP3   OH239027   4.423   5.166  15.873 -0.2388 -0.4038  0.1031
 5871TIP3    H139028   4.472   5.191  15.951 -0.8655 -1.9952  1.0593
 5871TIP3    H239029   4.460   5.081  15.848  0.9035  0.6822 -2.2038
 5872TIP3   OH239030   3.055   1.601  11.479 -0.1605 -0.1696  0.0500
 5872TIP3    H139031   3.026   1.517  11.443 -1.1100 -0.2335  0.8973
 5872TIP3    H239032   2.986   1.625  11.542 -1.3335  2.5892 -2.0678
 5873TIP3   OH239033   2.053   1.008  12.164 -0.1080  0.1533  0.2353
 5873TIP3    H139034   2.063   1.076  12.231 -0.7766 -0.7564  1.2871
 5873TIP3    H239035   2.030   0.929  12.213 -2.5881 -0.0995 -1.1695
 5874TIP3   OH239036   3.615   2.225  13.188  0.5347 -0.0979  0.0333
 5874TIP3    H139037   3.576   2.195  13.270 -0.4558  0.0306 -0.3779
 5874TIP3    H239038   3.607   2.149  13.130  2.1838 -0.5533  0.3381
 5875TIP3   OH239039   4.325   1.688  17.213  0.2005 -0.4034  0.2306
 5875TIP3    H139040   4.274   1.730  17.144 -0.4343 -1.1833  0.2021
 5875TIP3    H239041   4.274   1.702  17.293  0.0344 -0.9991  0.2390
 5876TIP3   OH239042   6.539   6.200   0.338  0.6479  0.8270 -0.2693
 5876TIP3    H139043   6.445   6.185   0.348  1.0727 -1.2115  1.4423
 5876TIP3    H239044   6.564   6.148   0.262  0.6294 -0.1127  0.3406
 5877TIP3   OH239045   5.407   2.976   6.343 -0.2125 -0.5018  0.2642
 5877TIP3    H139046   5.330   3.032   6.354 -1.0191 -1.7881  1.3668
 5877TIP3    H239047   5.465   3.000   6.416 -1.2282 -2.1240  1.6504
 5878TIP3   OH239048   5.804   4.133   2.961 -0.0628  0.5035 -0.2643
 5878TIP3    H139049   5.732   4.188   2.991  0.5081  1.0534  0.1303
 5878TIP3    H239050   5.840   4.095   3.042 -0.6661 -0.7332 -0.5585
 5879TIP3   OH239051   6.157   0.139   4.030 -0.0734 -0.0980  0.0651
 5879TIP3    H139052   6.108   0.221   4.023 -0.2483 -0.1725  0.4017
 5879TIP3    H239053   6.207   0.148   4.111 -0.0145 -0.2829  0.0494
 5880TIP3   OH239054   5.981   0.864  16.982  0.2818 -0.0549 -0.2663
 5880TIP3    H139055   5.976   0.960  16.980 -1.1742 -0.1107 -1.5269
 5880TIP3    H239056   6.070   0.844  16.955  0.4859  0.9445 -0.3824
 5881TIP3   OH239057   0.848   2.785   0.281  0.4298 -0.1942  0.0067
 5881TIP3    H139058   0.878   2.808   0.193  2.6600  1.1573  1.0260
 5881TIP3    H239059   0.761   2.825   0.288  0.8742  1.0181 -1.0511
 5882TIP3   OH239060   3.764   1.921  15.309  0.8339 -0.1271  0.2012
 5882TIP3    H139061   3.818   1.844  15.329 -1.6125 -1.7414  1.0551
 5882TIP3    H239062   3.755   1.965  15.394 -0.3736 -0.7368  0.4171
 5883TIP3   OH239063   5.948   3.421   6.206  0.1664 -0.6889 -0.7006
 5883TIP3    H139064   5.983   3.399   6.292 -0.1764 -2.3576 -0.9569
 5883TIP3    H239065   6.007   3.488   6.172  0.6323 -0.4161  0.5937
 5884TIP3   OH239066   1.882   0.794   5.180  0.1188 -0.1246 -0.8505
 5884TIP3    H139067   1.941   0.857   5.139 -0.3934  0.7406 -0.2904
 5884TIP3    H239068   1.812   0.780   5.115  0.3795 -0.3476 -1.0881
 5885TIP3   OH239069   1.685   0.980  15.154  0.0987  0.2593 -0.1248
 5885TIP3    H139070   1.631   0.902  15.155  1.7793 -0.9859 -1.0345
 5885TIP3    H239071   1.750   0.966  15.223  1.2627  0.1566 -1.1993
 5886TIP3   OH239072   4.897   6.468  12.721  0.2157  0.0631 -0.4545
 5886TIP3    H139073   4.982   6.479  12.679  0.4667 -0.1634 -0.0120
 5886TIP3    H239074   4.879   6.553  12.762  1.2588 -0.4997  1.3136
 5887TIP3   OH239075   2.722   1.438   3.006 -0.2486  0.2808  0.5225
 5887TIP3    H139076   2.749   1.349   2.987  0.0848  0.2426  1.1352
 5887TIP3    H239077   2.716   1.441   3.102  0.8012  1.2075  0.5844
 5888TIP3   OH239078   4.974   5.764   4.172 -0.1378 -0.2942 -0.8156
 5888TIP3    H139079   4.998   5.785   4.081 -0.0234  0.8467 -0.5273
 5888TIP3    H239080   4.914   5.833   4.198  1.4538  0.6014  0.6612
 5889TIP3   OH239081   0.474   2.488   4.272 -0.2876  0.2335 -0.0369
 5889TIP3    H139082   0.403   2.452   4.326 -1.8640 -2.0181 -3.2911
 5889TIP3    H239083   0.488   2.576   4.307 -3.6828  0.2370  1.7394
 5890TIP3   OH239084   2.939   0.416   1.488 -0.0530 -0.4044 -0.0324
 5890TIP3    H139085   2.906   0.363   1.561 -1.2482 -0.1492 -0.3696
 5890TIP3    H239086   2.881   0.492   1.485  0.9000  0.3251 -0.3272
 5891TIP3   OH239087   5.566   6.310  12.207 -0.4271  0.8045  0.2017
 5891TIP3    H139088   5.473   6.299  12.189 -0.3998  2.8820 -1.5574
 5891TIP3    H239089   5.604   6.339  12.124  1.8436 -0.0744  0.8450
 5892TIP3   OH239090   6.675   1.920  12.687 -0.2812  0.0798  0.9310
 5892TIP3    H139091   6.648   1.829  12.674 -1.2805  0.2801  1.5452
 5892TIP3    H239092   6.674   1.957  12.598 -0.3772 -0.3708  0.7385
 5893TIP3   OH239093   3.617   1.231   1.511 -0.3624 -0.0006  0.7546
 5893TIP3    H139094   3.553   1.215   1.580  0.4204 -0.7079  1.3305
 5893TIP3    H239095   3.623   1.327   1.505 -0.6941  0.0655  1.4243
 5894TIP3   OH239096   6.448   6.629   2.260 -0.0126 -0.1295 -0.1025
 5894TIP3    H139097   6.450   6.709   2.313 -0.4286 -0.6895  0.7849
 5894TIP3    H239098   6.388   6.650   2.188 -1.2685 -0.0952  0.9101
 5895TIP3   OH239099   0.687   6.711  15.128 -0.1713  0.2106  0.3032
 5895TIP3    H139100   0.694   6.686  15.036  0.3137 -0.1091  0.4267
 5895TIP3    H239101   0.625   6.785  15.127  1.3688  1.5545 -0.5289
 5896TIP3   OH239102   6.033   1.202   5.728 -0.0731  0.1863 -0.4785
 5896TIP3    H139103   6.092   1.229   5.658 -0.7635  1.8671 -0.4661
 5896TIP3    H239104   6.076   1.231   5.809 -0.6078  0.8188 -0.4204
 5897TIP3   OH239105   2.101   5.830   4.678  0.2095  0.1025 -0.2130
 5897TIP3    H139106   2.149   5.857   4.599  0.2479 -2.2917 -1.0780
 5897TIP3    H239107   2.167   5.789   4.733  0.0994  1.4173  0.9487
 5898TIP3   OH239108   4.174   2.721  16.769  0.3272  0.5164  0.2292
 5898TIP3    H139109   4.260   2.719  16.727 -0.0932 -1.3937 -0.6034
 5898TIP3    H239110   4.111   2.719  16.697 -0.3907 -1.4949  0.8310
 5899TIP3   OH239111   0.542   0.653   4.367 -0.2790  0.0509  0.3798
 5899TIP3    H139112   0.467   0.677   4.422  0.2011 -0.7542  1.4306
 5899TIP3    H239113   0.568   0.734   4.325 -0.6675  0.7001  1.3510
 5900TIP3   OH239114   4.325   4.206  11.543 -0.1140 -0.1788  0.1775
 5900TIP3    H139115   4.331   4.132  11.483  2.9359 -1.4831  1.8784
 5900TIP3    H239116   4.257   4.182  11.606  0.1043 -1.0356  0.0901
 5901TIP3   OH239117   0.345   2.061  10.487  0.0756 -0.1750 -0.0915
 5901TIP3    H139118   0.406   1.988  10.481  0.8801  0.5233 -0.6172
 5901TIP3    H239119   0.401   2.138  10.499 -0.7817  0.2997  1.1154
 5902TIP3   OH239120   5.233   4.588   6.651  0.5381 -0.3566  0.5774
 5902TIP3    H139121   5.202   4.674   6.678  1.1355  0.1631 -0.3309
 5902TIP3    H239122   5.328   4.592   6.663  0.6028 -0.7786  0.2414
 5903TIP3   OH239123   5.653   1.501  15.431  0.4098 -0.6261 -0.1211
 5903TIP3    H139124   5.737   1.471  15.466  1.5888  1.4282 -1.0565
 5903TIP3    H239125   5.617   1.424  15.387  0.7965 -2.1142  1.9852
 5904TIP3   OH239126   3.471   2.778   1.090 -0.1077  0.3174  0.3176
 5904TIP3    H139127   3.512   2.802   1.007 -1.9785  0.5780 -0.5870
 5904TIP3    H239128   3.496   2.687   1.104  1.6410  0.7771  0.3832
 5905TIP3   OH239129   5.165   5.004  14.681  0.8372 -0.2661 -0.2043
 5905TIP3    H139130   5.156   5.100  14.681 -0.4836 -0.3746 -0.4934
 5905TIP3    H239131   5.164   4.981  14.774 -1.8651 -0.2036 -0.1229
 5906TIP3   OH239132   1.008   2.307   5.090  0.2687  0.0321  0.2099
 5906TIP3    H139133   0.955   2.333   5.015 -1.0370  0.4287  1.2373
 5906TIP3    H239134   0.945   2.273   5.154  0.9896  2.2344  2.2229
 5907TIP3   OH239135   3.567   2.012   2.412  0.1341  0.1366 -0.1485
 5907TIP3    H139136   3.644   2.055   2.376  0.7744  0.1298  1.1423
 5907TIP3    H239137   3.517   1.984   2.336  0.4439  1.8260 -1.0250
 5908TIP3   OH239138   1.836   0.570  14.797 -0.2275 -0.0590  0.1201
 5908TIP3    H139139   1.928   0.553  14.779 -0.7691  0.2648 -3.8200
 5908TIP3    H239140   1.788   0.515  14.736 -2.6077  1.1983  0.6975
 5909TIP3   OH239141   0.142   3.501   5.707 -0.0303 -0.8739  0.1606
 5909TIP3    H139142   0.058   3.546   5.700 -0.3264 -1.6096 -3.4675
 5909TIP3    H239143   0.207   3.571   5.706 -0.5775 -0.3295 -1.4856
 5910TIP3   OH239144   1.574   6.373   5.585 -0.0424  0.3558  0.0175
 5910TIP3    H139145   1.576   6.292   5.636 -0.3662 -0.1878 -0.8211
 5910TIP3    H239146   1.514   6.430   5.634  0.2023  0.1052  0.6240
 5911TIP3   OH239147   2.578   4.769   5.129  0.1240 -0.0900 -0.0343
 5911TIP3    H139148   2.626   4.694   5.093 -0.4230  0.3790 -1.8116
 5911TIP3    H239149   2.631   4.845   5.106  0.0724  0.1895  0.7232
 5912TIP3   OH239150   0.984   3.763   0.666 -0.2430  0.1688 -0.5717
 5912TIP3    H139151   1.065   3.784   0.619  1.0569  0.5424  1.6669
 5912TIP3    H239152   0.995   3.806   0.751 -0.5796 -3.8152  1.6860
 5913TIP3   OH239153   6.203   3.762  13.821 -0.0666  0.0133 -0.6953
 5913TIP3    H139154   6.277   3.721  13.776  0.5321  0.8249 -0.4749
 5913TIP3    H239155   6.220   3.747  13.914  0.0539  0.5751 -0.6231
 5914TIP3   OH239156   0.103   0.303  12.762  0.0986 -0.0916 -0.3283
 5914TIP3    H139157   0.064   0.298  12.849  0.8348  0.2006  0.0266
 5914TIP3    H239158   0.137   0.215  12.746  2.9128  0.6319  1.1057
 5915TIP3   OH239159   5.783   3.527   2.979  0.3765 -0.2493 -0.6629
 5915TIP3    H139160   5.722   3.486   2.918  0.3655 -0.6934 -0.3566
 5915TIP3    H239161   5.791   3.618   2.948 -3.1673  0.9263  1.3380
 5916TIP3   OH239162   5.717   5.209  16.238  0.2893  0.2704 -0.5261
 5916TIP3    H139163   5.787   5.234  16.177 -0.1247  0.1720 -1.0441
 5916TIP3    H239164   5.734   5.116  16.256  0.9924  0.5401  0.2966
 5917TIP3   OH239165   2.127   2.965   0.476  0.2694  0.6224  0.4381
 5917TIP3    H139166   2.211   3.009   0.471 -0.4975  2.0883 -0.2456
 5917TIP3    H239167   2.111   2.953   0.569  2.2904 -1.8996  0.5816
 5918TIP3   OH239168   2.602   0.426  16.102 -0.2972  0.1824  0.1130
 5918TIP3    H139169   2.548   0.379  16.038 -1.3827  1.7246 -0.1575
 5918TIP3    H239170   2.573   0.392  16.187 -0.3942 -0.3055 -0.1091
 5919TIP3   OH239171   3.815   1.704   5.670  0.4404  0.5821  0.1284
 5919TIP3    H139172   3.840   1.636   5.732 -0.4443 -0.7282 -0.9005
 5919TIP3    H239173   3.734   1.740   5.706  1.7478  2.2943  1.5361
 5920TIP3   OH239174   6.468   1.351   5.951 -0.0600  0.4870 -0.0052
 5920TIP3    H139175   6.534   1.353   6.021 -1.3234 -0.7951  1.2883
 5920TIP3    H239176   6.462   1.258   5.926 -0.4292  0.7760 -1.0491
 5921TIP3   OH239177   4.896   2.869   5.561  0.4854  0.1103 -0.8016
 5921TIP3    H139178   4.819   2.892   5.509  0.7012  1.9446 -0.3690
 5921TIP3    H239179   4.866   2.874   5.651  1.5898  3.1010 -0.5017
 5922TIP3   OH239180   6.296   5.566  13.797  0.2347  0.7208 -0.1349
 5922TIP3    H139181   6.289   5.493  13.858  0.1875  0.2095 -0.7437
 5922TIP3    H239182   6.387   5.594  13.803 -0.1136  1.6876  1.3041
 5923TIP3   OH239183   3.766   0.120   4.292  0.2995  0.4674  0.0028
 5923TIP3    H139184   3.735   0.155   4.209 -1.1462  0.0772  0.3465
 5923TIP3    H239185   3.803   0.196   4.338 -0.4908  1.0469 -0.2914
 5924TIP3   OH239186   4.999   6.508  11.064 -0.0629  0.2291 -0.1492
 5924TIP3    H139187   4.952   6.558  11.131 -0.3570  1.6025 -1.3242
 5924TIP3    H239188   4.994   6.417  11.093 -1.2857  0.6504  1.0253
 5925TIP3   OH239189   2.973   2.911  16.582  0.0310 -0.2255 -0.2306
 5925TIP3    H139190   2.953   2.939  16.492 -2.3785  0.9231  0.6001
 5925TIP3    H239191   3.049   2.964  16.607  0.4445 -0.2270 -1.4168
 5926TIP3   OH239192   2.702   6.509   4.757  0.0211  0.0489 -0.0512
 5926TIP3    H139193   2.742   6.422   4.757  2.3715  1.0592 -0.6638
 5926TIP3    H239194   2.773   6.568   4.732 -0.1987  2.7401  4.6159
 5927TIP3   OH239195   2.541   5.787  14.239 -0.6017 -0.1188  0.3443
 5927TIP3    H139196   2.491   5.807  14.160 -0.0451  1.2643  0.3096
 5927TIP3    H239197   2.476   5.757  14.302 -1.0467 -1.2864 -0.6336
 5928TIP3   OH239198   5.115   1.419   3.907 -0.2872 -0.1542 -0.2905
 5928TIP3    H139199   5.084   1.495   3.858 -1.7077 -2.0131 -2.4431
 5928TIP3    H239200   5.192   1.389   3.859  2.6672  1.9152  2.6441
 5929TIP3   OH239201   1.925   0.523  16.763 -0.0851  0.1293  0.4246
 5929TIP3    H139202   1.999   0.466  16.782  0.5557  0.4936 -0.8286
 5929TIP3    H239203   1.888   0.488  16.681 -0.2383  0.9741  0.1268
 5930TIP3   OH239204   4.281   1.652  14.883 -0.8242 -0.2868 -0.2512
 5930TIP3    H139205   4.255   1.563  14.905 -2.1038  0.1397  0.0984
 5930TIP3    H239206   4.371   1.660  14.913 -1.0626 -1.1254  0.7352
 5931TIP3   OH239207   2.284   2.419   1.865  0.0735  0.2261 -0.1027
 5931TIP3    H139208   2.245   2.332   1.873 -1.9821  0.8833 -1.9314
 5931TIP3    H239209   2.238   2.472   1.929 -0.4113  0.4845 -0.6549
 5932TIP3   OH239210   3.717   4.882   6.014 -0.0935 -0.3232  0.0941
 5932TIP3    H139211   3.649   4.949   6.026 -0.1222 -0.5548  1.3116
 5932TIP3    H239212   3.718   4.867   5.919 -2.6809 -1.2760  0.1170
 5933TIP3   OH239213   6.773   0.708  16.669  0.4471  0.1755  0.6238
 5933TIP3    H139214   6.720   0.782  16.700  0.6522 -0.1408  1.7935
 5933TIP3    H239215   6.863   0.733  16.687  0.5906  0.0805  0.0437
 5934TIP3   OH239216   5.155   6.390  14.213 -0.2906  0.1581 -0.0698
 5934TIP3    H139217   5.140   6.425  14.125 -0.2533 -0.3369 -0.2772
 5934TIP3    H239218   5.079   6.418  14.264 -1.9257 -2.2037 -1.0694
 5935TIP3   OH239219   2.668   0.402   3.395 -0.2604  0.0119  0.3372
 5935TIP3    H139220   2.588   0.354   3.418  0.6919 -1.4106  0.8301
 5935TIP3    H239221   2.721   0.401   3.475  0.2620  0.9448  0.0229
 5936TIP3   OH239222   1.480   1.472  16.914  0.0568  0.2998  0.2821
 5936TIP3    H139223   1.571   1.446  16.898  0.0558  0.2331  0.3839
 5936TIP3    H239224   1.466   1.546  16.855 -0.2022 -0.4556 -0.6321
 5937TIP3   OH239225   3.774   3.561  13.164 -0.7684 -0.1919  0.0870
 5937TIP3    H139226   3.697   3.534  13.213 -0.3147  0.3261  1.1315
 5937TIP3    H239227   3.780   3.655  13.179 -0.5608 -0.0416 -0.8988
 5938TIP3   OH239228   3.192   3.972   3.080  0.1214 -0.0264 -0.1078
 5938TIP3    H139229   3.215   3.879   3.080  0.7142  0.0937  1.3083
 5938TIP3    H239230   3.270   4.016   3.113 -1.3084  0.6124  2.7006
 5939TIP3   OH239231   0.986   4.412   1.662  0.1932 -0.0163 -0.5056
 5939TIP3    H139232   0.911   4.430   1.719 -0.9204  2.1839 -2.4684
 5939TIP3    H239233   1.060   4.404   1.722 -1.7072 -4.1211  1.7114
 5940TIP3   OH239234   1.886   5.402   1.209 -0.3779 -0.4346  0.3368
 5940TIP3    H139235   1.872   5.315   1.172 -2.6889 -0.4930  1.2266
 5940TIP3    H239236   1.905   5.386   1.301  0.5729 -0.0366  0.2246
 5941TIP3   OH239237   5.983   5.193   1.768 -0.1450 -0.4650 -0.0995
 5941TIP3    H139238   6.017   5.254   1.703 -0.8198 -1.0392 -1.0007
 5941TIP3    H239239   6.031   5.111   1.752  0.0837 -0.4549  0.4946
 5942TIP3   OH239240   0.504   2.976   6.213 -0.1402  0.4229 -0.4524
 5942TIP3    H139241   0.560   2.979   6.290 -0.8148 -1.4001  0.1544
 5942TIP3    H239242   0.537   3.047   6.157  0.6635  1.4726  1.2731
 5943TIP3   OH239243   3.888   2.384  15.028  0.2521  0.4369  0.4962
 5943TIP3    H139244   3.827   2.379  14.955 -0.7286  3.7453  0.9208
 5943TIP3    H239245   3.970   2.414  14.989 -0.0588  1.4622  0.5842
 5944TIP3   OH239246   5.673   2.700   5.169  0.0937 -0.3417 -0.4048
 5944TIP3    H139247   5.648   2.689   5.261 -1.2770  1.1873 -0.5485
 5944TIP3    H239248   5.702   2.791   5.163  1.2274 -0.7273 -1.2928
 5945TIP3   OH239249   5.414   2.040   1.263  0.1626 -0.0906 -0.3682
 5945TIP3    H139250   5.386   2.125   1.231  2.0876  2.0916  3.0320
 5945TIP3    H239251   5.508   2.038   1.246  0.3925 -0.8762  0.8510
 5946TIP3   OH239252   1.669   5.467  12.523  0.8907  0.7310 -0.1615
 5946TIP3    H139253   1.673   5.374  12.542  1.8234  0.5020 -1.3929
 5946TIP3    H239254   1.743   5.505  12.569 -0.9741  1.3335  2.5575
 5947TIP3   OH239255   3.558   2.586  15.009 -0.1418 -0.2886  0.4825
 5947TIP3    H139256   3.586   2.574  14.919 -0.3328  1.0203  0.2326
 5947TIP3    H239257   3.466   2.557  15.010 -0.9027  1.9250 -0.3337
 5948TIP3   OH239258   3.165   2.303  13.948 -0.2784  0.2463  0.2495
 5948TIP3    H139259   3.255   2.273  13.948 -0.4695 -0.3411  0.0473
 5948TIP3    H239260   3.160   2.367  14.019  0.6891  1.5133 -0.7761
 5949TIP3   OH239261   3.243   3.312  15.026 -1.0270  0.5585 -0.5447
 5949TIP3    H139262   3.288   3.231  15.002  0.3060  0.9632  0.4430
 5949TIP3    H239263   3.247   3.365  14.946 -0.0934  0.4116 -0.6124
 5950TIP3   OH239264   1.020   0.343  12.954 -0.0773 -0.1457  0.1855
 5950TIP3    H139265   1.103   0.358  13.000 -0.9160  0.9534  1.4177
 5950TIP3    H239266   1.019   0.408  12.885  0.8070 -1.2510 -0.9147
 5951TIP3   OH239267   1.166   6.298  11.836  0.3867 -0.6045  0.5273
 5951TIP3    H139268   1.178   6.216  11.885  2.4574 -0.8147 -0.2351
 5951TIP3    H239269   1.074   6.296  11.809 -0.1941 -1.5839  2.4064
 5952TIP3   OH239270   4.239   0.789   2.530  0.0697 -0.5070 -0.0200
 5952TIP3    H139271   4.250   0.741   2.448  1.7030 -1.8052  0.8818
 5952TIP3    H239272   4.284   0.735   2.595 -2.1198 -0.0927  1.9697
 5953TIP3   OH239273   0.794   6.313  12.476 -0.5632  0.1522  0.4363
 5953TIP3    H139274   0.810   6.249  12.406 -1.0839 -0.4738  0.8760
 5953TIP3    H239275   0.743   6.382  12.435 -1.4612 -0.5488  0.3526
 5954TIP3   OH239276   1.386   6.180  14.947  0.2860  0.6362  0.4263
 5954TIP3    H139277   1.401   6.157  14.855 -0.3522  0.8023  0.2740
 5954TIP3    H239278   1.292   6.197  14.952  0.7270  3.6571  0.4218
 5955TIP3   OH239279   1.454   4.702   0.277 -0.3864 -0.5918  0.3978
 5955TIP3    H139280   1.418   4.788   0.296  2.7491  0.8494  0.5301
 5955TIP3    H239281   1.416   4.677   0.193  0.6928  2.3096 -1.0713
 5956TIP3   OH239282   0.709   4.786  15.549 -0.1045  0.2471 -0.3655
 5956TIP3    H139283   0.662   4.852  15.498  1.1589  1.0669 -0.5046
 5956TIP3    H239284   0.757   4.735  15.485 -0.7397 -0.5499 -0.2195
 5957TIP3   OH239285   5.853   4.447   3.352 -0.2279  0.1362 -0.5428
 5957TIP3    H139286   5.818   4.373   3.303 -2.0551  1.4809 -1.4064
 5957TIP3    H239287   5.940   4.462   3.315 -1.3045  0.7188 -3.0397
 5958TIP3   OH239288   3.904   1.784   5.261 -0.2350  0.0386  0.3426
 5958TIP3    H139289   3.824   1.755   5.305 -1.4306  0.3005 -1.5606
 5958TIP3    H239290   3.949   1.838   5.327 -2.6536  1.6260  0.8337
 5959TIP3   OH239291   4.719   5.978   4.512  0.2752  0.5255  0.5028
 5959TIP3    H139292   4.677   5.900   4.546 -0.3141  0.3192 -0.6587
 5959TIP3    H239293   4.784   6.002   4.579 -1.6104  0.8263  2.3071
 5960TIP3   OH239294   3.047   1.878   5.398  0.0499  0.5613  0.5228
 5960TIP3    H139295   3.122   1.921   5.357  0.0212 -0.8030 -1.0580
 5960TIP3    H239296   2.972   1.905   5.344 -0.0907 -0.7398  0.0507
 5961TIP3   OH239297   2.421   4.447   4.387 -0.0021 -0.4663  0.1330
 5961TIP3    H139298   2.431   4.410   4.299 -1.8701  0.7178 -0.6244
 5961TIP3    H239299   2.327   4.443   4.405  0.3162 -0.4987  2.0281
 5962TIP3   OH239300   4.266   4.725  13.857  0.6221  0.0047  0.6879
 5962TIP3    H139301   4.292   4.746  13.946 -0.1101  0.3551  0.8263
 5962TIP3    H239302   4.219   4.642  13.864 -1.3459  1.0709  0.9851
 5963TIP3   OH239303   6.727   0.654  12.526  0.0672  0.2716 -0.0251
 5963TIP3    H139304   6.759   0.605  12.601 -0.8908 -2.0150 -1.0409
 5963TIP3    H239305   6.798   0.715  12.505  1.2918 -0.6594  1.2980
 5964TIP3   OH239306   6.272   2.380   6.366  0.2181  0.2389 -0.3331
 5964TIP3    H139307   6.240   2.458   6.411  0.8003  1.2599 -1.6221
 5964TIP3    H239308   6.364   2.399   6.348  0.2464 -0.5504 -1.0863
 5965TIP3   OH239309   4.066   1.470   4.727  0.0522  0.2686  0.2896
 5965TIP3    H139310   4.057   1.559   4.761 -0.5144  0.4313 -0.2609
 5965TIP3    H239311   4.004   1.419   4.780  0.9562  0.0367  1.1438
 5966TIP3   OH239312   0.772   5.974  11.871 -0.1260  0.4386 -0.1212
 5966TIP3    H139313   0.741   5.883  11.875 -0.6376  0.6434  0.8054
 5966TIP3    H239314   0.826   5.985  11.949  2.7418 -0.0277 -1.8872
 5967TIP3   OH239315   4.392   3.592  11.090 -0.2772 -0.4953  0.2804
 5967TIP3    H139316   4.425   3.518  11.140 -0.8495 -1.7633 -1.1579
 5967TIP3    H239317   4.364   3.555  11.007  0.5334  1.5221 -0.9660
 5968TIP3   OH239318   3.174   2.489   4.717  0.0254 -0.2940  0.1598
 5968TIP3    H139319   3.267   2.508   4.702  0.1727 -0.1714  1.1940
 5968TIP3    H239320   3.153   2.532   4.800 -1.3736  1.0318 -0.8187
 5969TIP3   OH239321   5.301   1.298   3.752 -0.5416  0.4818  0.2279
 5969TIP3    H139322   5.377   1.342   3.713 -0.8233 -0.4918 -1.5443
 5969TIP3    H239323   5.249   1.269   3.676 -0.8710 -1.9979  1.2967
 5970TIP3   OH239324   0.722   5.606  15.239  0.1532 -0.1095  0.1724
 5970TIP3    H139325   0.737   5.690  15.197 -0.8238 -0.0696 -0.1134
 5970TIP3    H239326   0.783   5.546  15.196 -0.5467  0.0166 -1.0451
 5971TIP3   OH239327   5.333   2.257   3.573 -0.4688 -0.3548  0.5224
 5971TIP3    H139328   5.354   2.177   3.622  1.0239 -1.9411 -2.4631
 5971TIP3    H239329   5.398   2.321   3.603  0.5717 -1.3541  0.4818
 5972TIP3   OH239330   1.511   6.678   0.042  0.2324 -0.4508 -0.0789
 5972TIP3    H139331   1.505   6.768   0.073 -0.6634 -0.6642  0.4116
 5972TIP3    H239332   1.553   6.631   0.115 -0.7331 -0.7158  0.3232
 5973TIP3   OH239333   3.064   5.156   1.680  0.5417  0.7239  0.0263
 5973TIP3    H139334   3.057   5.193   1.768  1.6692  0.0897  0.4079
 5973TIP3    H239335   3.155   5.169   1.656  0.9911 -1.6792  0.1574
 5974TIP3   OH239336   1.737   5.876  17.180  0.0304  0.1821  0.3967
 5974TIP3    H139337   1.668   5.931  17.217 -1.3297 -1.9458  1.2609
 5974TIP3    H239338   1.710   5.861  17.089 -0.3202 -0.1044  0.5440
 5975TIP3   OH239339   2.922   2.451   5.281 -0.4125  0.0524 -0.5494
 5975TIP3    H139340   3.014   2.442   5.256 -0.4585  0.2897 -0.8100
 5975TIP3    H239341   2.898   2.539   5.251 -0.2331  0.6895  1.0521
 5976TIP3   OH239342   5.484   3.314   4.319  0.2090  0.0070  0.2335
 5976TIP3    H139343   5.500   3.386   4.258  2.1220  0.2120  0.9062
 5976TIP3    H239344   5.530   3.239   4.280 -0.4891 -0.4740  0.3063
 5977TIP3   OH239345   6.090   5.371  11.456 -0.0524  0.0085 -0.6675
 5977TIP3    H139346   6.107   5.277  11.454  0.7089  0.1596 -1.5721
 5977TIP3    H239347   6.177   5.412  11.459 -0.3859  0.6740  0.5923
 5978TIP3   OH239348   2.166   6.237  15.125 -0.9831  0.7309  0.2163
 5978TIP3    H139349   2.224   6.168  15.092  1.3943  2.2102  1.0304
 5978TIP3    H239350   2.157   6.298  15.052  0.6648  1.7861  0.8457
 5979TIP3   OH239351   6.141   2.443  11.263 -0.2219  0.2029  0.3385
 5979TIP3    H139352   6.081   2.369  11.253  1.0675 -0.6968 -1.0487
 5979TIP3    H239353   6.214   2.424  11.204  0.1970  2.5562 -0.0045
 5980TIP3   OH239354   0.042   6.113   0.175 -0.5010 -0.1123 -0.0555
 5980TIP3    H139355   0.103   6.168   0.225  0.9677 -0.8195 -1.0125
 5980TIP3    H239356   0.015   6.045   0.237 -0.7429  0.5097  0.5316
 5981TIP3   OH239357   5.268   0.603  14.419 -0.1348  0.4691 -0.3441
 5981TIP3    H139358   5.262   0.561  14.334 -0.2346 -1.9868  0.7947
 5981TIP3    H239359   5.362   0.616  14.434 -0.0453 -0.1482 -0.3604
 5982TIP3   OH239360   4.074   1.459  13.300 -0.5081  0.4769  0.5966
 5982TIP3    H139361   3.989   1.458  13.345 -1.5184 -1.6735 -1.1756
 5982TIP3    H239362   4.136   1.429  13.367 -2.0980 -3.5950  0.5552
 5983TIP3   OH239363   1.942   3.071  15.184  0.3350 -0.4390 -0.0061
 5983TIP3    H139364   1.857   3.029  15.170 -0.1721  0.8719 -0.9800
 5983TIP3    H239365   1.922   3.152  15.230  0.8063  0.8719 -1.9928
 5984TIP3   OH239366   1.914   3.707  12.458  0.5597  0.8711 -0.0835
 5984TIP3    H139367   1.859   3.641  12.500 -0.2966  0.9976 -0.9593
 5984TIP3    H239368   2.003   3.673  12.467  0.2126 -0.0217  0.1608
 5985TIP3   OH239369   4.103   1.232  10.758  0.2466 -0.4134 -0.1586
 5985TIP3    H139370   4.130   1.191  10.676  1.4784  0.8767 -0.4280
 5985TIP3    H239371   4.008   1.243  10.749  0.1203 -1.7452 -0.7127
 5986TIP3   OH239372   3.642   2.991  15.502  0.1063 -0.2586 -0.4241
 5986TIP3    H139373   3.703   2.929  15.462 -1.1298 -0.6319 -1.8708
 5986TIP3    H239374   3.570   2.997  15.438 -1.2850  0.2640  1.1269
 5987TIP3   OH239375   2.896   6.472   4.072 -0.0542  1.0375 -1.1494
 5987TIP3    H139376   2.825   6.518   4.027 -0.4848  1.1813 -0.3577
 5987TIP3    H239377   2.863   6.383   4.085 -0.2174  1.1783 -0.5363
 5988TIP3   OH239378   1.787   3.423   0.168  0.0466  0.3284 -0.5838
 5988TIP3    H139379   1.858   3.476   0.204  1.1469 -0.5394 -1.4217
 5988TIP3    H239380   1.822   3.388   0.086 -0.6668 -1.6597 -0.0784
 5989TIP3   OH239381   2.491   6.267   4.876 -0.7269 -0.7418  0.0172
 5989TIP3    H139382   2.458   6.315   4.952  1.3408  1.9592 -0.6278
 5989TIP3    H239383   2.433   6.291   4.804  0.5157  1.2301 -0.3831
 5990TIP3   OH239384   0.470   4.698   2.800 -0.3252  0.3022 -0.3222
 5990TIP3    H139385   0.414   4.621   2.795  0.4987 -0.4889  1.6509
 5990TIP3    H239386   0.531   4.679   2.871  2.9497  0.8278 -2.7660
 5991TIP3   OH239387   3.438   1.492   3.195  0.5664  0.0525  0.2349
 5991TIP3    H139388   3.471   1.446   3.118 -0.2399  1.6622 -1.1349
 5991TIP3    H239389   3.517   1.518   3.243  1.0612 -2.2570  0.8439
 5992TIP3   OH239390   3.387   3.601  16.247  0.7314 -1.0210 -0.1149
 5992TIP3    H139391   3.446   3.628  16.177  0.1527  2.3900  0.5145
 5992TIP3    H239392   3.300   3.606  16.208  0.3566  1.4214  0.8094
 5993TIP3   OH239393   4.556   1.753  15.072  0.2432 -0.4842 -0.0425
 5993TIP3    H139394   4.624   1.721  15.013  0.0490 -1.1827  0.0988
 5993TIP3    H239395   4.590   1.736  15.160  0.3568  0.1772  0.0465
 5994TIP3   OH239396   3.907   2.651   3.646  0.0529  0.2886 -0.1011
 5994TIP3    H139397   3.837   2.635   3.582 -0.8316  1.2650  0.5955
 5994TIP3    H239398   3.944   2.564   3.662 -1.6330 -0.4171  0.2366
 5995TIP3   OH239399   4.165   5.602   4.576  0.0337 -0.0488  0.2125
 5995TIP3    H139400   4.080   5.574   4.542  0.0339 -3.2064  2.3693
 5995TIP3    H239401   4.228   5.547   4.530  0.5832 -0.0516  0.9591
 5996TIP3   OH239402   1.001   5.990   6.267  0.4270  0.0384  0.6642
 5996TIP3    H139403   0.918   5.944   6.273  0.2575  0.4093  1.1705
 5996TIP3    H239404   1.050   5.943   6.199 -1.6626  2.1146 -2.5405
 5997TIP3   OH239405   2.999   4.923   3.755  0.7790  0.9738 -0.6302
 5997TIP3    H139406   3.065   4.859   3.782 -1.0245 -0.1056  1.5328
 5997TIP3    H239407   3.045   5.007   3.757  2.0570  0.2993  1.1013
 5998TIP3   OH239408   2.203   0.294   1.680  0.5081  0.1891 -0.1301
 5998TIP3    H139409   2.137   0.233   1.712  0.2741  0.5852  0.1547
 5998TIP3    H239410   2.270   0.239   1.639  0.6211 -0.2947  0.6947
 5999TIP3   OH239411   5.604   4.954   4.154  0.2912 -0.6271 -0.1728
 5999TIP3    H139412   5.606   4.858   4.157  0.7216 -0.5997  0.6912
 5999TIP3    H239413   5.580   4.974   4.064  1.2260 -1.5373 -0.6513
 6000TIP3   OH239414   4.299   2.270   3.087  0.5578  0.2335  0.1127
 6000TIP3    H139415   4.340   2.194   3.046  0.3594 -0.7628  1.6745
 6000TIP3    H239416   4.342   2.276   3.173 -0.5165  0.9472  0.6149
 6001TIP3   OH239417   5.665   1.518   1.470  0.2975  0.3956 -0.0348
 6001TIP3    H139418   5.629   1.564   1.394 -1.1770  0.1835  0.4848
 6001TIP3    H239419   5.596   1.455   1.494  1.6681 -1.1099  0.1281
 6002TIP3   OH239420   5.491   0.657   4.525 -0.8288  0.1531  0.0303
 6002TIP3    H139421   5.564   0.653   4.587 -0.1193 -1.9111 -0.8637
 6002TIP3    H239422   5.491   0.748   4.494  1.1343  0.2979  0.3241
 6003TIP3   OH239423   2.404   1.181   3.635  0.0701 -0.3269 -0.3042
 6003TIP3    H139424   2.403   1.085   3.644 -1.5270 -0.5789 -2.3624
 6003TIP3    H239425   2.359   1.213   3.713  0.4227 -1.2492  0.3022
 6004TIP3   OH239426   5.674   4.234   4.639 -0.0944 -0.3968  0.7450
 6004TIP3    H139427   5.620   4.187   4.575  0.0099 -1.1181  1.1790
 6004TIP3    H239428   5.760   4.240   4.599 -0.7052  1.6779 -0.4121
 6005TIP3   OH239429   3.772   6.607  14.050  0.3625 -0.0571  0.3264
 6005TIP3    H139430   3.810   6.560  14.124 -0.1552  1.3000  1.5005
 6005TIP3    H239431   3.735   6.538  13.995  1.7753 -1.1796  0.7171
 6006TIP3   OH239432   1.552   0.300  16.846 -0.4299 -0.6379 -0.1760
 6006TIP3    H139433   1.525   0.278  16.935  3.1501 -0.4035  1.1552
 6006TIP3    H239434   1.583   0.390  16.852 -0.7396 -0.3767 -1.8670
 6007TIP3   OH239435   3.627   5.235  14.386  0.7729  0.3388 -0.2010
 6007TIP3    H139436   3.663   5.155  14.425  0.4986 -0.3255 -1.2590
 6007TIP3    H239437   3.600   5.208  14.298  2.2426  1.9791 -1.2136
 6008TIP3   OH239438   5.345   0.509   0.830 -0.3415  0.5110  0.3956
 6008TIP3    H139439   5.300   0.591   0.811  1.6480  1.6194  0.0924
 6008TIP3    H239440   5.291   0.441   0.789 -1.5493  1.7647 -0.1607
 6009TIP3   OH239441   2.911   1.730  17.109  0.5566  0.7981  1.0329
 6009TIP3    H139442   2.900   1.636  17.093  3.6957  0.5618 -0.4990
 6009TIP3    H239443   2.833   1.770  17.069 -0.0889 -1.0391  0.3214
 6010TIP3   OH239444   0.749   2.002  13.986  0.1228 -0.0151 -0.4489
 6010TIP3    H139445   0.749   2.069  14.054  2.9743  0.6535 -0.9492
 6010TIP3    H239446   0.750   2.050  13.904 -1.5057 -0.7840 -0.9589
 6011TIP3   OH239447   6.783   4.991   3.624  0.1289 -0.0769 -0.6458
 6011TIP3    H139448   6.822   5.058   3.679 -0.7406  1.1510 -1.4541
 6011TIP3    H239449   6.690   4.991   3.648  0.0999 -0.9010 -0.7392
 6012TIP3   OH239450   3.336   3.399   0.530  0.1909  0.0822  0.1058
 6012TIP3    H139451   3.295   3.344   0.596 -0.5938 -0.2462 -0.6359
 6012TIP3    H239452   3.412   3.437   0.574 -0.1275 -0.3885  1.0854
 6013TIP3   OH239453   5.082   3.062  16.096 -0.3662  0.0315  0.0101
 6013TIP3    H139454   5.157   3.120  16.111 -1.2137  1.4263 -0.9773
 6013TIP3    H239455   5.047   3.089  16.011 -1.4095 -1.2524  0.0003
 6014TIP3   OH239456   3.784   4.941  15.410 -0.3173  0.0577  0.4176
 6014TIP3    H139457   3.843   4.866  15.421  0.3775  0.7354  1.4308
 6014TIP3    H239458   3.783   4.957  15.316  1.4000  0.2474  0.3990
 6015TIP3   OH239459   6.163   1.359   1.596 -0.5091  0.0985  0.3245
 6015TIP3    H139460   6.254   1.377   1.570 -1.0894 -0.8270 -2.8285
 6015TIP3    H239461   6.113   1.431   1.559 -1.5474 -1.9599 -2.6995
 6016TIP3   OH239462   4.362   6.733   1.226  0.5134 -0.6001 -0.3129
 6016TIP3    H139463   4.437   6.686   1.190 -0.7044 -4.0588  1.2448
 6016TIP3    H239464   4.287   6.703   1.175 -0.1995  0.8233 -0.1760
 6017TIP3   OH239465   6.461   4.059   6.155  0.3549  0.4595  0.4709
 6017TIP3    H139466   6.405   4.125   6.197  1.2318  0.6012  1.4756
 6017TIP3    H239467   6.410   3.978   6.160 -0.0890  0.7458  0.6692
 6018TIP3   OH239468   1.556   6.552  15.456  0.4267 -0.0698 -0.2845
 6018TIP3    H139469   1.627   6.572  15.395  1.3237  1.8849  1.3123
 6018TIP3    H239470   1.586   6.476  15.504  1.7788  1.0864  0.7858
 6019TIP3   OH239471   4.528   6.411   3.070  0.2159 -0.6887 -0.4616
 6019TIP3    H139472   4.524   6.316   3.081  1.2710 -0.5499  1.3347
 6019TIP3    H239473   4.611   6.437   3.109  0.9326  0.7745 -2.7767
 6020TIP3   OH239474   4.799   5.990   4.222 -0.2576 -0.0148  0.0595
 6020TIP3    H139475   4.787   5.983   4.316 -1.9373 -0.0513 -0.1262
 6020TIP3    H239476   4.756   6.073   4.198 -0.7453 -0.4943 -0.7842
 6021TIP3   OH239477   4.950   0.299   4.614  0.8448 -0.3017  0.2586
 6021TIP3    H139478   4.983   0.250   4.689  0.0860 -0.8232  0.2597
 6021TIP3    H239479   4.872   0.252   4.587  0.2888  0.7121  0.0440
 6022TIP3   OH239480   1.970   3.896  11.468 -0.1040  0.0345  0.3354
 6022TIP3    H139481   1.986   3.973  11.522 -2.0330 -0.4011  1.6138
 6022TIP3    H239482   2.056   3.872  11.434  0.7899  1.7295  1.2928
 6023TIP3   OH239483   5.752   4.148  15.300  0.0609 -0.0923  0.3683
 6023TIP3    H139484   5.802   4.070  15.276 -0.0571 -0.4516  1.2228
 6023TIP3    H239485   5.778   4.166  15.391 -1.2358 -0.2169  0.7879
 6024TIP3   OH239486   0.750   3.111  15.286  0.0516 -0.1199  0.1980
 6024TIP3    H139487   0.836   3.147  15.267  1.2269 -2.0614  1.4806
 6024TIP3    H239488   0.756   3.020  15.259 -2.0640  0.0055 -0.8827
 6025TIP3   OH239489   6.702   0.405   4.812 -0.3248 -0.1822  0.1718
 6025TIP3    H139490   6.638   0.439   4.749 -0.4757 -1.1630 -0.2239
 6025TIP3    H239491   6.773   0.469   4.810 -0.4586 -0.0402 -0.7925
 6026TIP3   OH239492   3.763   0.038   1.361 -0.1142  0.0905  0.2221
 6026TIP3    H139493   3.668   0.045   1.357 -0.0367  1.5757  0.2163
 6026TIP3    H239494   3.792   0.058   1.271  0.1145 -3.3867 -0.5984
 6027TIP3   OH239495   1.263   4.172   4.704 -0.5647 -0.2825  0.1699
 6027TIP3    H139496   1.247   4.137   4.791 -0.4147 -0.5764  0.0770
 6027TIP3    H239497   1.190   4.233   4.690 -0.7531 -0.4578  0.3780
 6028TIP3   OH239498   4.879   6.712  10.833  0.4294  0.1974  0.0332
 6028TIP3    H139499   4.920   6.684  10.751 -1.2205 -0.9689 -0.4310
 6028TIP3    H239500   4.858   6.631  10.878  1.0740  0.8302  1.5278
 6029TIP3   OH239501   4.798   4.312  13.518 -0.1728 -0.1979  0.2028
 6029TIP3    H139502   4.775   4.391  13.469 -0.0625 -0.1344  0.2522
 6029TIP3    H239503   4.878   4.336  13.565  0.6956 -0.7822 -0.9085
 6030TIP3   OH239504   5.780   4.252   0.210 -0.2040  0.1051 -0.1177
 6030TIP3    H139505   5.875   4.266   0.204 -0.4230  1.3331 -1.0209
 6030TIP3    H239506   5.769   4.158   0.198  0.9314 -0.1262  0.4942
 6031TIP3   OH239507   6.655   3.280  13.669  0.2022  0.4945 -0.1013
 6031TIP3    H139508   6.702   3.312  13.592 -1.2993 -0.5060 -1.5102
 6031TIP3    H239509   6.655   3.354  13.729  1.9171  1.1259 -0.7974
 6032TIP3   OH239510   1.981   3.670  14.565  0.2710  0.5252  0.4846
 6032TIP3    H139511   2.006   3.596  14.620  2.3378 -0.2180 -1.3150
 6032TIP3    H239512   1.921   3.633  14.500 -0.1951  0.8550  0.7236
 6033TIP3   OH239513   5.358   3.623   5.596  0.6089  0.0469 -0.4370
 6033TIP3    H139514   5.351   3.623   5.692 -1.0237  0.1297 -0.5190
 6033TIP3    H239515   5.450   3.640   5.578  0.7844  0.9154  1.1195
 6034TIP3   OH239516   6.617   5.896  16.309  0.3774  0.3698 -0.9040
 6034TIP3    H139517   6.692   5.868  16.360 -0.3708 -0.6383 -0.3340
 6034TIP3    H239518   6.631   5.856  16.223  1.2183  1.3936 -1.2669
 6035TIP3   OH239519   2.369   0.914  15.007  0.2737  0.4752 -0.2168
 6035TIP3    H139520   2.305   0.984  14.995 -1.2176 -0.9488 -0.9129
 6035TIP3    H239521   2.381   0.908  15.102  1.8276  2.8231 -0.1793
 6036TIP3   OH239522   2.553   4.853  10.872 -0.4718  0.0087  0.3763
 6036TIP3    H139523   2.623   4.908  10.907  1.7866 -0.9606 -2.1934
 6036TIP3    H239524   2.500   4.912  10.819  1.8777 -0.0503 -2.2866
 6037TIP3   OH239525   5.825   4.625  12.747 -0.7938  0.7185 -0.1287
 6037TIP3    H139526   5.834   4.628  12.842  0.1854  2.1035 -0.2276
 6037TIP3    H239527   5.914   4.611  12.715 -1.1727 -0.1555 -0.8479
 6038TIP3   OH239528   1.800   1.867  11.736 -0.3533 -0.1510  0.5519
 6038TIP3    H139529   1.737   1.819  11.682  0.4853  0.1165 -0.7041
 6038TIP3    H239530   1.791   1.958  11.708 -0.1912  0.0553  1.1638
 6039TIP3   OH239531   2.507   4.255  14.065 -0.5602 -0.0765  0.7643
 6039TIP3    H139532   2.502   4.241  13.971  0.1826 -1.0938  0.8580
 6039TIP3    H239533   2.601   4.259  14.084 -0.5866 -2.3934  1.7728
 6040TIP3   OH239534   3.034   0.814  16.692 -0.3524  0.2587 -0.1304
 6040TIP3    H139535   2.948   0.838  16.728  0.1767  0.0482  1.3687
 6040TIP3    H239536   3.044   0.868  16.614 -2.2190 -0.3466 -0.8561
 6041TIP3   OH239537   3.988   1.163  13.833 -0.5498 -0.3059 -0.3666
 6041TIP3    H139538   4.052   1.228  13.863 -0.3349  0.4299 -2.2909
 6041TIP3    H239539   3.954   1.124  13.914  0.9724  0.5888  0.7578
 6042TIP3   OH239540   1.590   6.486   4.581  0.2453 -0.1419  0.6291
 6042TIP3    H139541   1.672   6.529   4.554  0.6097 -1.1129  0.1256
 6042TIP3    H239542   1.576   6.515   4.671  0.3383  1.2139  0.2317
 6043TIP3   OH239543   4.398   2.179   3.646  0.1364  0.2974 -0.3532
 6043TIP3    H139544   4.353   2.260   3.671 -0.5082  0.2188 -1.1965
 6043TIP3    H239545   4.327   2.114   3.638  0.6797 -0.4370  0.6182
 6044TIP3   OH239546   0.613   1.508  15.130 -0.1260 -0.0221  0.1105
 6044TIP3    H139547   0.689   1.492  15.186 -0.7659 -1.4978  0.5971
 6044TIP3    H239548   0.584   1.596  15.152  0.3050 -0.1659  1.2998
 6045TIP3   OH239549   5.381   6.164  13.709 -0.3624 -0.4405  0.6012
 6045TIP3    H139550   5.370   6.077  13.670 -0.2710 -1.3953  2.5834
 6045TIP3    H239551   5.365   6.225  13.637 -3.0303 -2.0401 -0.3112
 6046TIP3   OH239552   2.338   1.672   5.230 -0.7118  0.2017  0.3309
 6046TIP3    H139553   2.404   1.636   5.171  0.0319 -1.4134  2.0783
 6046TIP3    H239554   2.254   1.656   5.185 -0.1849 -1.1890 -0.1896
 6047TIP3   OH239555   0.327   3.111  13.271 -0.5504 -0.2999  0.4469
 6047TIP3    H139556   0.358   3.060  13.196 -1.5841  1.0838 -0.9918
 6047TIP3    H239557   0.275   3.050  13.323  0.2759 -1.3136  0.1180
 6048TIP3   OH239558   5.227   1.537  12.777  0.0903  0.2798  0.4906
 6048TIP3    H139559   5.291   1.537  12.848  0.4148  0.3715  0.1993
 6048TIP3    H239560   5.154   1.484  12.810 -1.0352  2.6044  2.0249
 6049TIP3   OH239561   0.791   4.795   3.920  0.6774 -0.2028  0.0373
 6049TIP3    H139562   0.723   4.789   3.853  2.3896  0.8386 -1.9132
 6049TIP3    H239563   0.821   4.705   3.932 -0.7557 -0.6256  0.6877
 6050TIP3   OH239564   3.189   3.558  13.661 -0.1740  0.3320  0.7377
 6050TIP3    H139565   3.284   3.569  13.657 -0.2826  1.8392  1.4983
 6050TIP3    H239566   3.158   3.579  13.573  0.2612 -1.3478  0.1419
 6051TIP3   OH239567   5.017   5.794  15.731 -0.1204 -0.1300  0.6722
 6051TIP3    H139568   4.931   5.813  15.768  0.1869  2.3527  0.3093
 6051TIP3    H239569   5.004   5.799  15.636  0.4105  0.2891  0.6170
 6052TIP3   OH239570   1.561   3.645   0.881  0.0214 -0.7272 -0.1728
 6052TIP3    H139571   1.489   3.586   0.904 -1.0997  1.0087  1.0846
 6052TIP3    H239572   1.517   3.728   0.860  1.6280  0.3483  0.5019
 6053TIP3   OH239573   4.170   3.004  11.387  0.2815  0.5249  0.1250
 6053TIP3    H139574   4.158   2.981  11.479  0.4883 -1.2918 -0.2573
 6053TIP3    H239575   4.265   3.003  11.374  0.2178 -0.7381 -0.4217
 6054TIP3   OH239576   6.721   3.845   4.619  0.1228 -0.1851  0.0037
 6054TIP3    H139577   6.629   3.868   4.625  0.3339  0.4796  1.1868
 6054TIP3    H239578   6.726   3.755   4.652  0.1169  0.4323  1.7778
 6055TIP3   OH239579   6.052   1.413   2.087  0.0765 -0.0048  0.7842
 6055TIP3    H139580   6.117   1.483   2.082 -0.7649  0.7206 -1.2508
 6055TIP3    H239581   5.978   1.453   2.132 -0.5454  0.6052 -0.7017
 6056TIP3   OH239582   3.015   0.722   1.172 -0.2962 -0.2031  0.2464
 6056TIP3    H139583   3.078   0.657   1.140 -1.6411 -1.2610 -0.3839
 6056TIP3    H239584   3.009   0.705   1.266  1.0007  0.5052  0.4685
 6057TIP3   OH239585   6.194   2.614  15.606  0.4276  0.3922 -0.5833
 6057TIP3    H139586   6.273   2.612  15.660 -0.8896  3.0986  1.6757
 6057TIP3    H239587   6.225   2.635  15.518  2.5321 -2.9797 -0.8388
 6058TIP3   OH239588   2.704   0.491  13.516  0.1979 -0.2365  0.4749
 6058TIP3    H139589   2.621   0.505  13.561 -0.6888 -1.5584 -0.6384
 6058TIP3    H239590   2.760   0.447  13.580 -0.4775 -0.6623  0.7748
 6059TIP3   OH239591   5.717   6.439   2.075 -0.0398  0.0403 -0.1576
 6059TIP3    H139592   5.696   6.358   2.121 -0.3966  0.4870  0.4736
 6059TIP3    H239593   5.633   6.469   2.040 -0.2978  1.2017  1.3592
 6060TIP3   OH239594   5.333   5.530   5.318 -0.7048  1.0231 -0.1101
 6060TIP3    H139595   5.300   5.449   5.280 -1.5920  1.5094 -0.3975
 6060TIP3    H239596   5.428   5.526   5.304 -0.9201  0.7983 -1.5896
 6061TIP3   OH239597   0.572   1.589  15.419 -0.2036  0.2554  0.5114
 6061TIP3    H139598   0.494   1.644  15.411  0.4489  1.6183  2.6830
 6061TIP3    H239599   0.573   1.562  15.511  2.3351  1.0374  0.7994
 6062TIP3   OH239600   0.242   1.809   1.913  0.2157 -0.0104  0.7152
 6062TIP3    H139601   0.204   1.857   1.987  1.6179  0.4986  1.1327
 6062TIP3    H239602   0.175   1.812   1.845 -1.5156 -1.3245  2.2634
 6063TIP3   OH239603   2.489   1.967   0.374 -0.2455 -0.2848 -0.2365
 6063TIP3    H139604   2.567   2.023   0.365  0.5177 -1.4395 -1.0844
 6063TIP3    H239605   2.459   1.955   0.285 -0.6066 -0.9502 -0.0238
 6064TIP3   OH239606   0.343   1.935  11.407  0.0763  0.2716 -0.9918
 6064TIP3    H139607   0.334   1.917  11.314 -1.2025  0.6752 -0.9697
 6064TIP3    H239608   0.282   1.874  11.450 -1.1773  1.7126 -0.6265
 6065TIP3   OH239609   3.903   5.500  15.856  0.2586  0.1553  0.4114
 6065TIP3    H139610   3.996   5.522  15.863  0.2385  0.3077  0.2093
 6065TIP3    H239611   3.861   5.553  15.924 -0.0154  2.1275 -1.2108
 6066TIP3   OH239612   5.453   2.708   2.227 -0.4237 -0.3712 -0.6144
 6066TIP3    H139613   5.492   2.761   2.158  0.6112  0.3110  0.4427
 6066TIP3    H239614   5.460   2.762   2.306 -1.4863 -1.1509  0.0543
 6067TIP3   OH239615   3.829   6.004  12.382  0.1307 -0.0213 -0.3699
 6067TIP3    H139616   3.741   5.999  12.418  0.3049  0.3412  0.1280
 6067TIP3    H239617   3.884   6.027  12.457  0.7380 -0.8444 -0.5432
 6068TIP3   OH239618   3.234   1.471   4.358 -0.1222  0.5672  0.7996
 6068TIP3    H139619   3.311   1.504   4.404  0.0079  0.3154  0.7636
 6068TIP3    H239620   3.174   1.546   4.355 -0.2598  0.5050  1.6517
 6069TIP3   OH239621   3.305   0.674   4.668  0.1260  0.0587 -0.4487
 6069TIP3    H139622   3.324   0.581   4.656 -0.0449 -0.1590  0.7994
 6069TIP3    H239623   3.328   0.715   4.584  0.5483 -1.0480 -0.8866
 6070TIP3   OH239624   2.607   0.796   5.630 -0.2813  0.0262  0.0959
 6070TIP3    H139625   2.669   0.828   5.695  0.7705 -1.5202 -0.0878
 6070TIP3    H239626   2.521   0.816   5.668  0.3013  1.4984  0.7217
 6071TIP3   OH239627   2.749   1.905  10.605  0.4193 -0.3870 -0.0095
 6071TIP3    H139628   2.740   1.954  10.687  1.2561  1.1458 -0.7734
 6071TIP3    H239629   2.817   1.840  10.622  1.4327  0.6942  0.2080
 6072TIP3   OH239630   1.237   2.546  14.656  0.5413 -0.1115  0.3346
 6072TIP3    H139631   1.325   2.510  14.645 -0.0434 -1.4480 -0.1514
 6072TIP3    H239632   1.208   2.512  14.741 -0.1274 -1.0809 -0.2614
 6073TIP3   OH239633   4.468   2.988  11.939  0.9174  0.4539 -0.0501
 6073TIP3    H139634   4.400   3.054  11.950  0.3615 -0.0880 -0.2085
 6073TIP3    H239635   4.471   2.942  12.023 -1.3230 -1.7803 -1.0749
 6074TIP3   OH239636   1.194   1.587   2.441  0.0653  0.2462 -0.0788
 6074TIP3    H139637   1.109   1.542   2.441  0.8967 -1.4155 -0.1833
 6074TIP3    H239638   1.227   1.577   2.530  1.7137 -2.3973 -0.8568
 6075TIP3   OH239639   2.160   5.331  15.986  0.0419 -0.1376 -0.4271
 6075TIP3    H139640   2.126   5.414  15.954 -0.7197  0.1765  1.1428
 6075TIP3    H239641   2.108   5.265  15.940 -0.3318  0.2726 -0.6065
 6076TIP3   OH239642   2.230   1.194  11.613  0.1329 -0.1949 -0.2428
 6076TIP3    H139643   2.268   1.236  11.690 -0.3892  0.5259 -0.3647
 6076TIP3    H239644   2.304   1.149  11.572  0.4575 -0.4001  0.5534
 6077TIP3   OH239645   2.222   3.329   2.140  0.4050  1.0028 -0.4412
 6077TIP3    H139646   2.305   3.355   2.099  0.8223  0.2587 -0.0948
 6077TIP3    H239647   2.205   3.398   2.204  0.1507  1.7645 -1.2989
 6078TIP3   OH239648   0.713   4.617   5.579  0.0479 -0.2871 -0.6232
 6078TIP3    H139649   0.680   4.538   5.535  0.0457 -0.0852 -0.9843
 6078TIP3    H239650   0.713   4.594   5.672 -2.2807  0.0985 -0.4620
 6079TIP3   OH239651   1.906   1.838   4.353  0.3500 -0.1071 -0.2732
 6079TIP3    H139652   1.901   1.775   4.282  0.6713  0.9235 -1.2390
 6079TIP3    H239653   1.984   1.812   4.402 -0.1982 -1.1686  0.0677
 6080TIP3   OH239654   4.469   4.759  13.433  0.3246  0.8165 -0.4464
 6080TIP3    H139655   4.516   4.745  13.516  1.6492  0.9446 -1.1542
 6080TIP3    H239656   4.411   4.833  13.451  1.6137  1.7602 -0.0135
 6081TIP3   OH239657   0.124   6.229   4.048  0.0026 -0.1806 -0.5551
 6081TIP3    H139658   0.062   6.287   4.091 -0.0813 -0.1637 -0.6997
 6081TIP3    H239659   0.168   6.184   4.120  0.6863  0.6913 -0.4082
 6082TIP3   OH239660   2.795   6.092  15.073 -0.2295 -0.1952  0.1549
 6082TIP3    H139661   2.816   6.034  15.147 -0.4154 -0.0763  0.3021
 6082TIP3    H239662   2.838   6.051  14.998  0.0246 -0.2787  0.3426
 6083TIP3   OH239663   3.390   0.632  17.046 -0.0688 -0.1160  0.5627
 6083TIP3    H139664   3.384   0.657  16.954  0.7416 -0.3099  0.4576
 6083TIP3    H239665   3.348   0.704  17.093  3.2882  2.1455  0.3650
 6084TIP3   OH239666   6.531   5.997   3.002 -0.0104  0.3584  0.0414
 6084TIP3    H139667   6.555   5.967   2.915 -0.0421  1.5196 -0.3802
 6084TIP3    H239668   6.613   5.995   3.052 -0.2055 -1.4170  0.3403
 6085TIP3   OH239669   5.450   6.760   0.046  0.0786  0.5203  0.0152
 6085TIP3    H139670   5.354   6.753   0.052  0.1459 -0.8521  0.0104
 6085TIP3    H239671   5.470   6.733  -0.044  0.5167 -0.1935  0.3133
 6086TIP3   OH239672   1.407   3.343   1.962 -0.4417 -0.3146  0.1535
 6086TIP3    H139673   1.416   3.289   2.040 -0.6704 -0.2900  0.1971
 6086TIP3    H239674   1.397   3.432   1.996 -1.6350 -0.4336  0.1344
 6087TIP3   OH239675   6.543   4.743  14.448  0.3306  0.1040 -0.1572
 6087TIP3    H139676   6.638   4.732  14.459  0.3925  0.9582  0.3169
 6087TIP3    H239677   6.506   4.713  14.531  0.3140  1.1031  0.2119
 6088TIP3   OH239678   1.613   4.748   4.598  0.4052 -0.1287 -0.3608
 6088TIP3    H139679   1.613   4.840   4.571 -2.5979  0.0910  0.0764
 6088TIP3    H239680   1.570   4.702   4.526 -0.6866 -0.7123  0.6334
 6089TIP3   OH239681   1.046   6.439   5.443  0.0132  0.0259  0.3773
 6089TIP3    H139682   1.079   6.528   5.457  1.6045  0.0350 -2.6093
 6089TIP3    H239683   0.959   6.452   5.405  0.4370  0.3634 -0.5073
 6090TIP3   OH239684   1.713   2.011  16.646 -0.0254 -0.3682  0.0357
 6090TIP3    H139685   1.725   1.958  16.566 -0.0324  0.8725 -0.8133
 6090TIP3    H239686   1.696   2.099  16.613 -1.7547 -0.1520  1.3830
 6091TIP3   OH239687   2.482   0.772   1.770  0.1790 -0.2220  0.5088
 6091TIP3    H139688   2.576   0.788   1.782  0.1177  0.4108  0.1813
 6091TIP3    H239689   2.469   0.779   1.676  0.4624 -4.0353  0.0408
 6092TIP3   OH239690   1.392   4.847  14.207 -0.0037 -0.0132 -0.6366
 6092TIP3    H139691   1.410   4.768  14.157 -1.2678 -0.8230  0.1315
 6092TIP3    H239692   1.326   4.821  14.272  1.6026  0.9568  1.5136
 6093TIP3   OH239693   2.291   1.939   5.958 -0.1214  0.2799  0.1259
 6093TIP3    H139694   2.229   2.012   5.968  0.0697  0.7047 -1.4984
 6093TIP3    H239695   2.285   1.915   5.866  1.8384  0.0750  0.0038
 6094TIP3   OH239696   2.626   1.011  14.595  0.9186 -0.0018 -0.2212
 6094TIP3    H139697   2.555   0.962  14.635  0.2582  0.7328 -0.4536
 6094TIP3    H239698   2.706   0.967  14.623  0.3570 -0.9983 -0.1702
 6095TIP3   OH239699   5.889   1.003  11.091  0.2529 -0.0961  0.5104
 6095TIP3    H139700   5.799   0.981  11.115  0.1524  0.5814  0.7614
 6095TIP3    H239701   5.935   0.919  11.094  0.2090 -0.1086  2.8599
 6096TIP3   OH239702   0.987   2.427  16.544  0.0042  0.1076 -0.0174
 6096TIP3    H139703   0.919   2.494  16.545  0.4818  0.5860  0.8265
 6096TIP3    H239704   0.939   2.345  16.529 -0.9337  0.2647  1.8763
 6097TIP3   OH239705   0.373   1.032  14.300 -0.3694  0.2442  0.2963
 6097TIP3    H139706   0.435   0.960  14.294 -1.2067 -0.4962  0.2405
 6097TIP3    H239707   0.418   1.099  14.351  1.0597  0.3714 -1.0697
 6098TIP3   OH239708   3.146   4.836   4.264  0.4395 -0.1190  0.1386
 6098TIP3    H139709   3.177   4.889   4.338  0.8910  1.1575 -0.9175
 6098TIP3    H239710   3.226   4.815   4.215  0.2034 -1.3917  0.2593
 6099TIP3   OH239711   5.307   5.007  12.197 -0.0058 -0.3210  0.0127
 6099TIP3    H139712   5.338   4.999  12.107  0.0538  1.9887 -0.2455
 6099TIP3    H239713   5.345   5.089  12.228 -0.9425 -0.4984  1.7623
 6100TIP3   OH239714   4.578   6.234  16.130  0.3226 -0.0325 -0.1626
 6100TIP3    H139715   4.518   6.270  16.195  0.2153  0.7821 -0.7050
 6100TIP3    H239716   4.602   6.148  16.165 -0.5459 -0.0420  0.4386
 6101TIP3   OH239717   2.095   0.077  12.140  0.3100 -0.0235 -0.0703
 6101TIP3    H139718   2.075   0.037  12.056  0.5975 -0.4031  0.0415
 6101TIP3    H239719   2.113   0.004  12.198 -0.1662  0.2277  0.3994
 6102TIP3   OH239720   6.118   3.741  16.440 -0.7108 -0.1477 -0.2583
 6102TIP3    H139721   6.185   3.680  16.472 -3.1835 -2.4881  0.8277
 6102TIP3    H239722   6.119   3.813  16.503  0.6002 -0.2064 -0.1725
 6103TIP3   OH239723   5.048   5.735  14.666 -0.0718  0.2480  0.3011
 6103TIP3    H139724   5.035   5.800  14.735  0.8800 -0.5802  1.2921
 6103TIP3    H239725   5.081   5.786  14.592 -1.5243  1.2070  0.2849
 6104TIP3   OH239726   5.455   2.994   1.127  0.4283  0.0525 -0.0442
 6104TIP3    H139727   5.421   2.905   1.124 -0.5027  0.3730  0.3992
 6104TIP3    H239728   5.404   3.036   1.197  0.9044  0.9023 -0.1982
 6105TIP3   OH239729   0.983   2.264  14.420  0.0237 -0.3261 -0.5124
 6105TIP3    H139730   0.974   2.249  14.514  0.5704  0.0461 -0.3962
 6105TIP3    H239731   1.005   2.178  14.384  1.6787 -0.1285 -0.0436
 6106TIP3   OH239732   0.012   4.405  16.531  0.3148  0.1878 -0.5902
 6106TIP3    H139733   0.039   4.489  16.494 -0.2394  0.1942 -0.9819
 6106TIP3    H239734   0.076   4.342  16.497 -1.2272 -0.1417 -3.1334
 6107TIP3   OH239735   0.326   3.629   0.221  0.3685 -0.5330  0.1709
 6107TIP3    H139736   0.245   3.625   0.170  0.9969  0.3619 -0.9470
 6107TIP3    H239737   0.297   3.638   0.312 -0.8732  2.5456 -0.3840
 6108TIP3   OH239738   6.065   6.015   0.263  0.3689  0.4206 -0.8111
 6108TIP3    H139739   6.078   5.925   0.293  0.5627  0.5096 -0.6253
 6108TIP3    H239740   5.974   6.018   0.234  0.5551 -0.0121 -1.4405
 6109TIP3   OH239741   4.261   1.360  14.471  0.2725  0.6115 -0.3964
 6109TIP3    H139742   4.323   1.296  14.435  0.3654  0.9976 -0.9537
 6109TIP3    H239743   4.183   1.310  14.492  1.1451 -0.0924  1.3702
 6110TIP3   OH239744   0.334   4.322   0.361 -0.3751 -0.1342 -0.4096
 6110TIP3    H139745   0.428   4.325   0.379 -0.0220 -0.2360 -2.0561
 6110TIP3    H239746   0.293   4.357   0.440  0.8503 -2.8715  1.6032
 6111TIP3   OH239747   5.078   1.230   2.912 -0.2386  0.4565  0.1257
 6111TIP3    H139748   5.136   1.206   2.840  0.1211 -1.1192  0.8958
 6111TIP3    H239749   4.992   1.240   2.872  0.4630  2.5030 -0.9798
 6112TIP3   OH239750   2.025   1.421  16.981  0.1671  0.5581  0.0953
 6112TIP3    H139751   2.016   1.358  16.910 -1.2076 -0.6459  1.2755
 6112TIP3    H239752   2.109   1.400  17.021 -0.5460 -0.9742  0.8462
 6113TIP3   OH239753   6.417   6.330  13.466  0.2572  0.3997  0.2283
 6113TIP3    H139754   6.365   6.405  13.493  1.0313  0.9907  0.1364
 6113TIP3    H239755   6.366   6.289  13.396 -1.4358 -0.7387  2.0407
 6114TIP3   OH239756   2.733   4.728  16.015  0.1085 -0.5243 -0.3041
 6114TIP3    H139757   2.679   4.707  15.939 -0.8981 -0.8793  0.4861
 6114TIP3    H239758   2.691   4.682  16.088  0.9169 -0.0078  0.5063
 6115TIP3   OH239759   2.496   6.215   1.918  0.0155 -0.0977 -0.0421
 6115TIP3    H139760   2.514   6.304   1.948  0.4531 -1.1891  3.2714
 6115TIP3    H239761   2.526   6.215   1.827  1.1956  2.7541  0.2192
 6116TIP3   OH239762   5.973   0.065   4.302 -0.3249  0.2688  0.2960
 6116TIP3    H139763   6.031   0.081   4.227 -1.2537 -3.5621 -1.4985
 6116TIP3    H239764   6.003   0.126   4.369  0.9248  3.5769 -2.9398
 6117TIP3   OH239765   5.947   4.568   0.841  0.2122  0.2984 -0.0609
 6117TIP3    H139766   5.954   4.473   0.838 -1.0044  0.1881  0.2196
 6117TIP3    H239767   5.880   4.590   0.777  0.3590  0.9607  0.0033
 6118TIP3   OH239768   4.375   4.258   2.175  0.0996  0.2461  0.0362
 6118TIP3    H139769   4.458   4.212   2.190  0.6946  1.5354  0.8584
 6118TIP3    H239770   4.343   4.279   2.263 -0.2864  1.1509 -0.3083
 6119TIP3   OH239771   5.644   1.388  16.455  0.3318  0.4447 -0.1287
 6119TIP3    H139772   5.731   1.419  16.431  0.4689  0.1477 -0.0235
 6119TIP3    H239773   5.611   1.454  16.516  1.1369 -0.2470  1.0982
 6120TIP3   OH239774   4.533   1.206  14.530 -0.0729 -0.2567 -0.0925
 6120TIP3    H139775   4.565   1.293  14.554  1.4086 -1.2931  1.9448
 6120TIP3    H239776   4.603   1.146  14.554 -0.8074 -2.0127 -1.9980
 6121TIP3   OH239777   0.134   1.310  12.347 -0.8757 -0.3958 -0.1556
 6121TIP3    H139778   0.113   1.320  12.254 -1.8017  0.7249  0.1505
 6121TIP3    H239779   0.049   1.311  12.391 -0.4948 -1.6495  0.6701
 6122TIP3   OH239780   5.247   3.066   0.773 -0.8038  0.1254  0.0463
 6122TIP3    H139781   5.295   3.111   0.842  0.8424  0.2362 -1.1069
 6122TIP3    H239782   5.246   2.974   0.801 -2.1572  0.4899  1.2880
 6123TIP3   OH239783   0.367   1.318  14.576 -0.0798  0.0873  0.4591
 6123TIP3    H139784   0.407   1.311  14.489 -1.2157  1.0981 -0.1787
 6123TIP3    H239785   0.400   1.242  14.624  0.2518 -0.7143 -0.9815
 6124TIP3   OH239786   3.771   2.759   0.036  0.1299 -0.3556 -0.3061
 6124TIP3    H139787   3.865   2.764   0.023 -0.1075  0.8789 -1.9797
 6124TIP3    H239788   3.741   2.850   0.034 -1.2981 -0.7941 -1.9088
 6125TIP3   OH239789   5.681   1.119   0.647  0.6853  0.2455 -0.2461
 6125TIP3    H139790   5.662   1.068   0.725  0.8791 -0.2894 -0.5406
 6125TIP3    H239791   5.769   1.091   0.621  2.0801  2.8316  1.2309
 6126TIP3   OH239792   3.134   2.836  11.212  0.7656 -0.1902  0.1802
 6126TIP3    H139793   3.169   2.873  11.131 -1.2776  2.1286  0.2328
 6126TIP3    H239794   3.048   2.803  11.188  0.4798 -0.2480  1.2343
 6127TIP3   OH239795   1.961   1.637  15.012  0.0887 -0.2656  0.5883
 6127TIP3    H139796   1.869   1.618  15.028  0.3162 -2.0101 -0.0376
 6127TIP3    H239797   1.960   1.715  14.956 -1.0519 -1.0774 -0.5661
 6128TIP3   OH239798   4.052   0.043  14.982  0.4815  0.1345  0.1399
 6128TIP3    H139799   4.079  -0.012  15.055  0.0231 -0.8111 -0.3812
 6128TIP3    H239800   4.123   0.037  14.919  0.1176 -0.4609 -0.2259
 6129TIP3   OH239801   5.293   5.675   3.864 -0.4660 -0.0828 -0.2912
 6129TIP3    H139802   5.361   5.625   3.909  0.6374 -0.9014 -2.6865
 6129TIP3    H239803   5.334   5.702   3.782 -2.0358  2.2056 -0.4024
 6130TIP3   OH239804   0.549   0.804  14.224 -0.6506 -0.1437 -0.2648
 6130TIP3    H139805   0.485   0.736  14.247 -0.6825 -0.6027 -1.6024
 6130TIP3    H239806   0.520   0.836  14.139  0.8614 -0.3239 -0.8796
 6131TIP3   OH239807   1.610   1.538   4.060 -0.0715  0.6194 -0.2400
 6131TIP3    H139808   1.698   1.571   4.044  0.0762 -0.2316 -1.3499
 6131TIP3    H239809   1.611   1.507   4.150  0.6447  0.9814 -0.1227
 6132TIP3   OH239810   3.268   1.450   0.771  0.5475 -0.4400  0.0219
 6132TIP3    H139811   3.223   1.517   0.822  2.3947 -0.2380  1.5124
 6132TIP3    H239812   3.332   1.499   0.718  1.6738 -0.9497  0.8671
 6133TIP3   OH239813   5.072   2.053   2.382  0.0279 -0.7817 -0.5514
 6133TIP3    H139814   5.095   2.010   2.464 -1.5746 -0.6537  0.0053
 6133TIP3    H239815   5.047   1.982   2.324 -1.1063 -0.7583 -0.1336
 6134TIP3   OH239816   3.615   3.096  13.274  0.0910 -0.1488 -0.5601
 6134TIP3    H139817   3.616   3.024  13.211 -1.1123 -0.8483  0.1882
 6134TIP3    H239818   3.530   3.089  13.317  0.5766  0.7766  0.6057
 6135TIP3   OH239819   5.014   2.396  11.974 -0.2179 -0.6587  0.2415
 6135TIP3    H139820   5.068   2.422  12.048 -0.0467 -2.5980  0.8684
 6135TIP3    H239821   4.924   2.414  12.002 -0.1938 -1.9083  1.1833
 6136TIP3   OH239822   2.338   3.135   2.303  0.7267  0.7047  0.3726
 6136TIP3    H139823   2.301   3.211   2.257 -0.3747  0.5410  0.9521
 6136TIP3    H239824   2.351   3.070   2.235 -1.0810  0.3872  0.2768
 6137TIP3   OH239825   2.172   3.693   5.257  0.4361  0.1293 -0.5660
 6137TIP3    H139826   2.251   3.643   5.240  1.6194 -0.0218  3.9336
 6137TIP3    H239827   2.203   3.777   5.291 -1.2907  0.3880  0.5177
 6138TIP3   OH239828   6.578   4.352   1.942  0.5160  0.4121 -0.2797
 6138TIP3    H139829   6.512   4.341   2.010 -0.0355  2.4490 -0.4186
 6138TIP3    H239830   6.529   4.347   1.860  0.9938 -0.8208 -0.5120
 6139TIP3   OH239831   3.053   2.687  12.522  0.2732 -0.3140  0.5132
 6139TIP3    H139832   2.961   2.714  12.523  0.4671  0.4274 -0.4665
 6139TIP3    H239833   3.091   2.733  12.597 -0.0261 -0.1792  0.5867
 6140TIP3   OH239834   3.387   5.947  15.672 -0.1885 -0.0124 -0.2880
 6140TIP3    H139835   3.403   5.855  15.649  1.6627  0.2030 -0.0083
 6140TIP3    H239836   3.342   5.983  15.596 -0.9736 -1.1522 -0.3949
 6141TIP3   OH239837   0.193   1.374   3.679  0.3597  0.2993 -0.2359
 6141TIP3    H139838   0.250   1.411   3.612 -0.5291  0.9040 -0.6743
 6141TIP3    H239839   0.106   1.407   3.657 -0.2882 -1.1638 -0.0069
 6142TIP3   OH239840   0.161   6.107   2.484 -0.2095  0.7297  0.3054
 6142TIP3    H139841   0.112   6.027   2.506  0.3495 -0.4534 -2.3625
 6142TIP3    H239842   0.241   6.101   2.536 -0.3209 -0.2992  0.3903
 6143TIP3   OH239843   4.121   6.393   6.316  0.0806 -0.1003 -0.1477
 6143TIP3    H139844   4.073   6.445   6.252 -1.1180 -2.0740 -0.9744
 6143TIP3    H239845   4.056   6.372   6.383  0.6203 -0.2764  0.3301
 6144TIP3   OH239846   4.468   0.941  11.177 -0.2143  0.2231 -0.2285
 6144TIP3    H139847   4.563   0.924  11.171  0.5203  3.2251  1.1091
 6144TIP3    H239848   4.445   0.979  11.092  0.2647  1.4180  0.1659
 6145TIP3   OH239849   2.317   5.141  14.009 -0.6751 -0.1516  0.5896
 6145TIP3    H139850   2.335   5.090  13.930 -0.1895  1.0758 -0.1061
 6145TIP3    H239851   2.227   5.118  14.032 -0.1372 -2.1201  0.9138
 6146TIP3   OH239852   1.861   3.372  15.820 -0.1418 -0.3743 -0.1452
 6146TIP3    H139853   1.859   3.453  15.872 -2.0889  0.3128 -1.1819
 6146TIP3    H239854   1.952   3.364  15.792  0.0180  1.8131 -0.4769
 6147TIP3   OH239855   1.386   4.485   5.544 -0.4839 -0.1769 -0.1324
 6147TIP3    H139856   1.431   4.430   5.480  1.3891 -0.2162  1.1284
 6147TIP3    H239857   1.354   4.423   5.610  0.7916  0.1191  0.7981
 6148TIP3   OH239858   5.179   2.186   5.597  1.0506 -0.6472 -0.7886
 6148TIP3    H139859   5.202   2.093   5.606  1.4156 -0.5392 -0.6332
 6148TIP3    H239860   5.103   2.197   5.653 -0.6303 -1.4578 -2.7542
 6149TIP3   OH239861   5.201   0.855  16.838  0.6691 -0.4533 -0.3726
 6149TIP3    H139862   5.263   0.782  16.831  1.1289 -0.2423  1.0731
 6149TIP3    H239863   5.167   0.849  16.927 -0.6476  0.0469 -0.8174
 6150TIP3   OH239864   3.855   4.957   0.974  0.3491  0.5550  0.0454
 6150TIP3    H139865   3.942   4.919   0.975  0.2557  0.3405 -0.1945
 6150TIP3    H239866   3.795   4.882   0.975  0.1635  0.7023  0.7279
 6151TIP3   OH239867   3.220   6.336   5.918 -0.2004 -0.4349  0.4904
 6151TIP3    H139868   3.178   6.251   5.912 -2.4138  0.6922 -3.0016
 6151TIP3    H239869   3.156   6.391   5.965  0.7942 -0.4032  1.8721
 6152TIP3   OH239870   2.514   2.339   0.828  0.1621 -0.0032 -0.1797
 6152TIP3    H139871   2.443   2.348   0.766 -1.4549 -1.9554  1.2506
 6152TIP3    H239872   2.512   2.247   0.854  2.9695 -0.0370  0.2450
 6153TIP3   OH239873   1.252   2.518  17.160 -0.3117  0.1324  0.3487
 6153TIP3    H139874   1.175   2.464  17.143 -0.3329  0.4277 -0.5130
 6153TIP3    H239875   1.229   2.567  17.240 -1.5771  1.2116 -0.6161
 6154TIP3   OH239876   3.799   1.045  16.017  0.7106  0.8222 -0.3739
 6154TIP3    H139877   3.724   1.081  15.971  0.8582 -1.6556 -2.8259
 6154TIP3    H239878   3.780   1.060  16.110 -1.2291  3.0608 -1.0512
 6155TIP3   OH239879   2.125   4.389  12.734  0.4973 -0.0293  0.0309
 6155TIP3    H139880   2.095   4.454  12.671  1.4874  0.9896  0.5717
 6155TIP3    H239881   2.134   4.437  12.816  0.8751 -0.9386  0.5359
 6156TIP3   OH239882   0.409   6.538  13.682 -0.1194 -0.6015  0.5145
 6156TIP3    H139883   0.501   6.516  13.674 -0.5457 -2.3918  0.1158
 6156TIP3    H239884   0.392   6.599  13.610  0.9880  0.7049  1.3152
 6157TIP3   OH239885   2.089   1.841   5.339  0.3497 -0.2653 -0.0878
 6157TIP3    H139886   2.124   1.752   5.343 -0.2155 -0.4332  3.2629
 6157TIP3    H239887   2.004   1.832   5.297  0.1895 -1.3617  0.4507
 6158TIP3   OH239888   1.403   4.828   2.490  0.1951  0.5102  0.5360
 6158TIP3    H139889   1.346   4.904   2.506  0.1927  0.7965 -0.7702
 6158TIP3    H239890   1.489   4.867   2.473  0.7444  0.0942  2.1692
 6159TIP3   OH239891   1.763   4.568   2.086  0.8897 -0.3880 -0.7609
 6159TIP3    H139892   1.844   4.587   2.134  0.9748 -1.5838 -0.3950
 6159TIP3    H239893   1.761   4.472   2.079  0.4907 -0.2991 -2.4832
 6160TIP3   OH239894   6.371   5.875  16.066  0.4524  0.1226  0.0911
 6160TIP3    H139895   6.359   5.896  16.158  1.6607 -1.1586  0.5681
 6160TIP3    H239896   6.422   5.948  16.030 -1.1168  1.2750  0.0849
 6161TIP3   OH239897   3.814   0.731   1.366 -0.2394  0.4696  0.5350
 6161TIP3    H139898   3.731   0.729   1.413  0.0581 -0.7457  1.0283
 6161TIP3    H239899   3.856   0.812   1.396 -0.4495  0.1643  1.7006
 6162TIP3   OH239900   2.514   3.609  12.608 -0.1501 -0.3151  0.1921
 6162TIP3    H139901   2.485   3.550  12.678  0.3850 -0.8924 -0.0596
 6162TIP3    H239902   2.566   3.553  12.550 -0.6695  0.1310 -0.7272
 6163TIP3   OH239903   6.701   3.634   4.804  0.1343  0.3263  0.1076
 6163TIP3    H139904   6.680   3.541   4.800  0.7756  0.2062 -1.4124
 6163TIP3    H239905   6.770   3.640   4.870 -0.2142 -0.2095  0.5254
 6164TIP3   OH239906   3.087   0.611  14.201  0.1902 -0.0136 -0.2440
 6164TIP3    H139907   3.177   0.582  14.186  0.4847  0.3348  0.7387
 6164TIP3    H239908   3.034   0.533  14.187  0.8153 -0.6582  0.8450
 6165TIP3   OH239909   5.208   5.789   1.084  0.2943  0.4763  0.5391
 6165TIP3    H139910   5.243   5.794   0.996 -0.1925  0.1872  0.3204
 6165TIP3    H239911   5.257   5.854   1.134  0.0704  1.1611 -0.1136
 6166TIP3   OH239912   1.255   4.347   5.756 -0.1510 -0.3635  0.5525
 6166TIP3    H139913   1.256   4.254   5.776  0.7151 -0.0180  2.3389
 6166TIP3    H239914   1.165   4.366   5.731 -1.0308 -1.1713  2.8572
 6167TIP3   OH239915   5.517   1.390   3.609  0.1708 -0.0476 -0.0647
 6167TIP3    H139916   5.558   1.314   3.652 -0.6283 -0.5197 -0.1191
 6167TIP3    H239917   5.591   1.439   3.573  0.7578 -0.3886  0.6364
 6168TIP3   OH239918   0.059   0.925   5.197 -0.0326  0.4232  0.6636
 6168TIP3    H139919   0.018   0.839   5.185 -1.6259  1.4756 -2.2754
 6168TIP3    H239920   0.001   0.986   5.153  1.4552  2.9488  1.9996
 6169TIP3   OH239921   5.453   3.250   3.839  0.5303 -0.6218 -0.1382
 6169TIP3    H139922   5.412   3.250   3.752 -0.6100 -2.5783  0.3384
 6169TIP3    H239923   5.520   3.181   3.834 -0.2744 -1.5091  0.8112
 6170TIP3   OH239924   5.868   5.275  10.511  0.3793 -0.1198  0.1047
 6170TIP3    H139925   5.869   5.370  10.516  0.3295 -0.1288  0.2740
 6170TIP3    H239926   5.791   5.255  10.458  0.2332 -0.0782  0.3017
 6171TIP3   OH239927   1.749   0.508   6.275  0.7278  0.0502 -0.0646
 6171TIP3    H139928   1.785   0.428   6.312  2.9838  1.7673  1.7263
 6171TIP3    H239929   1.701   0.549   6.348 -1.4148 -0.1429 -1.2713
 6172TIP3   OH239930   6.353   4.123   2.686 -0.2088  0.1038 -0.1620
 6172TIP3    H139931   6.372   4.029   2.684 -0.0795  0.1099  0.5725
 6172TIP3    H239932   6.416   4.162   2.626 -0.6329 -0.3406 -0.9074
 6173TIP3   OH239933   0.806   3.369   2.757  0.1703 -0.6212 -0.3528
 6173TIP3    H139934   0.885   3.333   2.797  0.6833 -1.1118 -1.7552
 6173TIP3    H239935   0.821   3.464   2.756  0.8590 -0.7259 -0.8286
 6174TIP3   OH239936   3.055   2.251   0.958  0.2514 -0.0675 -0.2583
 6174TIP3    H139937   2.981   2.302   0.990  0.0617  0.5903 -1.6876
 6174TIP3    H239938   3.129   2.311   0.961 -0.5034  1.4515 -4.6833
 6175TIP3   OH239939   3.927   1.124   2.018  0.4228  0.6057 -0.1629
 6175TIP3    H139940   3.933   1.182   1.942 -0.8135  1.0557  0.0518
 6175TIP3    H239941   3.852   1.067   1.999  1.2411 -0.5150 -0.0899
 6176TIP3   OH239942   6.152   4.463  14.834 -0.3098 -0.7825 -0.1647
 6176TIP3    H139943   6.240   4.443  14.804  0.1221  1.2119 -0.3538
 6176TIP3    H239944   6.145   4.420  14.919  1.1258 -0.3477  0.1911
 6177TIP3   OH239945   5.970   0.982  11.894  0.2471  0.0492  0.3701
 6177TIP3    H139946   5.930   0.942  11.972 -0.6308  1.6579  0.8026
 6177TIP3    H239947   5.912   1.056  11.874  0.6655 -0.1249 -1.6128
 6178TIP3   OH239948   3.499   4.542   2.877  0.4518 -0.8967 -0.2407
 6178TIP3    H139949   3.424   4.562   2.821  0.3657 -1.0100 -0.1663
 6178TIP3    H239950   3.553   4.484   2.823  1.0355  0.0563 -0.7114
 6179TIP3   OH239951   6.155   0.658  15.585  0.0155  0.2381  0.4525
 6179TIP3    H139952   6.176   0.658  15.492  1.6626  1.3935  0.7682
 6179TIP3    H239953   6.102   0.579  15.598 -1.4176  0.7770 -1.6770
 6180TIP3   OH239954   1.975   3.874   6.259 -0.4037  0.5376  0.0765
 6180TIP3    H139955   1.942   3.785   6.273 -0.2583  0.2656 -1.2001
 6180TIP3    H239956   2.042   3.885   6.326 -0.6088 -0.2240  0.4200
 6181TIP3   OH239957   3.455   0.717  11.690  0.2598  0.0300  0.1764
 6181TIP3    H139958   3.532   0.740  11.742  2.0440  0.1742 -2.3461
 6181TIP3    H239959   3.421   0.801  11.659 -0.1841 -0.1049  0.2927
 6182TIP3   OH239960   4.343   1.621  15.240 -0.0344 -0.0018 -0.2672
 6182TIP3    H139961   4.373   1.659  15.157 -1.4518 -0.8295 -1.1988
 6182TIP3    H239962   4.373   1.531  15.238 -0.0995 -0.0351  0.1128
 6183TIP3   OH239963   1.229   0.321  12.501 -0.4831 -0.9165 -0.2219
 6183TIP3    H139964   1.182   0.322  12.417 -2.9827  2.9752  0.9191
 6183TIP3    H239965   1.165   0.287  12.563  0.7066 -2.0448  0.4152
 6184TIP3   OH239966   1.145   1.810   0.004  0.7929  0.2894  0.2049
 6184TIP3    H139967   1.172   1.776  -0.082 -0.9855 -1.4589  0.2557
 6184TIP3    H239968   1.128   1.903  -0.011 -1.3234 -0.3416 -1.8625
 6185TIP3   OH239969   4.602   6.483  12.131  0.1367  0.4020 -0.5221
 6185TIP3    H139970   4.520   6.475  12.082 -1.5487  1.0380  2.0133
 6185TIP3    H239971   4.605   6.574  12.160  1.1019  0.0880  0.4547
 6186TIP3   OH239972   3.047   3.641   6.789 -0.3781  0.0063 -0.0751
 6186TIP3    H139973   3.113   3.631   6.858  0.2827 -1.3112 -0.8547
 6186TIP3    H239974   3.063   3.727   6.752  0.7278 -0.1781 -0.0541
 6187TIP3   OH239975   4.118   1.142   1.220 -0.1053 -0.0692  0.2087
 6187TIP3    H139976   4.131   1.193   1.300  0.6671  0.8814 -0.4847
 6187TIP3    H239977   4.032   1.102   1.230  1.0559 -2.2505  2.7126
 6188TIP3   OH239978   1.430   2.532  11.885 -0.5036 -0.4284 -0.4262
 6188TIP3    H139979   1.359   2.555  11.825 -0.6008  0.5536  0.0306
 6188TIP3    H239980   1.459   2.617  11.920 -1.5037 -1.0199  2.0932
 6189TIP3   OH239981   5.261   4.374  14.547  0.1898  0.2516 -0.7884
 6189TIP3    H139982   5.195   4.375  14.478 -0.6716  0.3688  0.0178
 6189TIP3    H239983   5.228   4.311  14.611  0.8120  0.3881 -0.3275
 6190TIP3   OH239984   2.677   2.764  11.989 -0.0052  0.1435  0.7672
 6190TIP3    H139985   2.741   2.796  12.053 -0.3392  0.9196  0.7196
 6190TIP3    H239986   2.593   2.790  12.025 -0.1833  0.8540 -0.1273
 6191TIP3   OH239987   1.335   2.473  16.846 -0.2854 -0.1825  0.4464
 6191TIP3    H139988   1.404   2.538  16.858 -0.5827 -0.1300  2.0068
 6191TIP3    H239989   1.375   2.390  16.874 -0.1192 -0.5956 -0.9120
 6192TIP3   OH239990   3.925   3.426  11.362  0.4489  0.2705 -0.1988
 6192TIP3    H139991   3.988   3.367  11.321 -0.2878  0.0924 -1.1111
 6192TIP3    H239992   3.937   3.509  11.317  0.1324  0.2756 -0.2738
 6193TIP3   OH239993   1.079   1.350  16.379  0.5336  0.5516  0.3308
 6193TIP3    H139994   0.984   1.344  16.387  0.6068  0.6644  1.3681
 6193TIP3    H239995   1.093   1.419  16.314 -0.0925  1.3932  1.0555
 6194TIP3   OH239996   1.663   6.391  14.151 -0.3680 -1.0926 -0.1594
 6194TIP3    H139997   1.627   6.430  14.071  0.9084  0.4041 -0.0547
 6194TIP3    H239998   1.703   6.464  14.198  0.2077 -2.1906  1.1389
 6195TIP3   OH239999   0.652   6.070   5.621  0.1121 -0.8164 -0.2111
 6195TIP3    H140000   0.575   6.055   5.676  1.1525 -3.5698  0.6467
 6195TIP3    H240001   0.617   6.071   5.532 -1.0257 -1.1001  0.2151
 6196TIP3   OH240002   2.149   2.834   5.223  0.3552  0.1371  0.5940
 6196TIP3    H140003   2.093   2.846   5.299 -1.7707 -1.3256 -0.6365
 6196TIP3    H240004   2.150   2.740   5.208  0.8301  0.3777 -1.0848
 6197TIP3   OH240005   2.214   1.807   3.274 -0.3602 -0.1087  0.3097
 6197TIP3    H140006   2.239   1.728   3.227 -1.4463  0.4581 -1.2899
 6197TIP3    H240007   2.298   1.850   3.294  0.1599 -0.6761 -0.5828
 6198TIP3   OH240008   1.482   1.625   2.976  0.1362 -0.0245  0.5108
 6198TIP3    H140009   1.418   1.628   2.905 -0.1945 -0.2261  0.7991
 6198TIP3    H240010   1.563   1.596   2.933  0.4209  1.5860 -0.1252
 6199TIP3   OH240011   5.409   0.342   3.255 -0.5621 -0.4883 -0.3706
 6199TIP3    H140012   5.430   0.315   3.166  0.9516  1.7931 -0.7784
 6199TIP3    H240013   5.458   0.281   3.311 -0.4184 -1.0718 -1.1081
 6200TIP3   OH240014   0.240   2.450   2.726 -0.2204 -0.0839  0.4211
 6200TIP3    H140015   0.245   2.367   2.679 -1.4608 -0.5514  1.0648
 6200TIP3    H240016   0.227   2.424   2.817 -0.7395  0.8150  0.6087
 6201TIP3   OH240017   2.581   1.919  13.003 -0.5142 -0.0402  0.9851
 6201TIP3    H140018   2.571   1.911  13.098 -1.8849  2.1467  1.1020
 6201TIP3    H240019   2.491   1.924  12.969 -0.0607 -1.0794 -0.4968
 6202TIP3   OH240020   5.459   2.191  15.137  0.1911 -0.7330  0.3088
 6202TIP3    H140021   5.373   2.156  15.114  0.1712 -0.7981  0.4764
 6202TIP3    H240022   5.521   2.146  15.079  0.1115 -0.6853  0.1873
 6203TIP3   OH240023   5.330   2.495   2.054 -0.2532  0.5070  0.4247
 6203TIP3    H140024   5.352   2.574   2.104 -2.0994  0.1999  1.8563
 6203TIP3    H240025   5.365   2.423   2.106 -0.6115  0.2752  0.3494
 6204TIP3   OH240026   3.231   2.119  15.751  0.0476 -0.3016 -0.4854
 6204TIP3    H140027   3.253   2.113  15.844 -0.3000  0.7133 -0.3213
 6204TIP3    H240028   3.206   2.210  15.738  1.6516 -0.0104 -1.9272
 6205TIP3   OH240029   4.696   5.653   3.249  0.6055 -0.2363  0.1150
 6205TIP3    H140030   4.603   5.675   3.246 -0.2634 -3.5720 -1.7121
 6205TIP3    H240031   4.706   5.603   3.330  1.3346  1.6801  1.2920
 6206TIP3   OH240032   2.719   5.578   2.423 -0.7352  0.8975  0.4674
 6206TIP3    H140033   2.748   5.553   2.511  1.7175  1.0707 -0.2210
 6206TIP3    H240034   2.637   5.625   2.438 -1.5209 -0.9201  2.4424
 6207TIP3   OH240035   3.100   6.079  13.381 -0.1791 -0.0362  0.2491
 6207TIP3    H140036   3.134   6.012  13.440  2.5450 -0.1390 -1.2937
 6207TIP3    H240037   3.125   6.162  13.421  0.9202 -0.0896 -0.2924
 6208TIP3   OH240038   2.801   0.025  12.027  0.5477 -0.3697 -0.1436
 6208TIP3    H140039   2.891  -0.006  12.015  0.5796 -0.1437 -0.5078
 6208TIP3    H240040   2.748  -0.054  12.017  0.7806 -0.7369  1.3552
 6209TIP3   OH240041   5.219   2.787  15.139  0.0796 -0.2967  0.0983
 6209TIP3    H140042   5.268   2.782  15.056 -0.7703  2.8264 -0.7064
 6209TIP3    H240043   5.141   2.733  15.123  0.7126 -1.0753 -0.4966
 6210TIP3   OH240044   1.193   5.539   2.929 -0.3766 -0.0488  0.4737
 6210TIP3    H140045   1.103   5.506   2.937  0.0290 -1.1028  0.7635
 6210TIP3    H240046   1.211   5.538   2.836  0.0362 -1.7905  0.5466
 6211TIP3   OH240047   5.202   0.119   0.470  0.6330 -0.5054  0.3575
 6211TIP3    H140048   5.125   0.174   0.483  0.2181 -1.1190  0.5593
 6211TIP3    H240049   5.214   0.117   0.375 -0.9580 -2.1751  0.1235
 6212TIP3   OH240050   6.351   5.377  15.196  0.7721 -0.4528  0.5823
 6212TIP3    H140051   6.373   5.419  15.113  0.2546  0.5873  0.9566
 6212TIP3    H240052   6.328   5.449  15.254 -1.2110 -1.2768  0.9314
 6213TIP3   OH240053   3.396   4.468  12.791 -0.3200 -0.0578  0.5185
 6213TIP3    H140054   3.439   4.398  12.841 -0.7655 -0.0628  0.8989
 6213TIP3    H240055   3.417   4.548  12.839 -0.6912 -0.0543  0.6737
 6214TIP3   OH240056   1.915   5.272  10.875  0.4925  0.5685  0.7572
 6214TIP3    H140057   1.928   5.325  10.796 -1.2145 -1.1936 -0.8449
 6214TIP3    H240058   1.874   5.192  10.842  1.4567 -1.0542  3.2435
 6215TIP3   OH240059   3.302   5.996  15.037 -0.6117 -0.4074  0.5882
 6215TIP3    H140060   3.371   5.992  14.971  1.0624 -0.2350  2.2603
 6215TIP3    H240061   3.276   6.089  15.038  0.0560 -0.2190  0.8479
 6216TIP3   OH240062   5.133   5.027  15.291  0.2302 -0.0316 -0.0081
 6216TIP3    H140063   5.170   5.100  15.241  3.5302 -1.4558  0.0573
 6216TIP3    H240064   5.149   5.050  15.382 -2.1777  0.7719  0.2739
 6217TIP3   OH240065   2.086   2.203  15.904  0.2782  0.9876 -0.0137
 6217TIP3    H140066   2.048   2.157  15.828 -0.4820  1.4369  0.0804
 6217TIP3    H240067   2.120   2.133  15.959 -2.0908  0.3619  0.7963
 6218TIP3   OH240068   3.877   2.684  11.137 -0.2584  0.0390 -0.6373
 6218TIP3    H140069   3.910   2.626  11.068 -0.1799 -0.8446  0.1254
 6218TIP3    H240070   3.919   2.652  11.217 -1.2682  0.2903  0.0052
 6219TIP3   OH240071   4.349   1.630  16.181 -0.1494  0.2881 -0.6491
 6219TIP3    H140072   4.281   1.619  16.247 -0.3107  1.8819 -0.5060
 6219TIP3    H240073   4.404   1.701  16.215  1.0487 -0.3514 -1.1958
 6220TIP3   OH240074   2.427   1.317  13.871 -0.0924  0.6325 -0.2565
 6220TIP3    H140075   2.339   1.297  13.904 -0.2218 -0.7735 -1.4122
 6220TIP3    H240076   2.416   1.326  13.777  0.8122  1.7009 -0.2835
 6221TIP3   OH240077   3.232   0.761  14.460 -0.4145 -0.7538  0.3024
 6221TIP3    H140078   3.220   0.676  14.418 -1.0050 -0.4218 -0.2330
 6221TIP3    H240079   3.281   0.742  14.539 -0.0441 -1.5165 -0.0960
 6222TIP3   OH240080   2.488   3.446   2.776  0.3034 -0.6183 -0.0460
 6222TIP3    H140081   2.561   3.386   2.791  0.5706 -0.2279  0.2297
 6222TIP3    H240082   2.443   3.410   2.700  0.9024 -0.7551 -0.3446
 6223TIP3   OH240083   6.697   6.202  16.253  0.6194  0.0833  0.3859
 6223TIP3    H140084   6.787   6.181  16.231  0.6366 -0.5644  1.0374
 6223TIP3    H240085   6.696   6.297  16.265  0.5961  0.5106 -2.3841
 6224TIP3   OH240086   0.591   6.227  13.787  0.1644 -0.1455  0.2323
 6224TIP3    H140087   0.564   6.313  13.820 -0.4040 -0.5644  0.8883
 6224TIP3    H240088   0.622   6.244  13.698  0.8455  0.8694  0.6392
 6225TIP3   OH240089   5.061   2.589   5.601 -0.2280 -0.1586 -0.4954
 6225TIP3    H140090   5.130   2.641   5.642 -0.6803 -0.0270  0.1207
 6225TIP3    H240091   4.980   2.619   5.642 -0.5788 -0.8014 -0.6909
 6226TIP3   OH240092   2.454   5.405   0.159  0.1983 -0.2621 -0.1678
 6226TIP3    H140093   2.481   5.316   0.179 -1.3385 -0.2605  2.3388
 6226TIP3    H240094   2.359   5.402   0.159  0.1149  1.3621 -0.1464
 6227TIP3   OH240095   1.918   3.012  13.431 -0.4563  0.2244 -0.3822
 6227TIP3    H140096   1.896   2.989  13.341  0.9506  0.3538 -0.7885
 6227TIP3    H240097   1.904   3.106  13.436  0.5767  0.4157 -0.8307
 6228TIP3   OH240098   3.161   0.731   3.573  0.4895 -0.5220  0.0789
 6228TIP3    H140099   3.109   0.683   3.638 -0.7030  0.8056  0.1509
 6228TIP3    H240100   3.218   0.787   3.625  0.2983 -0.2391 -0.0164
 6229TIP3   OH240101   0.368   1.570  16.024 -0.2477  0.2604 -0.8051
 6229TIP3    H140102   0.313   1.517  16.082  2.7346 -0.4860  1.5786
 6229TIP3    H240103   0.360   1.659  16.058 -1.2053  0.4688 -1.5271
 6230TIP3   OH240104   0.199   0.561  16.438 -0.0535 -0.0369  0.5421
 6230TIP3    H140105   0.244   0.594  16.516  0.3575  0.3700  0.1441
 6230TIP3    H240106   0.262   0.501  16.398 -0.8856 -1.4982  1.3827
 6231TIP3   OH240107   4.621   1.523   0.443 -0.1391 -0.4017  0.5795
 6231TIP3    H140108   4.696   1.502   0.388  1.2906 -0.5815  2.5071
 6231TIP3    H240109   4.611   1.618   0.434  1.3295 -0.1385  1.5064
 6232TIP3   OH240110   4.497   5.185   2.363  0.1069 -0.1620  0.4539
 6232TIP3    H140111   4.517   5.279   2.357  0.0423 -0.1728  0.0631
 6232TIP3    H240112   4.567   5.149   2.417 -0.0779  0.1759  0.9371
 6233TIP3   OH240113   6.714   5.160  17.104  0.1538 -0.9870 -0.0246
 6233TIP3    H140114   6.707   5.222  17.177 -0.3673 -2.0276  0.8376
 6233TIP3    H240115   6.773   5.203  17.042 -0.7597  0.6922  0.1990
 6234TIP3   OH240116   5.789   5.819   4.761 -0.0065  0.5827 -0.0464
 6234TIP3    H140117   5.846   5.860   4.695  0.5399  0.7076  0.4882
 6234TIP3    H240118   5.848   5.764   4.812 -0.0915  1.6973  1.3330
 6235TIP3   OH240119   3.855   1.297  10.638  0.2112 -0.1247 -0.5087
 6235TIP3    H140120   3.873   1.391  10.642 -0.9271  0.0643  2.0198
 6235TIP3    H240121   3.765   1.291  10.606  0.3376 -0.3508 -0.8179
 6236TIP3   OH240122   5.919   1.587  11.265  0.5643 -0.4529 -0.0258
 6236TIP3    H140123   5.962   1.595  11.180  0.5325  0.9409  0.0699
 6236TIP3    H240124   5.877   1.501  11.262  0.8228 -0.5586 -1.2977
 6237TIP3   OH240125   4.305   4.253  13.047  0.1167  0.0200 -0.5913
 6237TIP3    H140126   4.307   4.227  13.140 -0.2304  0.8015 -0.3567
 6237TIP3    H240127   4.269   4.342  13.048  0.4104  0.1552 -1.4542
 6238TIP3   OH240128   0.520   3.258   2.518  0.0480  0.5480  0.2258
 6238TIP3    H140129   0.443   3.289   2.470  0.3846 -0.1565 -0.7992
 6238TIP3    H240130   0.513   3.300   2.604 -1.7066  0.1636  0.3124
 6239TIP3   OH240131   0.641   1.912  15.562 -0.5103 -0.3043 -0.3499
 6239TIP3    H140132   0.586   1.893  15.486 -0.2320 -1.2608 -0.3358
 6239TIP3    H240133   0.590   1.883  15.637 -0.1592 -0.8339 -0.3061
 6240TIP3   OH240134   3.480   3.061  15.253 -0.1237 -0.5414 -0.7136
 6240TIP3    H140135   3.461   2.973  15.219  1.9301 -0.8505 -1.2366
 6240TIP3    H240136   3.411   3.078  15.317 -0.4431 -2.6245 -0.4376
 6241TIP3   OH240137   5.382   6.458  12.556 -0.2769  0.3149 -1.2689
 6241TIP3    H140138   5.371   6.464  12.461 -0.0707  0.6279 -1.2737
 6241TIP3    H240139   5.422   6.541  12.581 -0.9801  0.5201 -0.8103
 6242TIP3   OH240140   2.252   1.513   3.194 -0.0914 -0.2952 -0.2789
 6242TIP3    H140141   2.252   1.467   3.111 -0.5312  0.8844 -0.9565
 6242TIP3    H240142   2.176   1.479   3.241 -0.6157 -0.0282 -0.9161
 6243TIP3   OH240143   4.498   5.598  15.323  0.4329 -0.2359 -0.3406
 6243TIP3    H140144   4.550   5.518  15.315  2.3655  0.9503 -0.2431
 6243TIP3    H240145   4.414   5.568  15.357  1.7957 -2.0047  1.7824
 6244TIP3   OH240146   5.234   1.017   1.653  0.5209 -0.3371  0.0047
 6244TIP3    H140147   5.286   0.944   1.620  0.8735  0.1082 -0.4323
 6244TIP3    H240148   5.291   1.094   1.643 -0.0461  0.0813 -0.0383
 6245TIP3   OH240149   5.984   3.491   1.431  0.7651 -0.1587 -0.7718
 6245TIP3    H140150   6.012   3.583   1.438 -0.4280  0.3095 -1.7870
 6245TIP3    H240151   6.058   3.447   1.389  0.9327  0.5676 -1.2572
 6246TIP3   OH240152   4.658   2.193  15.045  0.0318 -0.2001  0.0047
 6246TIP3    H140153   4.597   2.122  15.026 -2.6929  1.8065  0.6794
 6246TIP3    H240154   4.686   2.225  14.959  1.1357 -1.8655 -0.2994
 6247TIP3   OH240155   1.074   4.101  16.591 -0.2406  0.3430 -0.1383
 6247TIP3    H140156   0.997   4.146  16.626  0.0884  0.0187  1.0621
 6247TIP3    H240157   1.117   4.166  16.536  0.6429  1.8151  2.1471
 6248TIP3   OH240158   0.380   5.798   0.928  0.1163  0.7537 -0.2411
 6248TIP3    H140159   0.295   5.756   0.945 -0.5066  2.6536  1.7872
 6248TIP3    H240160   0.441   5.753   0.987  0.0737  0.7652 -0.1880
 6249TIP3   OH240161   4.262   3.061  15.180  0.3539  0.0652  0.8558
 6249TIP3    H140162   4.293   3.001  15.247 -1.7647  0.1614  2.0299
 6249TIP3    H240163   4.180   3.096  15.216 -0.5042  0.6443 -1.5062
 6250TIP3   OH240164   3.288   1.637   5.470  0.3160  0.1302 -0.3963
 6250TIP3    H140165   3.304   1.578   5.544  1.0706  0.8163 -0.0050
 6250TIP3    H240166   3.290   1.724   5.508  1.4226  0.5399 -1.3386
 6251TIP3   OH240167   4.412   3.779  11.277 -0.2453 -0.1504  0.5438
 6251TIP3    H140168   4.404   3.717  11.204  0.6397 -0.8722  1.0418
 6251TIP3    H240169   4.494   3.755  11.320  0.2435  1.5386  0.6035
 6252TIP3   OH240170   2.431   5.981   4.711 -0.5041  0.4669 -0.0110
 6252TIP3    H140171   2.484   5.938   4.644 -2.1019 -0.0514 -0.9808
 6252TIP3    H240172   2.407   5.912   4.772  1.4135  1.0277  1.5196
 6253TIP3   OH240173   3.743   5.743   2.337 -0.1448  0.1775  0.3876
 6253TIP3    H140174   3.772   5.735   2.246  0.7373  0.9038  0.5981
 6253TIP3    H240175   3.727   5.653   2.365  0.7658 -0.1483 -0.1053
 6254TIP3   OH240176   6.076   1.687   4.775 -0.1615 -0.5276 -0.3465
 6254TIP3    H140177   6.022   1.701   4.697 -0.3445  0.0338 -0.1225
 6254TIP3    H240178   6.018   1.707   4.848  0.2453 -0.2798 -0.0893
 6255TIP3   OH240179   6.637   5.499   4.203  0.5489 -0.3541  0.6643
 6255TIP3    H140180   6.680   5.577   4.167 -2.9131  1.1928 -0.6091
 6255TIP3    H240181   6.590   5.531   4.280  0.5369 -1.6295  1.2079
 6256TIP3   OH240182   4.150   4.521  15.115 -0.3547  0.1627  0.2732
 6256TIP3    H140183   4.191   4.463  15.180  0.5664 -0.8567 -1.1499
 6256TIP3    H240184   4.129   4.463  15.041  1.2443  1.7202 -1.4978
 6257TIP3   OH240185   0.238   5.529  15.816  0.0161 -0.3764 -0.5601
 6257TIP3    H140186   0.232   5.462  15.748 -0.8292 -0.1392 -0.7320
 6257TIP3    H240187   0.272   5.606  15.772  0.3157 -0.4875 -0.5203
 6258TIP3   OH240188   4.578   2.522   3.444  0.8962  0.3662 -0.4388
 6258TIP3    H140189   4.622   2.473   3.513 -1.4495  1.1805  1.7825
 6258TIP3    H240190   4.512   2.461   3.411 -0.9425  1.3827  1.2033
 6259TIP3   OH240191   2.817   3.632  11.403 -0.4248 -0.4134 -0.0050
 6259TIP3    H140192   2.868   3.686  11.463 -0.8333 -1.3687  1.2461
 6259TIP3    H240193   2.840   3.542  11.427 -0.3606 -0.8299 -1.5039
 6260TIP3   OH240194   0.974   0.213   0.808  0.4649  0.9440  0.3419
 6260TIP3    H140195   1.002   0.192   0.898  1.8946  2.0159  0.1927
 6260TIP3    H240196   1.026   0.155   0.753 -2.9351 -2.3190  0.2080
 6261TIP3   OH240197   1.980   1.498   2.333  0.5538  0.0050  0.5997
 6261TIP3    H140198   2.040   1.454   2.393 -0.4178 -1.0056  0.8552
 6261TIP3    H240199   2.002   1.463   2.246  1.1564  0.5722  0.5166
 6262TIP3   OH240200   0.685   3.938   1.665 -0.0136  0.7264  0.2220
 6262TIP3    H140201   0.752   3.918   1.599  0.3410  0.5656  0.6279
 6262TIP3    H240202   0.688   4.033   1.673  3.7839  0.5942  3.8860
 6263TIP3   OH240203   3.809   4.341   4.545  0.2983  0.1028  0.8828
 6263TIP3    H140204   3.866   4.277   4.589  0.9608  0.8764  1.1801
 6263TIP3    H240205   3.753   4.375   4.615  0.9224  0.8727  1.0288
 6264TIP3   OH240206   4.723   2.305  14.787 -0.2285  0.2944 -0.1562
 6264TIP3    H140207   4.675   2.335  14.710 -0.4700  0.2027 -0.0446
 6264TIP3    H240208   4.779   2.378  14.811  0.6902 -0.0800 -1.0930
 6265TIP3   OH240209   1.749   3.990  13.699  0.0173  0.4280  0.1312
 6265TIP3    H140210   1.745   4.013  13.792  1.1278  0.6544  0.1399
 6265TIP3    H240211   1.837   4.017  13.671  0.2269 -0.9151 -0.6400
 6266TIP3   OH240212   0.993   5.902  12.886  0.0742 -0.1649 -0.0878
 6266TIP3    H140213   0.903   5.870  12.883 -0.4054  1.2478 -1.3603
 6266TIP3    H240214   1.001   5.939  12.974 -0.7428  0.1513 -0.1351
 6267TIP3   OH240215   3.676   3.521  17.007  0.0563 -0.1111 -0.1386
 6267TIP3    H140216   3.647   3.610  16.991  3.4479  1.2294  0.2455
 6267TIP3    H240217   3.690   3.517  17.102 -0.0538 -1.0441 -0.1538
 6268TIP3   OH240218   5.577   1.982  12.491 -0.0992  0.0164  0.2119
 6268TIP3    H140219   5.487   1.996  12.520  0.4812  0.2246  2.0680
 6268TIP3    H240220   5.614   1.922  12.555  0.5617 -1.6678 -1.6361
 6269TIP3   OH240221   4.682   3.951   3.871 -0.0596 -0.2665  0.0685
 6269TIP3    H140222   4.736   3.937   3.949 -0.6130 -0.1573  0.4800
 6269TIP3    H240223   4.606   3.999   3.903  0.7700  1.8270 -0.9326
 6270TIP3   OH240224   6.769   6.057  12.915  0.6232 -0.0745 -0.7205
 6270TIP3    H140225   6.710   5.991  12.951  1.5892  0.2196  1.5669
 6270TIP3    H240226   6.741   6.139  12.955  0.8388  0.5323 -1.7902
 6271TIP3   OH240227   3.559   3.157   3.111  0.3695 -0.4757 -0.4064
 6271TIP3    H140228   3.469   3.183   3.128  0.0858 -1.0185 -1.0420
 6271TIP3    H240229   3.612   3.219   3.161 -0.4006 -3.0452  4.1353
 6272TIP3   OH240230   0.036   2.123   3.891  0.3301  0.1729  0.0253
 6272TIP3    H140231   0.116   2.071   3.897 -1.3968 -2.6424  0.2147
 6272TIP3    H240232   0.012   2.142   3.982 -1.1521 -2.3222  0.2461
 6273TIP3   OH240233   0.676   0.453  15.975 -0.1420 -0.0233  0.1244
 6273TIP3    H140234   0.604   0.487  15.923 -0.7193 -1.1869  0.1368
 6273TIP3    H240235   0.740   0.421  15.911  0.1823  0.6196  0.1188
 6274TIP3   OH240236   6.665   1.315   5.100 -0.6162 -0.2231 -0.4199
 6274TIP3    H140237   6.622   1.373   5.036 -3.0563 -1.6158 -0.1749
 6274TIP3    H240238   6.621   1.334   5.183  0.3979 -0.5753  0.2159
 6275TIP3   OH240239   2.674   6.569   5.177 -0.6183  0.2497  0.1530
 6275TIP3    H140240   2.617   6.588   5.102 -0.5602  0.9567  0.2830
 6275TIP3    H240241   2.614   6.545   5.247 -0.6093 -2.4306 -0.6389
 6276TIP3   OH240242   2.139   5.523   6.097  0.1146 -0.4690  0.9758
 6276TIP3    H140243   2.051   5.493   6.074 -0.1365  1.0022 -0.1919
 6276TIP3    H240244   2.192   5.444   6.100 -0.9408 -1.2314  0.1768
 6277TIP3   OH240245   5.530   5.609  10.807 -0.1728 -0.3324  0.0285
 6277TIP3    H140246   5.449   5.638  10.766  0.3231 -1.5972 -1.9415
 6277TIP3    H240247   5.562   5.539  10.752  2.9610  0.9718 -0.0364
 6278TIP3   OH240248   0.093   4.161  15.501  0.0323 -0.0717  0.0606
 6278TIP3    H140249   0.001   4.139  15.487 -0.1169  0.5847 -0.0490
 6278TIP3    H240250   0.133   4.080  15.531 -1.3010  0.4165  3.6141
 6279TIP3   OH240251   4.912   4.115  13.369 -0.1365  0.0462  0.4875
 6279TIP3    H140252   4.859   4.179  13.416 -0.8854  1.2536 -1.8156
 6279TIP3    H240253   4.883   4.122  13.278  0.8630 -2.4929 -0.1315
 6280TIP3   OH240254   0.567   2.121  16.717  0.4055 -0.4443  0.2213
 6280TIP3    H140255   0.593   2.030  16.702 -0.4281 -0.5290 -0.8883
 6280TIP3    H240256   0.582   2.164  16.632 -0.4785  0.1296  0.3480
 6281TIP3   OH240257   3.022   5.540   0.256  0.1470 -0.2349  0.0175
 6281TIP3    H140258   3.024   5.593   0.176 -0.6410  1.8781  1.3123
 6281TIP3    H240259   2.950   5.479   0.243  0.5883 -0.5234 -1.2090
 6282TIP3   OH240260   3.319   1.907   5.600  0.4355  0.5641 -0.0227
 6282TIP3    H140261   3.290   1.932   5.687 -1.2925 -0.3309 -0.2944
 6282TIP3    H240262   3.331   1.990   5.554 -1.1318  1.0179  0.3267
 6283TIP3   OH240263   4.003   1.441   3.119 -0.3866  0.4004  0.3333
 6283TIP3    H140264   4.011   1.534   3.098 -0.6010  0.1665 -0.8511
 6283TIP3    H240265   4.004   1.438   3.215 -1.2439  1.7061  0.4170
 6284TIP3   OH240266   0.013   3.335   2.999  0.2834 -0.0913 -0.1792
 6284TIP3    H140267   0.070   3.275   3.047 -0.0251 -0.2897 -0.0609
 6284TIP3    H240268   0.071   3.408   2.974  0.6436 -0.4086 -0.2784
 6285TIP3   OH240269   6.031   6.489   1.188  0.1268 -0.1273 -0.3355
 6285TIP3    H140270   5.936   6.489   1.177 -0.2361 -0.2800  2.2624
 6285TIP3    H240271   6.055   6.582   1.189 -0.2528 -0.0329  0.7248
 6286TIP3   OH240272   6.478   3.551  12.433 -0.8921 -0.4777  0.1907
 6286TIP3    H140273   6.557   3.603  12.426  0.0494 -1.1725  3.7122
 6286TIP3    H240274   6.412   3.611  12.466 -1.1975 -0.4352 -0.4816
 6287TIP3   OH240275   3.073   5.154   4.388 -0.2291 -0.2941  0.2592
 6287TIP3    H140276   3.024   5.184   4.311 -0.3334  0.3823  0.5804
 6287TIP3    H240277   3.135   5.224   4.406 -1.6023  0.5686  2.0356
 6288TIP3   OH240278   3.547   5.056  13.568  0.1929  0.5054  0.1104
 6288TIP3    H140279   3.618   5.053  13.505  0.3380  2.2649  0.1467
 6288TIP3    H240280   3.500   4.973  13.555 -0.5610  1.2879 -3.2371
 6289TIP3   OH240281   0.110   3.755   3.903  0.4127  0.3981 -0.3141
 6289TIP3    H140282   0.045   3.812   3.860 -1.0491 -2.7930 -2.7215
 6289TIP3    H240283   0.061   3.710   3.971  1.2929  1.1558  0.8574
 6290TIP3   OH240284   3.578   2.415  16.271  0.0883 -0.3374  0.1535
 6290TIP3    H140285   3.543   2.327  16.257  0.6721 -0.2711 -2.0786
 6290TIP3    H240286   3.580   2.455  16.184  0.7771  1.5452  0.9643
 6291TIP3   OH240287   2.234   4.819  10.740 -0.5891 -0.4560  0.3111
 6291TIP3    H140288   2.217   4.727  10.759  0.2766 -0.5184  0.8528
 6291TIP3    H240289   2.151   4.853  10.706 -0.8073 -1.5251 -0.2696
 6292TIP3   OH240290   4.103   3.657   1.684  0.8168 -0.9194  0.0171
 6292TIP3    H140291   4.044   3.732   1.681  0.3756 -1.2206  0.9026
 6292TIP3    H240292   4.064   3.597   1.748  0.3003 -2.6542 -1.8111
 6293TIP3   OH240293   0.941   5.626  13.479  0.6358 -0.2869 -0.5540
 6293TIP3    H140294   1.017   5.606  13.425  2.2861 -2.2348  2.2657
 6293TIP3    H240295   0.900   5.542  13.496 -1.7083  0.6221 -1.2262
 6294TIP3   OH240296   6.145   1.861   1.342  0.2713  0.5066  0.3347
 6294TIP3    H140297   6.088   1.812   1.283 -0.3767  1.1263  0.4256
 6294TIP3    H240298   6.164   1.799   1.413 -0.0954  0.2082  0.1782
 6295TIP3   OH240299   0.430   3.778   1.468 -0.1400 -0.2095  0.1238
 6295TIP3    H140300   0.509   3.831   1.469 -0.7676  0.7679 -0.3406
 6295TIP3    H240301   0.439   3.722   1.391  0.1896 -0.2587  0.1955
 6296TIP3   OH240302   6.702   5.221   5.488 -0.5276 -0.3557 -0.1897
 6296TIP3    H140303   6.759   5.214   5.564 -1.3983 -1.9846  0.3359
 6296TIP3    H240304   6.752   5.276   5.427  1.2438 -1.0241  0.5745
 6297TIP3   OH240305   4.332   0.885  16.734  0.4643 -0.7574  0.1366
 6297TIP3    H140306   4.337   0.820  16.664 -0.3382  0.8942 -1.5271
 6297TIP3    H240307   4.358   0.967  16.693  0.8326  0.1246  2.0205
 6298TIP3   OH240308   0.830   5.149  10.910 -0.4570 -0.0455 -0.5465
 6298TIP3    H140309   0.748   5.153  10.959 -1.0053  0.1416 -1.4459
 6298TIP3    H240310   0.802   5.146  10.818  0.5565  0.2677 -0.8719
 6299TIP3   OH240311   6.219   2.437   2.965  0.5744 -0.2875  0.2870
 6299TIP3    H140312   6.197   2.345   2.979 -4.1837  0.6073  0.3079
 6299TIP3    H240313   6.215   2.449   2.870  2.8762 -0.3108  0.1218
 6300TIP3   OH240314   1.256   6.019   1.656 -1.1971 -0.2860  0.4819
 6300TIP3    H140315   1.198   6.087   1.692 -2.2777 -1.5954  1.3385
 6300TIP3    H240316   1.196   5.950   1.627 -0.1070 -1.1326  0.1891
 6301TIP3   OH240317   3.713   4.080   3.358  0.0095 -0.1590 -0.1157
 6301TIP3    H140318   3.665   4.121   3.430 -0.5335 -2.5380  1.0065
 6301TIP3    H240319   3.665   4.104   3.280 -1.1223  0.1388  0.6500
 6302TIP3   OH240320   1.392   1.449   0.100  0.3428  0.0523 -0.0596
 6302TIP3    H140321   1.421   1.501   0.025  1.0541 -1.7905 -1.1239
 6302TIP3    H240322   1.386   1.512   0.172  0.8955  1.6360 -1.3418
 6303TIP3   OH240323   0.560   2.588  14.683  0.0792 -0.0563  0.2115
 6303TIP3    H140324   0.497   2.654  14.710 -0.2127 -0.4049  0.4024
 6303TIP3    H240325   0.622   2.634  14.627  0.5588  0.6285  1.2817
 6304TIP3   OH240326   2.729   1.444  11.449  0.3259 -0.2699  0.5544
 6304TIP3    H140327   2.704   1.532  11.422  2.6465  0.9386  2.0027
 6304TIP3    H240328   2.797   1.418  11.386 -0.2694 -1.0024  0.1991
 6305TIP3   OH240329   0.363   5.628  14.636  0.0341 -0.5657 -0.4655
 6305TIP3    H140330   0.358   5.620  14.541  2.1290 -0.8514 -0.5974
 6305TIP3    H240331   0.428   5.696  14.651  1.1275 -1.8055  0.7363
 6306TIP3   OH240332   4.699   1.337  13.814  0.2661  0.0116 -1.0010
 6306TIP3    H140333   4.608   1.325  13.787  0.1578 -0.5076 -0.4166
 6306TIP3    H240334   4.701   1.424  13.854  0.1298  0.2064 -1.4070
 6307TIP3   OH240335   6.222   2.149   3.077  0.7660 -0.0830  0.0935
 6307TIP3    H140336   6.317   2.141   3.073  0.7175 -2.7535  1.5675
 6307TIP3    H240337   6.190   2.077   3.022 -0.3317 -0.1837  0.8213
 6308TIP3   OH240338   2.391   4.363  13.567  0.3521 -0.5436 -0.0186
 6308TIP3    H140339   2.467   4.420  13.561  0.8015 -0.9188  1.7244
 6308TIP3    H240340   2.408   4.293  13.503  1.5768 -0.7363  0.4963
 6309TIP3   OH240341   5.388   3.149  13.713  0.6415  0.5300 -0.6172
 6309TIP3    H140342   5.329   3.144  13.788  0.0706  1.5011 -0.9862
 6309TIP3    H240343   5.453   3.080  13.729 -1.1823 -1.2978 -0.7151
 6310TIP3   OH240344   4.953   0.207   1.308  0.3609 -0.5698 -0.1104
 6310TIP3    H140345   4.939   0.124   1.263  0.0016 -1.3025  1.3111
 6310TIP3    H240346   5.046   0.208   1.329  0.4131 -0.4926 -0.3399
 6311TIP3   OH240347   1.729   5.425  12.971  0.1347 -0.8243 -0.3211
 6311TIP3    H140348   1.639   5.448  12.992  0.2216 -0.4260 -0.3722
 6311TIP3    H240349   1.769   5.508  12.944 -0.0733 -1.3660 -2.4945
 6312TIP3   OH240350   4.634   2.202   2.554  0.0117 -0.2926 -0.0765
 6312TIP3    H140351   4.699   2.273   2.559 -1.9422  1.5486  1.2786
 6312TIP3    H240352   4.610   2.197   2.462 -0.3445  1.4155 -0.1138
 6313TIP3   OH240353   4.975   6.742  11.895 -0.4513  0.6392  0.3178
 6313TIP3    H140354   4.962   6.648  11.883  0.7131  0.4972  0.0066
 6313TIP3    H240355   5.065   6.757  11.868 -0.6010  1.8428  0.4275
 6314TIP3   OH240356   2.704   6.376  14.653 -0.3254  0.1113  0.4280
 6314TIP3    H140357   2.770   6.339  14.712  1.4821  1.3969 -0.7128
 6314TIP3    H240358   2.669   6.452  14.700  1.2651  1.2625 -0.1728
 6315TIP3   OH240359   3.086   3.842   5.910  0.1859 -0.1408  0.0209
 6315TIP3    H140360   3.006   3.813   5.865  0.6918 -1.8053  0.1225
 6315TIP3    H240361   3.138   3.883   5.841 -0.6866  0.8392 -0.0748
 6316TIP3   OH240362   5.985   1.359  12.649  0.8091  0.0776 -0.0366
 6316TIP3    H140363   5.898   1.390  12.625  0.1351 -2.5093 -1.3282
 6316TIP3    H240364   6.032   1.437  12.676 -1.6328  1.6838 -0.1400
 6317TIP3   OH240365   3.602   1.905  13.051 -0.2634 -0.2220  0.4335
 6317TIP3    H140366   3.593   1.951  12.968  2.5200 -1.6879 -0.8219
 6317TIP3    H240367   3.532   1.839  13.050 -3.2732  2.6302  1.5525
 6318TIP3   OH240368   3.096   3.863   2.169  0.3729  0.5133 -0.1335
 6318TIP3    H140369   3.156   3.936   2.184 -1.2863  2.0089 -0.3128
 6318TIP3    H240370   3.009   3.902   2.182 -0.5469 -1.8660  1.5257
 6319TIP3   OH240371   1.837   1.891   4.831 -0.1558 -0.2402  0.3135
 6319TIP3    H140372   1.865   1.812   4.878 -1.7288  0.5437  2.7395
 6319TIP3    H240373   1.744   1.877   4.814 -0.2483  0.7196 -0.0128
 6320TIP3   OH240374   2.581   3.549   0.910  0.4102 -0.0521 -0.2960
 6320TIP3    H140375   2.576   3.489   0.984 -1.2846 -0.1836 -0.4738
 6320TIP3    H240376   2.490   3.563   0.884  0.9353  0.0704 -2.2862
 6321TIP3   OH240377   5.288   5.376   2.464 -0.4556  0.0275 -0.6415
 6321TIP3    H140378   5.289   5.428   2.384 -0.6503 -1.4715 -1.6533
 6321TIP3    H240379   5.381   5.366   2.487 -0.3931  0.3425 -0.7574
 6322TIP3   OH240380   4.788   6.161  10.934  0.0514 -0.1788 -0.0869
 6322TIP3    H140381   4.883   6.170  10.930  0.0128  0.6067  0.3940
 6322TIP3    H240382   4.766   6.184  11.024 -0.4442 -2.0614  0.2956
 6323TIP3   OH240383   4.330   1.103  10.530  0.1245  0.3361 -0.4714
 6323TIP3    H140384   4.376   1.167  10.475 -0.1055  0.4520 -0.5306
 6323TIP3    H240385   4.396   1.073  10.592  0.6474 -0.4975 -1.4068
 6324TIP3   OH240386   4.388   0.746   0.200 -0.3783  0.1658  0.3947
 6324TIP3    H140387   4.315   0.781   0.251 -0.7305 -0.3473  0.2575
 6324TIP3    H240388   4.385   0.795   0.118 -0.7606 -0.0545  0.2709
 6325TIP3   OH240389   0.448   2.130   5.161  0.0490 -0.6639  0.2812
 6325TIP3    H140390   0.462   2.212   5.208 -0.8810  0.1377 -0.7858
 6325TIP3    H240391   0.535   2.089   5.157  0.5843  0.4293  0.5251
 6326TIP3   OH240392   6.618   4.372   0.308 -0.1068 -0.3223  0.3737
 6326TIP3    H140393   6.652   4.462   0.308  2.7747 -1.2852 -0.3044
 6326TIP3    H240394   6.552   4.371   0.377 -0.8319  2.4887 -0.1361
 6327TIP3   OH240395   0.618   4.148  14.172 -0.0413  0.1590 -0.2092
 6327TIP3    H140396   0.673   4.173  14.098 -1.1293  0.1538 -1.0399
 6327TIP3    H240397   0.579   4.230  14.202  1.0352  0.2820  0.9041
 6328TIP3   OH240398   1.992   1.366  11.663 -0.3839  0.1003  0.1011
 6328TIP3    H140399   2.064   1.305  11.676 -0.2674  0.4379  1.1112
 6328TIP3    H240400   2.009   1.406  11.578 -0.0712 -0.7393 -0.2398
 6329TIP3   OH240401   6.155   0.433   5.265 -0.4400  0.2006  0.3196
 6329TIP3    H140402   6.112   0.349   5.250 -1.3339  1.0085 -2.2434
 6329TIP3    H240403   6.089   0.486   5.310  0.2393 -0.4810  2.2454
 6330TIP3   OH240404   2.025   3.454  14.718 -0.5606 -0.1740  0.2363
 6330TIP3    H140405   2.081   3.413  14.652 -0.2688 -0.6228  0.7530
 6330TIP3    H240406   2.020   3.389  14.789 -0.3839  0.5393  0.9140
 6331TIP3   OH240407   3.951   3.657  12.710 -0.4919  0.0636 -0.0224
 6331TIP3    H140408   3.912   3.700  12.786 -2.1031 -3.0463  1.0633
 6331TIP3    H240409   3.889   3.675  12.639 -2.0578 -1.7057  0.8169
 6332TIP3   OH240410   3.147   2.282   3.604 -0.1881 -0.1096  0.4568
 6332TIP3    H140411   3.051   2.283   3.597 -0.3096 -4.4541 -2.9916
 6332TIP3    H240412   3.176   2.348   3.541 -1.0301 -0.7031 -0.5955
 6333TIP3   OH240413   1.479   5.300  14.486 -0.2917 -0.1234  0.0253
 6333TIP3    H140414   1.447   5.378  14.533 -1.5998 -0.3798 -0.4038
 6333TIP3    H240415   1.436   5.227  14.530  1.8442 -0.7446  1.1928
 6334TIP3   OH240416   6.509   1.172  14.359 -0.2611 -0.3953 -0.2682
 6334TIP3    H140417   6.549   1.085  14.355 -0.2038 -0.3771 -0.0911
 6334TIP3    H240418   6.560   1.224  14.296 -1.3089 -0.8903 -1.5647
 6335TIP3   OH240419   6.536   0.679  10.972 -0.0737  0.2928 -0.3539
 6335TIP3    H140420   6.484   0.604  11.002 -2.1456  1.9551  0.4861
 6335TIP3    H240421   6.489   0.713  10.896  1.5808  0.0056 -1.5629
 6336TIP3   OH240422   3.347   0.577  15.282  0.1988 -0.2347  0.7987
 6336TIP3    H140423   3.401   0.539  15.352 -0.7741 -3.0879  0.1448
 6336TIP3    H240424   3.258   0.575  15.317 -0.4658 -2.6889 -0.7418
 6337TIP3   OH240425   2.111   3.710  13.508 -0.4185 -0.6102  0.2353
 6337TIP3    H140426   2.094   3.736  13.598  0.2220 -0.6741  0.3787
 6337TIP3    H240427   2.044   3.643  13.489 -2.1033  1.0924 -0.1468
 6338TIP3   OH240428   2.347   5.183   4.847  0.3166  0.1912 -0.3491
 6338TIP3    H140429   2.435   5.148   4.832 -0.1135 -0.3934 -1.6858
 6338TIP3    H240430   2.309   5.192   4.759 -0.6611  1.2437  0.1515
 6339TIP3   OH240431   6.135   1.617   0.923  0.0220  0.4962 -0.2797
 6339TIP3    H140432   6.214   1.601   0.873  0.8806  2.2704  0.4399
 6339TIP3    H240433   6.115   1.532   0.964  0.5447 -0.3962 -1.8022
 6340TIP3   OH240434   5.306   4.095  15.951  0.0597 -0.1063  0.2325
 6340TIP3    H140435   5.269   4.009  15.966  1.5660 -1.0088 -0.9437
 6340TIP3    H240436   5.399   4.086  15.969  0.3019  1.1983 -0.2001
 6341TIP3   OH240437   0.466   4.371   4.025  0.2339  0.2529 -0.0962
 6341TIP3    H140438   0.460   4.351   4.118  0.6465 -1.9594 -0.4679
 6341TIP3    H240439   0.543   4.426   4.017  0.0184  0.7165  0.8979
 6342TIP3   OH240440   4.882   3.119  12.469  0.0945  0.1662  0.0701
 6342TIP3    H140441   4.840   3.082  12.547  0.0403  0.6874  0.2900
 6342TIP3    H240442   4.976   3.105  12.484  0.3358  2.8291  1.6079
 6343TIP3   OH240443   3.901   2.403  12.725 -0.5188 -0.0253  0.2565
 6343TIP3    H140444   3.817   2.368  12.753  0.0434 -0.4074  1.5370
 6343TIP3    H240445   3.931   2.457  12.799 -0.2023  1.1200 -0.6741
 6344TIP3   OH240446   2.932   2.161  16.019 -0.1818  0.1160  0.1207
 6344TIP3    H140447   3.011   2.125  15.977  0.9252  2.2437  0.2599
 6344TIP3    H240448   2.959   2.174  16.111 -1.2073 -0.5336  0.5310
 6345TIP3   OH240449   0.920   3.248   0.941  0.0726 -0.1205  0.1277
 6345TIP3    H140450   0.875   3.179   0.989  1.4232 -0.5009  0.9027
 6345TIP3    H240451   1.013   3.229   0.953  0.4687  1.3895 -0.2945
 6346TIP3   OH240452   0.367   2.105  14.311 -0.1717 -0.0974 -0.4656
 6346TIP3    H140453   0.440   2.140  14.362  1.6450 -3.4535 -0.4709
 6346TIP3    H240454   0.308   2.067  14.376  0.6436 -1.6995 -0.5871
 6347TIP3   OH240455   4.990   5.306   4.960  0.1840 -0.0487 -0.2492
 6347TIP3    H140456   5.072   5.338   4.999  0.5727 -0.2458 -0.8891
 6347TIP3    H240457   4.922   5.361   4.999  0.6329  0.1873  0.2109
 6348TIP3   OH240458   2.748   5.526   2.686  0.4329  0.1426  0.1131
 6348TIP3    H140459   2.827   5.479   2.710 -0.0333 -1.6632 -1.5802
 6348TIP3    H240460   2.706   5.547   2.770  2.3416  0.5923  1.0101
 6349TIP3   OH240461   0.344   3.830   4.319  0.0199 -0.0314  0.2925
 6349TIP3    H140462   0.374   3.740   4.312  2.1738  0.5182  1.6510
 6349TIP3    H240463   0.267   3.826   4.376  0.2365 -0.9851  0.5262
 6350TIP3   OH240464   5.977   0.513   0.931  0.0967 -0.3220 -0.0343
 6350TIP3    H140465   6.025   0.433   0.952 -1.3491 -0.8586  1.4605
 6350TIP3    H240466   6.008   0.537   0.844  0.8754 -2.2811 -0.3632
 6351TIP3   OH240467   1.631   2.712  14.413  0.0987  0.3429  0.6484
 6351TIP3    H140468   1.568   2.669  14.355 -0.4758  2.2129 -0.1828
 6351TIP3    H240469   1.705   2.732  14.356 -0.1282  1.4656  0.7402
 6352TIP3   OH240470   1.593   3.371   4.767 -0.6949  0.2622 -0.5242
 6352TIP3    H140471   1.499   3.390   4.760 -0.4956  1.5696  0.0601
 6352TIP3    H240472   1.626   3.437   4.828  1.1823  1.8775 -3.0771
 6353TIP3   OH240473   4.696   1.267   2.048 -0.5302 -0.2328 -0.2154
 6353TIP3    H140474   4.708   1.207   1.974  1.4720 -1.1333  0.7681
 6353TIP3    H240475   4.653   1.343   2.011 -2.9327 -2.1166 -1.5944
 6354TIP3   OH240476   0.484   4.487  13.947  0.6372 -0.1494 -0.1421
 6354TIP3    H140477   0.431   4.566  13.956  0.5865 -0.0278 -1.3110
 6354TIP3    H240478   0.423   4.421  13.913  0.1953 -1.2847  2.6014
 6355TIP3   OH240479   0.441   3.605   5.987 -0.5023  0.3650  0.6339
 6355TIP3    H140480   0.521   3.552   5.991 -0.3951  0.5760  1.9399
 6355TIP3    H240481   0.430   3.637   6.077 -1.7858  0.7399  0.3597
 6356TIP3   OH240482   0.691   4.515   2.159  0.0722  0.2546  0.5558
 6356TIP3    H140483   0.666   4.478   2.075 -0.9241  0.1460  0.8804
 6356TIP3    H240484   0.772   4.563   2.142  0.1154 -0.1372 -0.3611
 6357TIP3   OH240485   0.298   3.042   5.875 -0.5487  0.2141 -0.3387
 6357TIP3    H140486   0.356   2.975   5.839 -0.2011  0.9458 -1.1598
 6357TIP3    H240487   0.210   3.006   5.864 -0.2727 -0.9288  0.9736
 6358TIP3   OH240488   3.018   1.480   3.907  0.4152  0.1767 -0.1432
 6358TIP3    H140489   2.941   1.451   3.956  1.2921  0.2183  1.3151
 6358TIP3    H240490   3.022   1.422   3.832 -1.0393  0.1803 -0.2371
 6359TIP3   OH240491   4.090   0.967  13.685  0.0734 -0.2508  0.0353
 6359TIP3    H140492   4.038   1.026  13.739  0.2881  0.9697 -1.0561
 6359TIP3    H240493   4.028   0.928  13.624 -0.2869 -2.1226  1.5030
 6360TIP3   OH240494   5.959   5.750   2.367 -0.6078  0.0733  0.1516
 6360TIP3    H140495   5.996   5.716   2.285 -0.2739  1.5056 -0.3066
 6360TIP3    H240496   5.987   5.687   2.433  1.0356  0.0983 -0.4825
 6361TIP3   OH240497   1.471   6.221  16.054  0.2031  0.5815 -0.2458
 6361TIP3    H140498   1.542   6.179  16.005  1.0496 -0.1058  1.5043
 6361TIP3    H240499   1.410   6.252  15.986  1.1901 -0.5571 -1.7057
 6362TIP3   OH240500   5.433   6.652   3.362 -0.7847  0.2740  0.0727
 6362TIP3    H140501   5.518   6.668   3.322 -0.0695  0.1896  1.4934
 6362TIP3    H240502   5.370   6.684   3.298  0.2375 -1.0782 -1.6839
 6363TIP3   OH240503   3.454   6.500  14.120  0.2612  0.5077 -0.5309
 6363TIP3    H140504   3.532   6.539  14.081  0.8206  0.8470  0.8862
 6363TIP3    H240505   3.484   6.464  14.203 -1.1367  0.8692  0.1517
 6364TIP3   OH240506   1.514   6.333   5.320  0.3225  0.0877  0.2388
 6364TIP3    H140507   1.533   6.354   5.411  2.6158  2.3054 -0.6294
 6364TIP3    H240508   1.600   6.326   5.278 -0.6641 -0.3915 -1.8550
 6365TIP3   OH240509   5.488   4.960  11.670  0.1704  0.1186 -0.6460
 6365TIP3    H140510   5.483   4.882  11.614  0.4515 -0.5156  0.1837
 6365TIP3    H240511   5.418   5.017  11.639 -0.4166 -0.7183 -0.8886
 6366TIP3   OH240512   1.881   1.417  13.546 -0.4108  0.1273 -0.1509
 6366TIP3    H140513   1.851   1.416  13.637 -0.3304  0.8194 -0.1106
 6366TIP3    H240514   1.931   1.498  13.538  4.3302 -2.3188  0.7037
 6367TIP3   OH240515   1.828   0.215  13.925 -0.2919  0.5110  0.1338
 6367TIP3    H140516   1.792   0.184  13.842 -1.5868  1.7988  0.1717
 6367TIP3    H240517   1.751   0.242  13.976  0.5754  1.1008  1.1766
 6368TIP3   OH240518   4.205   3.800   5.997  0.2487 -0.4740  0.0386
 6368TIP3    H140519   4.144   3.784   6.069 -1.2065 -0.0190 -1.0316
 6368TIP3    H240520   4.180   3.886   5.964 -0.2684 -1.3681 -2.0607
 6369TIP3   OH240521   6.329   4.633   0.403  0.3397 -0.2574 -0.1090
 6369TIP3    H140522   6.355   4.578   0.329 -0.6789 -0.0516 -0.6462
 6369TIP3    H240523   6.335   4.722   0.370  0.9973 -0.0890  0.4373
 6370TIP3   OH240524   1.429   6.005   1.160 -0.7000 -0.6257  0.0060
 6370TIP3    H140525   1.403   6.083   1.208  0.0576 -1.0486  1.1482
 6370TIP3    H240526   1.521   6.019   1.138 -0.8442 -0.7500 -0.7041
 6371TIP3   OH240527   0.985   2.180  15.775  0.0299 -0.1391  0.1833
 6371TIP3    H140528   1.009   2.201  15.866 -1.3336  0.5474  0.3999
 6371TIP3    H240529   0.894   2.151  15.781 -0.3270  0.6819 -1.0744
 6372TIP3   OH240530   3.506   2.314  14.768 -0.4080  0.4758 -0.2277
 6372TIP3    H140531   3.425   2.262  14.764  0.6710 -1.3157 -0.2236
 6372TIP3    H240532   3.482   2.399  14.733 -2.5199  0.3115  0.6690
 6373TIP3   OH240533   6.122   1.888   2.186  0.0484  0.0948 -0.0369
 6373TIP3    H140534   6.109   1.969   2.236 -0.6561  0.4773 -0.8101
 6373TIP3    H240535   6.128   1.917   2.095 -1.0933 -0.7914 -0.4128
 6374TIP3   OH240536   2.040   0.237   2.555  0.4078  0.2775 -0.1878
 6374TIP3    H140537   2.108   0.300   2.580  0.6501 -0.0317 -0.0599
 6374TIP3    H240538   1.999   0.275   2.478  2.8971 -1.0583 -2.3238
 6375TIP3   OH240539   1.999   0.953   2.559 -0.2913 -0.6906  0.4675
 6375TIP3    H140540   1.931   0.898   2.520 -1.4006 -0.0632  1.4381
 6375TIP3    H240541   2.059   0.892   2.601  1.3972 -1.4483 -2.7892
 6376TIP3   OH240542   3.841   2.954  16.324 -0.0498 -0.3094  0.3729
 6376TIP3    H140543   3.898   3.009  16.378 -0.9143  0.2324  0.7509
 6376TIP3    H240544   3.755   2.963  16.363 -0.4759 -0.8163 -0.4214
 6377TIP3   OH240545   1.365   4.764   3.983 -0.5373 -0.3483 -0.3834
 6377TIP3    H140546   1.455   4.736   3.966 -0.6084 -1.3016  0.6781
 6377TIP3    H240547   1.311   4.699   3.937 -0.7050  0.4853 -1.4071
 6378TIP3   OH240548   0.214   2.407   3.878 -0.1048  1.0927 -0.1993
 6378TIP3    H140549   0.260   2.460   3.943  0.8860 -0.8059  0.7270
 6378TIP3    H240550   0.134   2.380   3.922  1.5599 -2.0215  1.2202
 6379TIP3   OH240551   2.344   1.659  14.672 -0.0012  0.6409  0.3297
 6379TIP3    H140552   2.254   1.632  14.688 -0.0145  0.1952 -0.4820
 6379TIP3    H240553   2.397   1.584  14.700  0.1349  0.9463  0.9169
 6380TIP3   OH240554   4.092   3.650   6.624  0.1132 -0.3543  0.4849
 6380TIP3    H140555   4.037   3.700   6.564 -0.2975 -0.5283  0.7097
 6380TIP3    H240556   4.081   3.694   6.709 -0.7911 -1.2085  0.8354
 6381TIP3   OH240557   4.591   1.339   3.360  0.8336  0.4111  0.0272
 6381TIP3    H140558   4.502   1.302   3.355  0.9516  0.2478 -1.2860
 6381TIP3    H240559   4.624   1.312   3.446 -1.0320  2.0127  1.3423
 6382TIP3   OH240560   3.966   4.806   3.428 -0.0748 -0.3902 -0.0614
 6382TIP3    H140561   3.923   4.787   3.345 -0.4803 -2.4491  0.5670
 6382TIP3    H240562   3.966   4.901   3.434  0.4843 -0.1724 -2.6687
 6383TIP3   OH240563   0.421   0.458   0.113  0.3138 -0.6040  0.2066
 6383TIP3    H140564   0.371   0.395   0.060 -0.0965  0.0759 -0.2323
 6383TIP3    H240565   0.499   0.476   0.060  0.2804 -0.5059  0.1920
 6384TIP3   OH240566   1.208   2.747   1.945  0.1057 -0.0720 -0.3303
 6384TIP3    H140567   1.193   2.658   1.975  3.9833 -0.9241 -0.4226
 6384TIP3    H240568   1.244   2.737   1.857 -0.1855  1.6287 -0.6772
 6385TIP3   OH240569   1.329   2.928  16.649  0.4647  0.0070 -0.6224
 6385TIP3    H140570   1.298   3.001  16.703 -2.7759 -1.5212 -0.1969
 6385TIP3    H240571   1.382   2.970  16.581 -2.0183  2.9016 -0.9930
 6386TIP3   OH240572   2.622   5.547  12.965  0.2478 -0.3813 -0.1079
 6386TIP3    H140573   2.664   5.632  12.950  0.1388 -0.3578 -0.2864
 6386TIP3    H240574   2.563   5.562  13.039 -0.0270 -0.2080 -0.3564
 6387TIP3   OH240575   3.362   1.315  14.179  0.1108 -0.4646  0.1747
 6387TIP3    H140576   3.392   1.358  14.099 -0.1943 -1.7814 -0.6747
 6387TIP3    H240577   3.267   1.306  14.167  0.3597 -2.7778 -0.4043
 6388TIP3   OH240578   0.696   1.273  14.870  0.0646 -0.5113  0.0745
 6388TIP3    H140579   0.764   1.262  14.937  1.0121  1.8465 -0.3958
 6388TIP3    H240580   0.666   1.364  14.880 -1.0737 -0.6534 -1.5209
 6389TIP3   OH240581   0.529   2.192  13.121 -0.1696 -0.6808 -0.4102
 6389TIP3    H140582   0.588   2.267  13.131 -1.7842  0.6203 -0.2564
 6389TIP3    H240583   0.541   2.141  13.201 -0.3430  0.3670  0.2919
 6390TIP3   OH240584   5.770   6.219  12.604  0.0310  0.0809  0.3254
 6390TIP3    H140585   5.782   6.312  12.621 -0.4347  0.9467 -3.2523
 6390TIP3    H240586   5.685   6.198  12.642 -0.5080  1.4971 -0.0528
 6391TIP3   OH240587   3.807   0.331  12.589  0.4520  0.5199  0.4823
 6391TIP3    H140588   3.790   0.387  12.513 -0.9955 -2.6906 -1.7651
 6391TIP3    H240589   3.727   0.336  12.641 -0.3541 -0.6983 -0.6058
 6392TIP3   OH240590   4.031   6.644   0.900 -0.6736  0.5748 -0.2454
 6392TIP3    H140591   4.019   6.549   0.906  0.3370  0.4723  0.5336
 6392TIP3    H240592   3.956   6.675   0.850 -2.0279 -0.4126  1.1009
 6393TIP3   OH240593   5.897   1.729  16.855  0.7502 -0.0499  0.1996
 6393TIP3    H140594   5.926   1.819  16.836  1.9539 -0.6000 -0.7254
 6393TIP3    H240595   5.872   1.694  16.769  0.4267 -0.6469  0.5373
 6394TIP3   OH240596   0.143   0.952   3.340 -0.0340 -0.0712  0.7509
 6394TIP3    H140597   0.081   0.928   3.271  1.9413  0.6696 -1.4400
 6394TIP3    H240598   0.141   1.048   3.342 -0.3399 -0.0876  2.0521
 6395TIP3   OH240599   0.691   2.278  14.702 -0.0420 -0.0204 -0.4732
 6395TIP3    H140600   0.782   2.302  14.688 -0.5831  1.8101 -1.0782
 6395TIP3    H240601   0.643   2.361  14.703 -1.8496 -0.9837 -1.1930
 6396TIP3   OH240602   4.720   2.415  11.888  0.0381 -0.1722 -0.0783
 6396TIP3    H140603   4.711   2.430  11.982 -0.4258 -0.4558 -0.0755
 6396TIP3    H240604   4.735   2.321  11.880 -1.0322 -0.3336 -0.3541
 6397TIP3   OH240605   5.529   6.408   1.539  0.1339 -0.2848  0.1456
 6397TIP3    H140606   5.491   6.494   1.520  1.8412  0.5144  0.1181
 6397TIP3    H240607   5.544   6.410   1.634  0.2361 -0.5204  0.1340
 6398TIP3   OH240608   1.630   3.186   1.870  0.3053  0.4027  0.0591
 6398TIP3    H140609   1.684   3.155   1.942 -1.1262 -0.0699  0.9652
 6398TIP3    H240610   1.570   3.249   1.910  0.3886  1.1797 -0.9836
 6399TIP3   OH240611   2.374   4.439   3.282  0.0167 -0.0949 -0.3729
 6399TIP3    H140612   2.455   4.428   3.332  1.0788  0.4423 -1.8814
 6399TIP3    H240613   2.367   4.534   3.268 -1.8964  0.0713  1.2832
 6400TIP3   OH240614   3.898   2.632   5.499 -0.3296 -0.3879  0.0306
 6400TIP3    H140615   3.917   2.593   5.414 -0.3938  2.2700 -1.2766
 6400TIP3    H240616   3.984   2.652   5.537 -0.2922 -1.7841  0.7623
 6401TIP3   OH240617   4.344   5.795   5.136 -0.0960 -0.1138 -0.2563
 6401TIP3    H140618   4.415   5.738   5.164  0.5254 -0.2011 -1.9129
 6401TIP3    H240619   4.373   5.831   5.052 -1.7198  0.3496 -0.6652
 6402TIP3   OH240620   0.340   1.573   0.631  0.6155  0.0081 -0.0030
 6402TIP3    H140621   0.384   1.499   0.588 -0.4423 -0.4190 -0.3859
 6402TIP3    H240622   0.248   1.547   0.635  0.2445  1.2532 -0.0166
 6403TIP3   OH240623   5.028   1.322  15.983  0.2363  0.2970 -0.3140
 6403TIP3    H140624   5.009   1.249  15.924  1.4493  0.1490 -0.5338
 6403TIP3    H240625   4.951   1.379  15.976 -1.2677 -1.4987  0.7446
 6404TIP3   OH240626   4.234   0.876   1.397  0.0753 -0.0134 -0.1946
 6404TIP3    H140627   4.229   0.902   1.305 -0.3313  0.5064 -0.0346
 6404TIP3    H240628   4.176   0.800   1.403 -2.1739  1.6059  0.1624
 6405TIP3   OH240629   3.425   5.228  13.339 -0.1757 -0.0673 -0.1053
 6405TIP3    H140630   3.496   5.198  13.396 -1.0039 -1.2874  0.3241
 6405TIP3    H240631   3.427   5.323  13.347  1.5838 -0.0462 -0.3268
 6406TIP3   OH240632   2.025   5.276   0.891  0.1952  0.0181  0.2119
 6406TIP3    H140633   2.007   5.219   0.967 -0.9335  0.3073  0.1798
 6406TIP3    H240634   1.977   5.235   0.819 -1.0803  1.2768  0.3109
 6407TIP3   OH240635   5.579   4.703  14.724 -0.2281 -0.1016 -0.3463
 6407TIP3    H140636   5.508   4.647  14.693  0.5323 -0.2298 -1.9420
 6407TIP3    H240637   5.539   4.789  14.736 -0.5679 -0.0512 -1.7171
 6408TIP3   OH240638   0.919   2.007   5.544  0.9136  0.2371 -0.1646
 6408TIP3    H140639   0.922   2.085   5.598 -1.4516  0.8666 -0.8436
 6408TIP3    H240640   0.874   1.942   5.597 -2.1587  1.1011 -1.4949
 6409TIP3   OH240641   3.987   0.892  12.150  0.8108  0.1359 -0.1645
 6409TIP3    H140642   3.936   0.870  12.228 -0.5470 -1.5522 -1.4550
 6409TIP3    H240643   4.067   0.840  12.159  0.1492 -0.9595 -0.4200
 6410TIP3   OH240644   0.266   6.308  12.660  0.4815 -0.2255  0.0509
 6410TIP3    H140645   0.268   6.219  12.697  1.0862  0.7770  2.6483
 6410TIP3    H240646   0.356   6.340  12.669  0.8200 -0.0622 -2.9589
 6411TIP3   OH240647   0.122   1.935   3.258 -0.6852 -0.4760  0.1657
 6411TIP3    H140648   0.113   1.882   3.337 -2.1395  1.1352  1.1531
 6411TIP3    H240649   0.114   2.026   3.289  0.4031  0.2844 -1.6247
 6412TIP3   OH240650   4.000   2.657  14.449  0.4273  0.2420  0.6259
 6412TIP3    H140651   4.039   2.731  14.402  3.4865 -0.0741  2.3413
 6412TIP3    H240652   3.950   2.697  14.520 -1.0501  0.6551 -0.6157
 6413TIP3   OH240653   1.172   6.088  13.881 -0.4814  0.2521  0.1635
 6413TIP3    H140654   1.249   6.058  13.929 -0.3787 -0.0218 -0.1754
 6413TIP3    H240655   1.188   6.182  13.867  0.1091  0.0581 -0.5085
 6414TIP3   OH240656   3.305   4.617  14.238 -0.2311  0.2865  0.3422
 6414TIP3    H140657   3.307   4.537  14.186 -0.5680  1.5439 -1.7100
 6414TIP3    H240658   3.274   4.589  14.324 -0.3735 -1.7589 -0.3262
 6415TIP3   OH240659   6.210   6.159   3.781  0.1239 -0.1447  0.2929
 6415TIP3    H140660   6.231   6.107   3.858 -0.0124 -0.9158 -0.1810
 6415TIP3    H240661   6.114   6.160   3.779  0.1119 -1.1663 -0.5359
 6416TIP3   OH240662   1.333   2.425   6.191  0.6359  0.3792  0.0393
 6416TIP3    H140663   1.262   2.366   6.215  1.4283 -0.0351  1.4788
 6416TIP3    H240664   1.315   2.506   6.238  0.9828  0.3525  0.2231
 6417TIP3   OH240665   4.573   2.199   4.444  0.3230  0.4330  0.1167
 6417TIP3    H140666   4.575   2.263   4.515  0.7039 -0.8176  1.2753
 6417TIP3    H240667   4.659   2.159   4.445 -0.0494 -0.4058 -0.2967
 6418TIP3   OH240668   5.742   3.965   0.205 -0.1188 -0.3255 -0.2949
 6418TIP3    H140669   5.677   3.965   0.275  1.7156 -0.7868  1.5056
 6418TIP3    H240670   5.691   3.976   0.124 -2.3811 -0.6442  1.0200
 6419TIP3   OH240671   2.489   2.355   0.320  0.1457 -0.4897  0.0875
 6419TIP3    H140672   2.429   2.308   0.264  0.5944  1.2386 -1.9866
 6419TIP3    H240673   2.435   2.389   0.391 -0.8778 -0.9031 -0.4839
 6420TIP3   OH240674   4.618   6.548   3.557  0.2840 -0.2547  0.2216
 6420TIP3    H140675   4.529   6.573   3.533  1.3613  2.1129 -1.7881
 6420TIP3    H240676   4.631   6.464   3.514 -0.2197  0.5557 -1.6415
 6421TIP3   OH240677   4.205   0.291  16.059  0.0100 -0.4947 -0.1455
 6421TIP3    H140678   4.244   0.212  16.097  0.2621 -0.2257  0.1697
 6421TIP3    H240679   4.231   0.361  16.120 -0.8453 -0.2864 -0.0113
 6422TIP3   OH240680   2.916   2.277  12.840 -0.2393  0.4563 -0.6922
 6422TIP3    H140681   2.886   2.212  12.903 -1.9343 -0.8335 -2.6933
 6422TIP3    H240682   2.994   2.238  12.800  0.9173  1.3338  0.6132
 6423TIP3   OH240683   0.056   4.706  15.802  0.2040  0.1761 -0.9926
 6423TIP3    H140684   0.109   4.701  15.723  0.1595  1.4159 -1.1116
 6423TIP3    H240685   0.044   4.799  15.818  1.5278  0.0269  1.3366
 6424TIP3   OH240686   0.095   1.760  10.488  0.1040  0.0413 -0.1401
 6424TIP3    H140687   0.001   1.745  10.479  0.0810  0.1173 -0.0283
 6424TIP3    H240688   0.122   1.796  10.404 -0.0442  0.4119 -0.0291
 6425TIP3   OH240689   1.355   3.268  10.984 -0.2258 -0.1240  0.0299
 6425TIP3    H140690   1.404   3.311  11.055 -1.3144  0.1466  0.6405
 6425TIP3    H240691   1.337   3.339  10.922 -0.7991  0.0159  0.3499
 6426TIP3   OH240692   5.018   6.218   4.357 -0.3428  0.2209 -0.1590
 6426TIP3    H140693   5.016   6.241   4.265  0.8259  1.5928  0.1189
 6426TIP3    H240694   4.986   6.127   4.360  1.0868 -0.4244 -2.0978
 6427TIP3   OH240695   6.488   5.726  12.089 -0.8124  0.4492  0.0923
 6427TIP3    H140696   6.394   5.743  12.095 -1.1186 -1.2327  0.5745
 6427TIP3    H240697   6.505   5.715  11.995 -1.5119 -1.2390  0.1352
 6428TIP3   OH240698   5.364   0.222   4.400  0.2269 -0.2124  0.0302
 6428TIP3    H140699   5.363   0.316   4.385 -1.1376 -0.2032  0.0234
 6428TIP3    H240700   5.352   0.213   4.494 -0.0975 -0.3735 -0.0240
 6429TIP3   OH240701   6.181   5.061   3.028 -0.1347 -0.0607 -0.2279
 6429TIP3    H140702   6.172   4.980   3.078 -0.7726 -1.0187 -1.8368
 6429TIP3    H240703   6.092   5.092   3.014  0.0466  0.3201 -0.5830
 6430TIP3   OH240704   2.208   5.858   1.026 -0.6054 -0.8406  0.1067
 6430TIP3    H140705   2.208   5.803   1.104  0.8501  0.0702  0.7864
 6430TIP3    H240706   2.194   5.796   0.954  1.5948 -2.2523  0.7948
 6431TIP3   OH240707   6.566   2.379   3.202  0.2372 -0.7802 -0.0385
 6431TIP3    H140708   6.619   2.379   3.282 -0.5048  3.5096  0.7015
 6431TIP3    H240709   6.625   2.414   3.134 -0.7085  1.4498  0.1823
 6432TIP3   OH240710   1.634   0.478   3.158 -0.3471  0.5125  0.2291
 6432TIP3    H140711   1.613   0.497   3.249 -1.6612  0.9114 -0.1398
 6432TIP3    H240712   1.575   0.533   3.107  0.4819  0.4248 -0.8765
 6433TIP3   OH240713   5.319   4.283   1.135 -0.1598  0.3588 -0.2145
 6433TIP3    H140714   5.374   4.287   1.057 -0.0150 -2.2374 -0.3323
 6433TIP3    H240715   5.244   4.230   1.108 -0.0722 -0.6547  1.4039
 6434TIP3   OH240716   0.853   1.105  12.970  0.6584  0.0390 -0.4176
 6434TIP3    H140717   0.882   1.189  12.933  0.4378  0.6511  0.7478
 6434TIP3    H240718   0.932   1.065  13.005  0.5253  0.5266  0.4733
 6435TIP3   OH240719   6.285   4.731   3.432 -0.2602 -0.0541  0.0699
 6435TIP3    H140720   6.303   4.749   3.340 -0.2032 -2.8386 -0.5506
 6435TIP3    H240721   6.372   4.719   3.471 -0.1995  2.4597  0.8888
 6436TIP3   OH240722   2.652   6.586   3.947  0.0767  0.1686  0.1091
 6436TIP3    H140723   2.589   6.599   4.018 -0.3041  0.3784 -0.2672
 6436TIP3    H240724   2.624   6.647   3.879 -0.1333 -0.7160 -0.6093
 6437TIP3   OH240725   2.813   1.256   4.479  0.5519 -0.3903 -0.3268
 6437TIP3    H140726   2.863   1.338   4.479  2.0277 -1.1458  2.8660
 6437TIP3    H240727   2.841   1.212   4.398  1.1536  1.4129 -1.1566
 6438TIP3   OH240728   5.980   0.040  16.482 -0.5070 -0.0693  0.1756
 6438TIP3    H140729   6.040  -0.033  16.475 -0.1901  0.1193  0.8485
 6438TIP3    H240730   5.896   0.005  16.451  0.2883  0.1500 -2.4455
 6439TIP3   OH240731   2.241   5.029   4.142 -0.2364  0.2134 -0.2255
 6439TIP3    H140732   2.254   5.096   4.209 -0.4025 -0.2824  0.3130
 6439TIP3    H240733   2.147   5.010   4.145  0.1122 -1.6522  1.2383
 6440TIP3   OH240734   6.440   5.538   3.910  0.0411  0.4282 -0.0917
 6440TIP3    H140735   6.421   5.602   3.978 -2.5696 -0.4374  0.1290
 6440TIP3    H240736   6.399   5.575   3.831 -0.5026 -0.4044 -0.2141
 6441TIP3   OH240737   3.394   4.118   3.302  0.1974 -0.0818  0.1905
 6441TIP3    H140738   3.403   4.042   3.360 -0.5091 -0.5406 -0.2869
 6441TIP3    H240739   3.330   4.174   3.346 -1.7744 -1.2951 -0.9886
 6442TIP3   OH240740   5.136   5.579  16.599 -0.0498 -0.0395  0.0473
 6442TIP3    H140741   5.054   5.628  16.604  0.6024  0.9907  0.8430
 6442TIP3    H240742   5.138   5.545  16.509  0.1876  2.6802 -1.0555
 6443TIP3   OH240743   5.056   2.825   0.115 -0.0156  0.2719 -0.2099
 6443TIP3    H140744   4.979   2.770   0.096 -2.0949  2.5301  1.0185
 6443TIP3    H240745   5.063   2.884   0.040  0.2650  0.3283 -0.1388
 6444TIP3   OH240746   0.511   1.199   5.975  0.0759 -0.0397 -0.0670
 6444TIP3    H140747   0.569   1.135   6.018 -0.3755 -1.8188 -1.9543
 6444TIP3    H240748   0.427   1.187   6.019  0.4040  0.5283  0.7490
 6445TIP3   OH240749   2.862   1.462   2.240  0.9003 -0.3082  0.7575
 6445TIP3    H140750   2.870   1.367   2.246  2.6071 -0.3575 -1.3457
 6445TIP3    H240751   2.950   1.496   2.252  0.0387  1.2650  3.6953
 6446TIP3   OH240752   3.483   2.303   5.693 -0.0469 -0.3323  0.3218
 6446TIP3    H140753   3.449   2.261   5.772  3.5267 -2.2089  1.0691
 6446TIP3    H240754   3.538   2.374   5.725  1.3200 -1.0168 -0.4116
 6447TIP3   OH240755   1.625   5.021  13.421  0.0057 -0.4030 -0.2968
 6447TIP3    H140756   1.574   5.085  13.471 -2.7098 -1.9043 -1.0066
 6447TIP3    H240757   1.605   4.937  13.462  0.4112 -1.2634 -1.7997
 6448TIP3   OH240758   4.990   0.518  17.156 -0.0303 -0.3292 -0.3536
 6448TIP3    H140759   4.922   0.512  17.223  1.0671  1.4780  0.9955
 6448TIP3    H240760   4.953   0.576  17.090 -0.6275 -1.1146 -0.7277
 6449TIP3   OH240761   2.839   0.729  14.178  0.1547  0.0158 -0.0236
 6449TIP3    H140762   2.812   0.752  14.089  0.1387 -1.3274 -0.3926
 6449TIP3    H240763   2.928   0.694  14.167  0.1532 -0.1467  0.4771
 6450TIP3   OH240764   2.898   4.780   5.613  0.1552 -0.5425 -0.1297
 6450TIP3    H140765   2.983   4.739   5.601  0.0067 -0.5497 -1.1865
 6450TIP3    H240766   2.846   4.751   5.538 -0.3566  0.5607 -0.2128
 6451TIP3   OH240767   1.434   4.964   1.637 -0.5880 -0.6167  0.3020
 6451TIP3    H140768   1.413   5.043   1.687 -1.8858 -2.1462  2.3525
 6451TIP3    H240769   1.526   4.947   1.657 -0.8109 -0.6310  1.3976
 6452TIP3   OH240770   3.825   5.784  16.724 -0.2118  0.3177  0.3626
 6452TIP3    H140771   3.804   5.711  16.782 -1.3792 -0.2182 -0.6867
 6452TIP3    H240772   3.742   5.830  16.712 -0.1277  0.0920 -1.3018
 6453TIP3   OH240773   2.976   1.391   5.636 -0.2043 -0.2076  0.0238
 6453TIP3    H140774   2.975   1.469   5.580  0.1464 -0.3822 -0.2321
 6453TIP3    H240775   3.043   1.335   5.596 -0.0986 -0.4204  0.5013
 6454TIP3   OH240776   0.620   2.994  15.991  0.4051 -0.1441  0.2326
 6454TIP3    H140777   0.573   2.947  15.922  0.3534 -0.7396  0.6640
 6454TIP3    H240778   0.638   3.080  15.954  0.3223 -0.4385 -0.5026
 6455TIP3   OH240779   4.570   1.733   0.047 -0.0319  0.0727  0.2744
 6455TIP3    H140780   4.482   1.708   0.018 -0.8028  1.5465  1.2265
 6455TIP3    H240781   4.618   1.749  -0.035 -0.8343 -0.1170 -0.2514
 6456TIP3   OH240782   6.350   6.431   1.508 -0.7561 -0.0509  0.3826
 6456TIP3    H140783   6.423   6.423   1.447 -0.8446 -0.4389  0.3238
 6456TIP3    H240784   6.392   6.436   1.594 -0.6111  0.9832  0.2623
 6457TIP3   OH240785   6.437   1.393   5.286 -0.1707 -0.2442 -0.0594
 6457TIP3    H140786   6.377   1.466   5.269 -0.1526 -0.2960 -0.3465
 6457TIP3    H240787   6.482   1.418   5.366 -1.0833 -0.5386  0.5585
 6458TIP3   OH240788   4.560   2.233  17.042 -0.5863  0.0290 -0.2346
 6458TIP3    H140789   4.470   2.246  17.071  0.2585  1.9418  1.8234
 6458TIP3    H240790   4.601   2.182  17.112 -0.1265 -1.1214 -1.3101
 6459TIP3   OH240791   1.335   5.229   6.494 -0.0262  0.2291 -0.2016
 6459TIP3    H140792   1.411   5.282   6.517  1.2407 -0.5363 -2.3100
 6459TIP3    H240793   1.371   5.147   6.461 -1.7392 -0.1725 -1.2486
 6460TIP3   OH240794   6.393   4.656  16.080  0.0190  0.5882 -0.0657
 6460TIP3    H140795   6.315   4.601  16.073 -0.0482  0.7554 -0.6411
 6460TIP3    H240796   6.460   4.608  16.033 -0.6757  2.1584 -2.8553
 6461TIP3   OH240797   3.818   2.259   4.245 -0.5762 -0.2140 -0.0592
 6461TIP3    H140798   3.871   2.294   4.174 -2.0603 -0.6477 -1.4333
 6461TIP3    H240799   3.796   2.335   4.299 -0.2899  0.2951 -0.6523
 6462TIP3   OH240800   3.088   3.909   5.500  0.0015  0.2362 -0.0842
 6462TIP3    H140801   3.018   3.863   5.546  0.5928 -0.9432 -0.3215
 6462TIP3    H240802   3.114   3.980   5.559  0.3767 -0.9108  1.1666
 6463TIP3   OH240803   4.300   3.705   3.016  0.3713  0.1361  0.9650
 6463TIP3    H140804   4.327   3.633   2.959 -0.4744  1.4887 -1.2666
 6463TIP3    H240805   4.382   3.744   3.045  0.8163 -0.8796  1.1445
 6464TIP3   OH240806   1.550   0.620   2.144 -0.3996 -0.6757  0.0241
 6464TIP3    H140807   1.553   0.701   2.195 -0.8948 -0.3311 -0.4930
 6464TIP3    H240808   1.457   0.601   2.134 -0.3403 -0.3302 -1.4005
 6465TIP3   OH240809   0.075   3.746   3.408 -0.1218  0.2945  0.5801
 6465TIP3    H140810   0.094   3.660   3.371 -1.4406  0.7907 -1.3594
 6465TIP3    H240811  -0.015   3.764   3.382  0.3313  2.5400  0.4228
 6466TIP3   OH240812   1.284   3.732  15.242  0.1025 -0.3349 -0.1167
 6466TIP3    H140813   1.356   3.674  15.218 -0.0661 -0.5775 -0.0360
 6466TIP3    H240814   1.214   3.673  15.269 -0.2666 -0.1154 -0.5772
 6467TIP3   OH240815   1.088   0.938  13.007  0.1681  0.0387 -0.5526
 6467TIP3    H140816   1.061   0.871  12.944 -0.1441 -0.1184 -0.2528
 6467TIP3    H240817   1.086   0.893  13.092 -0.9238  0.6711 -0.2279
 6468TIP3   OH240818   1.908   0.049   3.025  0.3989  0.2775 -0.1496
 6468TIP3    H140819   1.955   0.128   3.054  1.9524 -0.7783  0.3299
 6468TIP3    H240820   1.888   0.066   2.933 -0.6704  1.8498  0.3282
 6469TIP3   OH240821   6.195   3.051  11.342  0.1905  0.5813  0.3839
 6469TIP3    H140822   6.116   3.017  11.301  1.6189 -0.1254 -1.9761
 6469TIP3    H240823   6.204   3.000  11.423 -1.4019  0.2303  0.3651
 6470TIP3   OH240824   4.653   4.089   3.007 -0.1987  0.2931 -0.0006
 6470TIP3    H140825   4.656   4.096   3.102 -0.8123  1.1019 -0.0425
 6470TIP3    H240826   4.674   4.176   2.975  2.3244 -0.4604 -0.6683
 6471TIP3   OH240827   3.587   0.419   2.671  0.4667 -0.0070 -0.0372
 6471TIP3    H140828   3.515   0.398   2.612  0.0198 -0.8872  0.7895
 6471TIP3    H240829   3.547   0.474   2.739  0.4620 -0.8462  0.6564
 6472TIP3   OH240830   2.449   3.748  11.447 -0.2830 -0.1977  0.9802
 6472TIP3    H140831   2.478   3.812  11.511 -0.2700 -0.1461  0.9229
 6472TIP3    H240832   2.468   3.663  11.487  1.1327 -0.1667  0.4289
 6473TIP3   OH240833   1.274   3.706  14.977 -0.1025 -0.3269 -0.6451
 6473TIP3    H140834   1.268   3.736  15.068 -1.1129 -2.6686  0.1520
 6473TIP3    H240835   1.185   3.674  14.957  0.1660 -0.0817 -2.3880
 6474TIP3   OH240836   4.635   5.456   3.014 -0.3784  0.2863 -0.2330
 6474TIP3    H140837   4.682   5.525   3.062  0.7061 -1.1300  0.8217
 6474TIP3    H240838   4.695   5.382   3.015 -2.6402 -1.6664  1.2414
 6475TIP3   OH240839   1.594   0.017  11.608 -0.6611 -0.1104  0.3963
 6475TIP3    H140840   1.651   0.052  11.676  0.3469 -1.9747  0.5609
 6475TIP3    H240841   1.507   0.013  11.649 -0.6240  1.2786  0.6525
 6476TIP3   OH240842   6.319   5.583  16.045 -0.1155 -0.1081  0.1433
 6476TIP3    H140843   6.353   5.672  16.058  0.9325 -0.6543  1.3348
 6476TIP3    H240844   6.397   5.529  16.037 -0.7442 -0.8495 -1.3302
 6477TIP3   OH240845   3.382   6.270   3.487 -0.1362  0.0611  0.7244
 6477TIP3    H140846   3.347   6.216   3.558 -2.9914 -1.4143 -1.5840
 6477TIP3    H240847   3.410   6.207   3.420 -1.7156  1.3286 -1.2415
 6478TIP3   OH240848   0.336   0.552  12.981 -0.1721 -0.4393  0.0681
 6478TIP3    H140849   0.272   0.607  13.026 -1.3687 -1.8146  0.1393
 6478TIP3    H240850   0.420   0.589  13.005 -0.8782  0.3983  1.4056
 6479TIP3   OH240851   4.337   0.500   0.466  0.5501  0.1262 -0.0712
 6479TIP3    H140852   4.364   0.473   0.378  0.3127 -0.8638  0.1457
 6479TIP3    H240853   4.373   0.433   0.524 -0.6264 -0.1117  0.4227
 6480TIP3   OH240854   6.085   6.151  15.665 -0.1256  0.7836  0.3114
 6480TIP3    H140855   6.149   6.175  15.599 -0.1347 -0.0130  0.0050
 6480TIP3    H240856   6.053   6.235  15.699  1.0966  1.1890  0.5043
 6481TIP3   OH240857   5.746   2.611   0.537  0.0446 -0.8738  0.1230
 6481TIP3    H140858   5.754   2.685   0.597  1.3935 -1.0167  0.1634
 6481TIP3    H240859   5.701   2.543   0.588  2.2255 -1.4298  1.4636
 6482TIP3   OH240860   2.880   5.472  16.579 -0.3620 -0.3748 -0.0145
 6482TIP3    H140861   2.867   5.556  16.535  1.9737  0.2209  0.2783
 6482TIP3    H240862   2.934   5.421  16.518  1.7040 -0.0706  1.4629
 6483TIP3   OH240863   3.847   4.518  16.193 -0.0571  0.3026  0.3001
 6483TIP3    H140864   3.888   4.535  16.278 -0.0115  0.0132  0.3386
 6483TIP3    H240865   3.871   4.594  16.139  0.5043  0.1581  0.3329
 6484TIP3   OH240866   6.761   1.576   6.118  0.4314  0.2437 -0.2525
 6484TIP3    H140867   6.796   1.624   6.193  0.5399  1.4066 -1.0214
 6484TIP3    H240868   6.676   1.543   6.148  0.2308  1.1587  0.2002
 6485TIP3   OH240869   3.522   6.562  11.115  0.0672 -0.4971  0.2770
 6485TIP3    H140870   3.480   6.514  11.044  0.0664  0.5133 -0.4267
 6485TIP3    H240871   3.455   6.624  11.146  0.5597  0.1404  0.1003
 6486TIP3   OH240872   3.190   3.182   2.970  1.0198  0.2661 -0.7442
 6486TIP3    H140873   3.159   3.184   2.879 -0.7337  2.0210 -0.1765
 6486TIP3    H240874   3.230   3.268   2.983  0.0990  0.5459  0.4768
 6487TIP3   OH240875   5.314   5.005   2.699  0.1764  0.1241 -0.0197
 6487TIP3    H140876   5.402   4.995   2.663  0.7525  1.8015  0.8415
 6487TIP3    H240877   5.328   5.019   2.793 -0.9212  1.6129 -0.0471
 6488TIP3   OH240878   0.624   1.304   5.447  0.1509  0.5511  0.7967
 6488TIP3    H140879   0.534   1.326   5.424  0.1723  0.5162  0.6813
 6488TIP3    H240880   0.619   1.275   5.538 -0.1952 -0.9617  0.3300
 6489TIP3   OH240881   1.219   3.301   6.299  0.1417  0.3333  0.3306
 6489TIP3    H140882   1.264   3.219   6.319 -0.1143  0.7554  3.0225
 6489TIP3    H240883   1.154   3.310   6.369 -2.2016  1.1662 -1.7964
 6490TIP3   OH240884   2.279   2.237  12.690 -0.2560  0.4707  0.5321
 6490TIP3    H140885   2.208   2.178  12.714  0.1264  0.0794  0.7235
 6490TIP3    H240886   2.269   2.312  12.749 -2.6510  2.1413 -1.7486
 6491TIP3   OH240887   0.389   1.037  13.245 -0.0325  0.1482 -0.1823
 6491TIP3    H140888   0.408   1.082  13.327 -2.6644  0.5145  0.2950
 6491TIP3    H240889   0.333   1.097  13.197  1.6340  0.0462 -2.4389
 6492TIP3   OH240890   4.159   1.572   2.828 -0.1141  0.3809 -0.1473
 6492TIP3    H140891   4.173   1.485   2.864  2.4733  1.4987  1.8941
 6492TIP3    H240892   4.115   1.620   2.898  1.8254  1.6421  0.2923
 6493TIP3   OH240893   6.193   2.261  12.609 -0.1498 -0.0416  0.3508
 6493TIP3    H140894   6.161   2.225  12.526 -1.6003 -1.9279  1.6456
 6493TIP3    H240895   6.130   2.330  12.631  0.4278  0.6958 -0.2367
 6494TIP3   OH240896   1.366   2.659   0.428  0.3322  0.0951 -0.7005
 6494TIP3    H140897   1.282   2.642   0.386  0.5373 -0.2620 -0.9596
 6494TIP3    H240898   1.428   2.672   0.356  0.2701  1.5573 -0.5293
 6495TIP3   OH240899   1.463   5.309   0.578  0.1598  0.6799  0.4505
 6495TIP3    H140900   1.459   5.242   0.510 -0.7410  0.2010  0.9521
 6495TIP3    H240901   1.400   5.281   0.644  0.5165  1.4855  1.1727
 6496TIP3   OH240902   4.082   1.176  11.920 -0.2920  0.2213 -0.5404
 6496TIP3    H140903   4.123   1.225  11.991 -1.3331  3.1984 -1.8323
 6496TIP3    H240904   4.149   1.114  11.892  0.4375 -0.5061  2.4009
 6497TIP3   OH240905   0.376   3.726   3.956 -0.5012  0.8854 -0.1605
 6497TIP3    H140906   0.401   3.724   3.863 -0.3176 -1.7501 -0.1323
 6497TIP3    H240907   0.282   3.744   3.956 -0.4257  1.3101 -0.8286
 6498TIP3   OH240908   6.390   5.965   0.177 -0.5009  0.0871  0.2253
 6498TIP3    H140909   6.314   6.018   0.152 -0.0157 -0.4079 -2.7157
 6498TIP3    H240910   6.403   5.905   0.103  3.0142  0.4733  0.3324
 6499TIP3   OH240911   4.816   4.247   1.098  0.2501  0.8506  0.4285
 6499TIP3    H140912   4.729   4.267   1.065  0.3409  0.0967 -0.3118
 6499TIP3    H240913   4.802   4.214   1.186 -0.2729  0.1914  0.1013
 6500TIP3   OH240914   1.738   5.900  16.453 -0.1672 -0.0132  0.4155
 6500TIP3    H140915   1.805   5.948  16.502  0.1697  1.6263 -1.5297
 6500TIP3    H240916   1.669   5.964  16.436 -0.3656 -0.5834 -1.0498
 6501TIP3   OH240917   3.084   2.574  17.231  0.0633 -0.4290 -0.4024
 6501TIP3    H140918   3.000   2.555  17.189 -1.0316 -0.4495  1.6311
 6501TIP3    H240919   3.135   2.494  17.220 -0.6998 -0.9037 -0.5477
 6502TIP3   OH240920   6.046   5.792   5.920 -0.1764  0.2506 -0.1922
 6502TIP3    H140921   5.978   5.808   5.855  0.5645  3.4915 -0.3334
 6502TIP3    H240922   6.000   5.749   5.993 -2.0941  1.1354 -0.8215
 6503TIP3   OH240923   4.834   0.062   4.558  0.4127 -0.1305  0.1782
 6503TIP3    H140924   4.865  -0.004   4.620 -0.7642 -1.1415 -0.2775
 6503TIP3    H240925   4.913   0.093   4.514  0.8739 -2.2740 -0.6053
 6504TIP3   OH240926   0.893   3.000   3.307 -0.4128 -0.3771 -0.2604
 6504TIP3    H140927   0.847   2.927   3.267 -0.1881 -0.1945 -0.8629
 6504TIP3    H240928   0.976   2.963   3.337 -0.8319 -0.6517  0.6105
 6505TIP3   OH240929   0.526   1.238   4.443  0.1587 -0.2580 -0.4129
 6505TIP3    H140930   0.567   1.311   4.491 -1.1444 -0.2071  0.6958
 6505TIP3    H240931   0.569   1.160   4.478 -0.1564 -0.1619  0.2109
 6506TIP3   OH240932   5.633   1.934   2.620  0.0645 -0.0601 -0.1729
 6506TIP3    H140933   5.594   2.018   2.596  0.8880  0.5702  0.6091
 6506TIP3    H240934   5.610   1.922   2.712  0.4045 -0.4305 -0.1329
 6507TIP3   OH240935   0.573   4.381  14.535  0.3829 -0.2463  0.5182
 6507TIP3    H140936   0.622   4.301  14.556 -0.6208 -1.0739 -0.1803
 6507TIP3    H240937   0.562   4.378  14.440 -0.2167  0.4121  0.5618
 6508TIP3   OH240938   4.369   5.817  14.119 -0.0789  0.4709  0.5224
 6508TIP3    H140939   4.426   5.776  14.054  0.0672 -1.5331  1.8514
 6508TIP3    H240940   4.419   5.815  14.200 -1.3032  0.3976  1.3059
 6509TIP3   OH240941   4.759   4.816   1.739 -0.1989  0.7223  0.2741
 6509TIP3    H140942   4.778   4.732   1.782  0.7320  0.4071 -0.6950
 6509TIP3    H240943   4.663   4.823   1.742 -0.6551 -1.9174 -2.2880
 6510TIP3   OH240944   6.221   1.255  11.378 -0.1940  0.0222  0.9513
 6510TIP3    H140945   6.194   1.325  11.438 -0.4368  2.0167 -1.3557
 6510TIP3    H240946   6.201   1.289  11.291 -0.1756 -2.9054 -0.2843
 6511TIP3   OH240947   6.183   0.172   5.127 -0.1216  0.0938  0.7399
 6511TIP3    H140948   6.124   0.116   5.077 -0.1466  1.5067 -0.9218
 6511TIP3    H240949   6.211   0.118   5.200  0.7704 -2.5430 -1.3693
 6512TIP3   OH240950   3.618   5.894   4.711  0.1226 -0.2536 -0.0702
 6512TIP3    H140951   3.620   5.798   4.708 -1.5585 -0.2779 -1.3546
 6512TIP3    H240952   3.665   5.921   4.633  0.6937 -0.0009  0.3496
 6513TIP3   OH240953   4.096   2.692  12.745 -0.3319 -0.2507  0.0055
 6513TIP3    H140954   4.009   2.666  12.716 -0.8088  1.5104 -0.2459
 6513TIP3    H240955   4.118   2.629  12.814 -2.6780  0.4377  1.5040
 6514TIP3   OH240956   5.742   0.900   1.429  0.2938 -0.2502 -0.0056
 6514TIP3    H140957   5.768   0.863   1.344 -0.0689  3.0334 -1.7052
 6514TIP3    H240958   5.646   0.902   1.426  0.3006  0.4560  0.2269
 6515TIP3   OH240959   3.036   6.785   5.232 -0.1646 -0.5516  0.1936
 6515TIP3    H140960   3.048   6.871   5.274 -1.3260 -0.9834  1.4860
 6515TIP3    H240961   2.973   6.740   5.289 -0.3924 -1.8589 -1.0621
 6516TIP3   OH240962   1.673   5.086  12.570 -0.1021 -0.1113 -0.0125
 6516TIP3    H140963   1.720   5.146  12.629  0.6073  0.1529 -0.8217
 6516TIP3    H240964   1.582   5.115  12.572  0.2014  0.8744 -0.2394
 6517TIP3   OH240965   2.999   4.287  11.393  0.5242 -0.3187 -0.1809
 6517TIP3    H140966   3.094   4.294  11.386  0.6198 -1.6177 -0.5062
 6517TIP3    H240967   2.966   4.375  11.373  1.6565  0.2130  0.2293
 6518TIP3   OH240968   3.971   1.563  11.226 -0.8310 -0.7904  0.3427
 6518TIP3    H140969   4.062   1.533  11.220 -1.5240 -2.9105 -0.5402
 6518TIP3    H240970   3.950   1.593  11.137 -0.5801  1.2053  0.8982
 6519TIP3   OH240971   1.711   3.015   2.280  0.1331  0.4880  0.2304
 6519TIP3    H140972   1.745   3.051   2.362 -1.7555  2.8239  0.1044
 6519TIP3    H240973   1.768   3.052   2.212 -1.1213  2.5748  0.1985
 6520TIP3   OH240974   1.453   6.203  17.088 -0.1608  0.6800 -0.2039
 6520TIP3    H140975   1.419   6.138  17.150  0.1281  2.0464  1.4563
 6520TIP3    H240976   1.547   6.185  17.085 -0.2424  0.3110 -0.6286
 6521TIP3   OH240977   1.723   0.468   4.883 -0.1126 -0.5155 -0.1869
 6521TIP3    H140978   1.775   0.424   4.816 -1.5552 -2.8671  0.1125
 6521TIP3    H240979   1.765   0.445   4.965 -1.1310 -1.8159  0.0033
 6522TIP3   OH240980   3.913   6.598  12.914 -0.0950  0.6315  0.3264
 6522TIP3    H140981   4.002   6.567  12.931 -0.5097 -0.8859 -0.0473
 6522TIP3    H240982   3.921   6.651  12.835  0.4623  0.3191  0.1624
 6523TIP3   OH240983   2.861   4.704  14.881  0.0341  0.4624  0.8004
 6523TIP3    H140984   2.864   4.609  14.868  0.5633  0.4308  1.1594
 6523TIP3    H240985   2.772   4.729  14.853  1.1327  0.4764 -3.2710
 6524TIP3   OH240986   3.295   1.251  11.294  0.3480 -0.0035  0.2708
 6524TIP3    H140987   3.382   1.227  11.326 -0.0023 -0.9149  0.5753
 6524TIP3    H240988   3.285   1.203  11.212 -0.0228 -0.2185  0.4397
 6525TIP3   OH240989   5.708   1.313   1.064  0.0203 -0.0503  0.1568
 6525TIP3    H140990   5.626   1.340   1.106 -1.3658  0.7287 -2.7940
 6525TIP3    H240991   5.684   1.236   1.012  1.0379  0.4441 -1.0877
 6526TIP3   OH240992   2.282   4.297   1.511  0.3791 -0.2243  0.5515
 6526TIP3    H140993   2.278   4.207   1.543  1.7475  0.4838  2.9968
 6526TIP3    H240994   2.198   4.335   1.536 -0.2005 -0.7768 -0.4845
 6527TIP3   OH240995   6.116   6.319  13.643 -0.3434 -0.4938  0.1208
 6527TIP3    H140996   6.149   6.409  13.639 -1.4419 -0.0683  0.1136
 6527TIP3    H240997   6.061   6.318  13.721 -0.5533 -1.0868 -0.0341
 6528TIP3   OH240998   2.901   3.479   4.976  0.0863 -0.0073 -0.3234
 6528TIP3    H140999   2.969   3.458   4.913  0.9811  2.0945 -0.1381
 6528TIP3    H241000   2.932   3.442   5.059  0.1535 -0.5441 -0.5861
 6529TIP3   OH241001   6.455   4.132   1.496  0.1522  0.2762  0.3096
 6529TIP3    H141002   6.416   4.062   1.549 -0.8267  1.9413  1.8791
 6529TIP3    H241003   6.541   4.097   1.470 -0.0463 -1.2525  1.5618
 6530TIP3   OH241004   3.174   0.759  11.508  0.5070  0.5885 -0.2034
 6530TIP3    H141005   3.157   0.751  11.415  0.8397  0.1214 -0.2256
 6530TIP3    H241006   3.246   0.822  11.514  0.9716  0.0720 -0.3083
 6531TIP3   OH241007   5.528   0.389   4.001  0.1951 -0.5692  0.1743
 6531TIP3    H141008   5.441   0.362   4.032  0.9742 -3.3217  0.2416
 6531TIP3    H241009   5.512   0.466   3.946 -2.3846 -1.4777 -0.4582
 6532TIP3   OH241010   3.603   2.856  13.111 -0.2429 -0.4581 -0.2552
 6532TIP3    H141011   3.596   2.768  13.074  0.0874 -0.2733 -0.7765
 6532TIP3    H241012   3.696   2.871  13.122 -0.3258 -0.3765  0.3386
 6533TIP3   OH241013   5.329   5.921  13.634  0.0626  0.0528  0.5745
 6533TIP3    H141014   5.266   5.903  13.564  0.0308  0.6382  0.4477
 6533TIP3    H241015   5.379   5.839  13.644 -0.6108 -0.3641  0.5727
 6534TIP3   OH241016   6.711   1.706   4.886  0.6931 -0.3254  0.3017
 6534TIP3    H141017   6.764   1.658   4.822 -1.7882 -0.3177 -1.9039
 6534TIP3    H241018   6.702   1.793   4.849  0.4555  0.1561  1.4580
 6535TIP3   OH241019   0.786   4.119  15.416  0.1082  0.3516  0.0972
 6535TIP3    H141020   0.772   4.053  15.348  1.1617 -0.1392  0.3381
 6535TIP3    H241021   0.758   4.077  15.497  3.8731 -1.1437  0.8032
 6536TIP3   OH241022   1.598   0.817   5.536 -0.2503 -0.0302 -0.3504
 6536TIP3    H141023   1.513   0.807   5.493 -0.0551  0.3532 -0.8341
 6536TIP3    H241024   1.662   0.799   5.466  0.0666  0.0856 -0.0902
 6537TIP3   OH241025   5.135   1.008   2.078 -0.6402  0.0762 -0.0928
 6537TIP3    H141026   5.073   1.066   2.121 -0.3618 -0.4598  1.0873
 6537TIP3    H241027   5.220   1.029   2.118 -0.4452 -0.7347 -0.0578
 6538TIP3   OH241028   6.601   3.397  15.734  0.2248 -0.5916 -0.1151
 6538TIP3    H141029   6.638   3.343  15.664 -0.2400  0.2371 -1.0137
 6538TIP3    H241030   6.670   3.398  15.801  0.4247 -1.9177 -0.2541
 6539TIP3   OH241031   6.483   1.801  12.901 -0.5254 -0.4702  0.2548
 6539TIP3    H141032   6.522   1.761  12.823 -0.1622  0.4238 -0.0297
 6539TIP3    H241033   6.535   1.880  12.915 -0.0692 -1.0210  1.8742
 6540TIP3   OH241034   0.244   1.237   5.634  0.5419 -0.1707 -0.2292
 6540TIP3    H141035   0.294   1.317   5.647  1.1509 -0.7801  1.4999
 6540TIP3    H241036   0.184   1.257   5.562  0.1036  2.1055  0.6696
 6541TIP3   OH241037   0.662   4.736  12.949  0.6278  0.3720  0.4271
 6541TIP3    H141038   0.730   4.672  12.971 -0.1157 -1.3099 -1.7991
 6541TIP3    H241039   0.710   4.814  12.920  1.5590  0.2846  1.6685
 6542TIP3   OH241040   1.409   2.694  15.334  0.6153 -0.1807  0.2939
 6542TIP3    H141041   1.452   2.616  15.298  2.3940  0.6313  0.5797
 6542TIP3    H241042   1.448   2.705  15.421  2.0333  2.2378 -0.5654
 6543TIP3   OH241043   3.204   5.604  15.765 -0.4131 -0.3105  0.1101
 6543TIP3    H141044   3.154   5.685  15.768 -1.7380 -1.0699 -0.4526
 6543TIP3    H241045   3.161   5.546  15.828  1.5318 -0.0638  1.7372
 6544TIP3   OH241046   5.847   4.120   2.657 -0.7646  0.1934  0.3391
 6544TIP3    H141047   5.895   4.146   2.735  0.2018  1.2775 -0.5770
 6544TIP3    H241048   5.904   4.058   2.612 -0.8909  0.3199  0.0006
 6545TIP3   OH241049   2.120   3.294  15.391  0.2126  0.1383  0.3933
 6545TIP3    H141050   2.144   3.384  15.413  1.8628 -0.2106  0.1646
 6545TIP3    H241051   2.166   3.276  15.309 -1.0599 -0.5359 -0.2064
 6546TIP3   OH241052   1.046   0.818   1.299  0.2889  0.1810 -0.1166
 6546TIP3    H141053   1.123   0.761   1.290 -0.0079  0.0950 -2.9128
 6546TIP3    H241054   1.028   0.820   1.393  1.2831 -3.0538  0.2470
 6547TIP3   OH241055   4.802   3.622  15.955 -0.2516 -0.1265  0.0845
 6547TIP3    H141056   4.875   3.666  15.999  0.7179 -1.4843 -0.1003
 6547TIP3    H241057   4.792   3.670  15.873 -0.4982  0.9247  0.7053
 6548TIP3   OH241058   3.218   5.427  13.699  0.9384 -0.1134 -0.1545
 6548TIP3    H141059   3.184   5.451  13.785  3.4676  0.9738  0.6599
 6548TIP3    H241060   3.254   5.509  13.664  0.8288 -0.7425 -1.8265
 6549TIP3   OH241061   2.293   4.164  11.200 -0.7256 -0.0115 -0.5176
 6549TIP3    H141062   2.326   4.099  11.138  0.5928  0.0372  0.0793
 6549TIP3    H241063   2.218   4.204  11.156 -0.7546 -1.0225 -1.4357
 6550TIP3   OH241064   5.803   6.610  15.615  0.0245  0.0951 -0.1061
 6550TIP3    H141065   5.842   6.564  15.540  0.4095  1.0626 -0.5320
 6550TIP3    H241066   5.877   6.657  15.655 -0.2437 -0.1344  0.6699
 6551TIP3   OH241067   6.516   0.783   0.481  0.2852 -0.0532  0.2690
 6551TIP3    H141068   6.458   0.708   0.468  0.2585 -0.0029  0.1003
 6551TIP3    H241069   6.563   0.763   0.562 -1.4533  0.8469  1.5652
 6552TIP3   OH241070   6.202   0.304   1.632 -0.3149 -0.3020 -0.2915
 6552TIP3    H141071   6.151   0.276   1.556 -1.6073 -1.5320  0.9470
 6552TIP3    H241072   6.170   0.392   1.652 -0.1052 -0.0519 -1.0447
 6553TIP3   OH241073   6.238   2.013   2.584  0.0202 -0.0007 -0.2936
 6553TIP3    H141074   6.254   1.923   2.557  0.6866  0.5868 -1.9734
 6553TIP3    H241075   6.264   2.016   2.676  0.9449 -1.2770 -0.4953
 6554TIP3   OH241076   0.073   5.654   3.783 -0.2107  0.6327 -0.1135
 6554TIP3    H141077   0.157   5.608   3.785 -1.7818 -2.8441 -3.3007
 6554TIP3    H241078   0.081   5.716   3.711 -0.8131 -0.9697 -1.6335
 6555TIP3   OH241079   2.900   0.704  11.667 -0.0689  0.0641  0.2811
 6555TIP3    H141080   2.847   0.625  11.673 -0.7163  0.6016  3.0001
 6555TIP3    H241081   2.970   0.682  11.605  0.9904 -3.3837  2.4578
 6556TIP3   OH241082   0.852   6.129  16.133 -0.1339 -0.6217 -0.1319
 6556TIP3    H141083   0.906   6.125  16.213 -0.9443 -0.9088  0.4123
 6556TIP3    H241084   0.864   6.044  16.092 -1.3205 -1.2583  0.7729
 6557TIP3   OH241085   5.855   3.664   3.525  0.0117  0.1536 -0.3282
 6557TIP3    H141086   5.763   3.665   3.550 -0.2202 -0.5416 -1.0889
 6557TIP3    H241087   5.856   3.624   3.438  0.8327  1.9403 -1.2016
 6558TIP3   OH241088   5.277   4.867  14.041  0.2495 -0.0162 -0.0285
 6558TIP3    H141089   5.278   4.848  14.135 -1.5691  1.7954  0.4419
 6558TIP3    H241090   5.363   4.905  14.023  0.1477  0.8680  1.2324
 6559TIP3   OH241091   3.361   5.146   1.562 -0.1786 -0.1900  0.4453
 6559TIP3    H141092   3.369   5.223   1.506 -2.9523 -1.1618 -1.5481
 6559TIP3    H241093   3.390   5.073   1.507  0.1679 -0.8368  1.4595
 6560TIP3   OH241094   3.374   2.408   0.574 -0.0176 -0.0570 -0.2879
 6560TIP3    H141095   3.414   2.404   0.487  3.9579  1.6214  1.2347
 6560TIP3    H241096   3.378   2.501   0.598 -1.9471 -0.3232  1.3869
 6561TIP3   OH241097   2.887   1.494  12.245  0.2143  0.0047 -0.0225
 6561TIP3    H141098   2.892   1.521  12.337 -1.0991  2.2581 -0.5145
 6561TIP3    H241099   2.953   1.548  12.202  1.6933 -1.9370 -0.2780
 6562TIP3   OH241100   3.579   6.326   4.960  0.5055 -0.8109 -0.3344
 6562TIP3    H141101   3.506   6.268   4.981  0.6815 -1.2506 -0.9117
 6562TIP3    H241102   3.597   6.373   5.041  0.5450 -1.7680  0.2263
 6563TIP3   OH241103   0.607   0.892   5.922 -0.7852 -0.3769  0.2715
 6563TIP3    H141104   0.655   0.929   5.848 -2.2159 -0.0119 -0.4920
 6563TIP3    H241105   0.676   0.858   5.980  0.3657 -0.7336 -1.2379
 6564TIP3   OH241106   3.203   5.181  13.021 -0.7078 -0.2243  0.2644
 6564TIP3    H141107   3.220   5.272  12.996 -1.5663  0.5090  2.1765
 6564TIP3    H241108   3.193   5.184  13.116 -1.4862 -2.2028  0.2826
 6565TIP3   OH241109   6.780   1.199  14.325 -0.1824 -0.6991 -0.2507
 6565TIP3    H141110   6.766   1.127  14.385 -1.5017 -0.1479  0.1234
 6565TIP3    H241111   6.875   1.208  14.320  0.0304  0.4397  3.2347
 6566TIP3   OH241112   4.646   6.026   0.912 -0.3898  0.1349 -0.4626
 6566TIP3    H141113   4.690   6.022   0.997  0.3973  3.1154 -0.6202
 6566TIP3    H241114   4.692   5.961   0.858  1.6005  0.7616  0.3777
 6567TIP3   OH241115   5.939   3.082  15.175  0.3571 -0.7046  0.3969
 6567TIP3    H141116   5.996   3.086  15.098  0.1127  1.6115  0.2825
 6567TIP3    H241117   5.983   3.136  15.240 -1.2563  0.4138  0.5995
 6568TIP3   OH241118   0.448   4.596   0.504 -0.3579  0.0620  0.3260
 6568TIP3    H141119   0.444   4.606   0.409  1.1630 -1.0121  0.1066
 6568TIP3    H241120   0.520   4.653   0.531 -0.8516  0.4462  0.8605
 6569TIP3   OH241121   4.023   3.311  16.183  0.0250 -0.0675  0.0486
 6569TIP3    H141122   4.024   3.357  16.268  1.6845 -1.6662  0.9675
 6569TIP3    H241123   4.090   3.243  16.192 -0.8569 -1.2946 -2.0135
 6570TIP3   OH241124   0.531   4.974   4.916  0.1638  0.0116 -0.0919
 6570TIP3    H141125   0.456   4.993   4.972 -0.3681  0.3285 -0.8958
 6570TIP3    H241126   0.550   4.881   4.932 -3.4904 -1.5978 -3.3823
 6571TIP3   OH241127   0.295   3.121  14.633  0.5569 -0.4919 -0.3164
 6571TIP3    H141128   0.211   3.164  14.650 -1.3533 -3.6839 -0.8821
 6571TIP3    H241129   0.342   3.126  14.716  0.6231  2.6913 -0.3906
 6572TIP3   OH241130   6.062   4.670  13.377  0.5172  0.3775  0.3613
 6572TIP3    H141131   6.023   4.643  13.460  1.2724 -0.1529  0.5559
 6572TIP3    H241132   6.156   4.656  13.389  0.6735  0.7029 -0.4332
 6573TIP3   OH241133   6.035   0.662   0.116  0.1460  1.0080  0.4194
 6573TIP3    H141134   6.020   0.603   0.042 -0.7506  2.0340 -0.2561
 6573TIP3    H241135   6.012   0.610   0.193  0.2825  0.1845 -0.0838
 6574TIP3   OH241136   1.305   5.562   1.992 -0.6224  0.3630 -0.7814
 6574TIP3    H141137   1.294   5.467   1.987  3.2441 -0.2297 -0.5259
 6574TIP3    H241138   1.313   5.590   1.901 -1.2474  0.4033 -0.8302
 6575TIP3   OH241139   3.146   5.807   5.917 -0.0844  0.2236 -0.6292
 6575TIP3    H141140   3.176   5.801   5.826 -0.0026  2.0767 -0.7563
 6575TIP3    H241141   3.198   5.742   5.964 -0.4655 -1.1114 -1.9599
 6576TIP3   OH241142   4.919   1.649  15.640 -0.2214 -0.4034  0.4560
 6576TIP3    H141143   4.849   1.587  15.616 -0.2805  0.0975 -0.7594
 6576TIP3    H241144   4.887   1.734  15.610  0.1011  0.1450  1.6149
 6577TIP3   OH241145   1.509   3.395  12.694  0.4976  0.0950  0.6464
 6577TIP3    H141146   1.464   3.472  12.659 -2.1361 -2.1475 -1.4771
 6577TIP3    H241147   1.482   3.391  12.786  1.1514  1.9284  0.9630
 6578TIP3   OH241148   4.619   3.766  15.674 -0.4442 -0.0268 -0.2152
 6578TIP3    H141149   4.570   3.684  15.686 -0.6541  0.0617 -0.4512
 6578TIP3    H241150   4.709   3.738  15.658 -0.1044 -0.1580  1.6623
 6579TIP3   OH241151   2.613   2.260  11.701  0.4012 -0.4311 -0.1642
 6579TIP3    H141152   2.543   2.197  11.720  0.5255 -0.6650 -0.4758
 6579TIP3    H241153   2.598   2.332  11.763 -0.9374  0.1783 -1.1622
 6580TIP3   OH241154   6.144   4.412  15.958 -0.4306  0.2471  0.2700
 6580TIP3    H141155   6.058   4.451  15.940 -0.1071  1.0855  0.5480
 6580TIP3    H241156   6.175   4.382  15.872 -0.2188  1.5448 -0.1209
 6581TIP3   OH241157   4.946   3.910   3.185 -0.4745 -0.2205 -0.2338
 6581TIP3    H141158   4.972   3.835   3.239  1.2508 -0.5578 -1.4627
 6581TIP3    H241159   4.965   3.986   3.239 -0.0859 -0.6018  0.1780
 6582TIP3   OH241160   3.090   1.857   4.871 -0.2280 -0.1793  0.1394
 6582TIP3    H141161   3.000   1.855   4.838 -1.1711  1.5255  2.3429
 6582TIP3    H241162   3.084   1.823   4.960  1.0344  1.2683  0.8256
 6583TIP3   OH241163   3.622   3.197   0.311  0.1544  0.3583  0.0680
 6583TIP3    H141164   3.616   3.292   0.300 -0.0992  0.5212  1.4596
 6583TIP3    H241165   3.566   3.161   0.242  0.7871  1.1810 -0.9063
 6584TIP3   OH241166   2.381   2.842  12.844  0.1792 -0.2437  0.4313
 6584TIP3    H141167   2.443   2.893  12.895 -0.2867  1.1330 -0.3491
 6584TIP3    H241168   2.427   2.760  12.826  1.2427  0.2066  1.0140
 6585TIP3   OH241169   4.853   3.876   1.351 -0.3702  0.5525 -0.3763
 6585TIP3    H141170   4.858   3.858   1.445 -1.2185  1.3899 -0.1565
 6585TIP3    H241171   4.892   3.798   1.309  0.0182  0.1770  0.6575
 6586TIP3   OH241172   5.628   2.690   6.241 -0.1957 -0.1051  0.1019
 6586TIP3    H141173   5.561   2.748   6.205 -1.4769 -0.7083  1.4214
 6586TIP3    H241174   5.689   2.748   6.285 -0.0234  0.4263 -0.8063
 6587TIP3   OH241175   1.319   4.782   2.998 -0.5559 -0.0652  0.0763
 6587TIP3    H141176   1.308   4.688   2.988 -0.7171 -0.0117 -0.2552
 6587TIP3    H241177   1.407   4.800   2.963 -1.2347  0.1679 -1.6056
 6588TIP3   OH241178   5.229   0.076  11.618  0.1244  0.5041  0.6510
 6588TIP3    H141179   5.177   0.039  11.546  0.5001  1.5845 -0.1953
 6588TIP3    H241180   5.318   0.082  11.583  0.3917  0.6790  1.3435
 6589TIP3   OH241181   3.241   0.112  13.440  0.1907 -0.2310 -0.1758
 6589TIP3    H141182   3.245   0.027  13.396  2.0574 -0.5283  0.4674
 6589TIP3    H241183   3.325   0.153  13.421 -1.2679  2.2029 -1.7693
 6590TIP3   OH241184   5.689   0.617   5.704  0.4014  0.6352 -0.7914
 6590TIP3    H141185   5.732   0.551   5.649  0.4889  1.2376 -1.4567
 6590TIP3    H241186   5.740   0.696   5.691  1.7972  0.2827  1.9112
 6591TIP3   OH241187   6.194   3.791  16.709  0.8283 -0.1517 -0.2378
 6591TIP3    H141188   6.114   3.803  16.761  1.3130  1.1787  0.2611
 6591TIP3    H241189   6.249   3.734  16.762 -0.5343 -2.7951 -1.4947
 6592TIP3   OH241190   0.083   6.171   5.070  0.3510  0.1767  0.0928
 6592TIP3    H141191   0.137   6.248   5.057 -0.8931  1.1461  0.5129
 6592TIP3    H241192  -0.007   6.203   5.064 -0.3742 -1.9280 -4.3270
 6593TIP3   OH241193   2.388   6.042   3.637  0.3241  0.0672  0.2108
 6593TIP3    H141194   2.384   6.069   3.546  0.8049 -0.2297  0.0995
 6593TIP3    H241195   2.397   6.124   3.686 -0.8206  0.2985  0.0648
 6594TIP3   OH241196   4.141   4.489   2.620  0.2249  0.1828  0.4661
 6594TIP3    H141197   4.078   4.468   2.551 -1.3302  2.1621  1.1865
 6594TIP3    H241198   4.198   4.412   2.625 -0.4138 -0.5557 -2.0932
 6595TIP3   OH241199   1.884   2.534   4.478  0.2175 -0.1793  0.5118
 6595TIP3    H141200   1.821   2.482   4.527 -0.8114  0.3007 -0.2605
 6595TIP3    H241201   1.969   2.506   4.511 -0.3439 -1.6987  0.7356
 6596TIP3   OH241202   5.299   3.190   1.612  0.4057  0.1377 -0.3238
 6596TIP3    H141203   5.292   3.187   1.708 -0.9964 -0.9139 -0.4296
 6596TIP3    H241204   5.261   3.275   1.589 -1.6009 -0.6096 -0.0537
 6597TIP3   OH241205   0.436   5.718   1.771  0.3439  0.6213  0.5057
 6597TIP3    H141206   0.430   5.772   1.850 -0.5833  1.2013  0.0565
 6597TIP3    H241207   0.398   5.634   1.796  0.0991  0.7872  0.6835
 6598TIP3   OH241208   4.821   4.868   2.416 -0.3271  0.1769 -0.7152
 6598TIP3    H141209   4.914   4.847   2.408 -0.1180  1.0194 -0.5158
 6598TIP3    H241210   4.784   4.792   2.462  0.7152  0.8748  1.4125
 6599TIP3   OH241211   1.369   4.593  14.080  0.5010 -0.2889  0.0617
 6599TIP3    H141212   1.396   4.554  14.163 -0.4365 -0.5566  0.2464
 6599TIP3    H241213   1.292   4.544  14.053  0.6261 -0.0230 -0.8370
 6600TIP3   OH241214   1.410   3.891   2.087 -0.4947 -0.8471 -0.1560
 6600TIP3    H141215   1.375   3.936   2.011  0.0981 -3.4966 -2.1014
 6600TIP3    H241216   1.436   3.962   2.147 -0.5761  1.3417 -2.5729
 6601TIP3   OH241217   3.206   1.096  16.910 -0.1918  0.0371 -0.3628
 6601TIP3    H141218   3.208   1.026  16.975  1.1393  1.1095  0.8050
 6601TIP3    H241219   3.297   1.118  16.894 -0.4704 -0.1865 -2.6585
 6602TIP3   OH241220   3.142   1.456   3.307 -0.3597  0.2714 -0.0510
 6602TIP3    H141221   3.140   1.417   3.395 -1.3783  0.3971 -0.0003
 6602TIP3    H241222   3.155   1.382   3.248  0.4138  0.1965  0.2066
 6603TIP3   OH241223   5.610   4.425   5.535 -0.1839  0.2992  0.4452
 6603TIP3    H141224   5.651   4.362   5.475  0.5188  0.5961  0.6090
 6603TIP3    H241225   5.611   4.381   5.620  1.4606  1.0064  0.8232
 6604TIP3   OH241226   5.178   0.025  14.082 -0.3519 -0.0597 -0.2475
 6604TIP3    H141227   5.132   0.002  14.001 -0.7701 -1.7021  0.4113
 6604TIP3    H241228   5.208  -0.059  14.117  0.6240  0.7093  0.8380
 6605TIP3   OH241229   1.921   5.191  12.246  0.4044  0.2601 -0.3099
 6605TIP3    H141230   1.930   5.286  12.247 -1.8516  0.5277 -0.3910
 6605TIP3    H241231   1.906   5.169  12.154  1.9648 -0.3468 -0.4603
 6606TIP3   OH241232   2.655   1.460  13.968  0.3315 -0.1090  0.5430
 6606TIP3    H141233   2.731   1.407  13.946  0.4576 -0.7241  2.2591
 6606TIP3    H241234   2.580   1.405  13.947  0.4274 -0.4167  1.0004
 6607TIP3   OH241235   6.501   3.229   0.533  0.3336  0.0956  0.1140
 6607TIP3    H141236   6.542   3.149   0.499 -0.0224  0.6385 -1.7359
 6607TIP3    H241237   6.556   3.300   0.498 -1.7598  0.8149 -1.9494
 6608TIP3   OH241238   5.055   0.502  16.318 -0.7139  0.3048 -0.0449
 6608TIP3    H141239   5.073   0.423  16.267 -0.0885  0.2496  0.2526
 6608TIP3    H241240   5.108   0.569  16.277 -0.6036  0.3784  0.2163
 6609TIP3   OH241241   6.649   5.024  14.929  0.0300  0.2690 -0.3675
 6609TIP3    H141242   6.674   5.051  15.018  0.1032 -1.1148  0.0459
 6609TIP3    H241243   6.640   5.107  14.882  0.5663  1.0120  0.7669
 6610TIP3   OH241244   6.745   2.207  15.282  0.8273  0.5689  0.5426
 6610TIP3    H141245   6.699   2.287  15.309  1.1078  0.9197 -0.0095
 6610TIP3    H241246   6.824   2.206  15.336 -0.3018 -0.6102  2.2991
 6611TIP3   OH241247   1.370   0.472  13.965  0.1101  0.9323  0.7705
 6611TIP3    H141248   1.371   0.412  13.890  0.6237  0.6054  1.0295
 6611TIP3    H241249   1.277   0.491  13.978 -0.1109 -0.1675  0.9549
 6612TIP3   OH241250   2.411   4.172  15.187  0.1431  0.1173 -0.5187
 6612TIP3    H141251   2.486   4.117  15.211 -0.5174 -0.1379  1.1039
 6612TIP3    H241252   2.450   4.253  15.154  1.1246 -0.7081 -1.4493
 6613TIP3   OH241253   6.078   5.942   5.324  0.1226  0.3367  0.4562
 6613TIP3    H141254   6.111   5.891   5.398  0.3413  1.6765  1.3105
 6613TIP3    H241255   6.020   5.882   5.278  0.5824 -0.7656  1.2653
 6614TIP3   OH241256   3.519   5.471  12.504 -0.2166 -0.5472  0.2898
 6614TIP3    H141257   3.499   5.557  12.541 -0.6970  0.0855 -1.3689
 6614TIP3    H241258   3.589   5.437  12.560  0.2106  1.0654  0.7876
 6615TIP3   OH241259   4.189   1.868   1.372 -0.0796 -0.5420 -0.2817
 6615TIP3    H141260   4.098   1.891   1.390 -0.0743 -0.5301 -0.2701
 6615TIP3    H241261   4.239   1.913   1.439 -0.2061 -1.8750  0.7391
 6616TIP3   OH241262   0.108   5.281   6.054  0.2050 -0.5360 -0.0185
 6616TIP3    H141263   0.184   5.223   6.052 -1.2718 -2.5505 -0.3827
 6616TIP3    H241264   0.092   5.297   6.147 -0.0956 -1.7718  0.1665
 6617TIP3   OH241265   0.816   1.541  16.892  0.1500 -0.3282 -0.6327
 6617TIP3    H141266   0.832   1.446  16.889 -1.1003 -0.6809  1.4992
 6617TIP3    H241267   0.757   1.558  16.819 -0.4221 -1.3957 -0.4373
 6618TIP3   OH241268   5.121   5.693  11.942  0.3974  0.4764 -0.6854
 6618TIP3    H141269   5.154   5.783  11.949 -1.3314  1.2308 -1.5249
 6618TIP3    H241270   5.135   5.670  11.850  0.5278  0.0145 -0.5494
 6619TIP3   OH241271   5.901   1.294   0.424  0.3230  0.1602 -0.5817
 6619TIP3    H141272   5.997   1.296   0.420  0.4016  0.3710  0.9187
 6619TIP3    H241273   5.875   1.238   0.351  1.6497 -1.0219 -0.1804
 6620TIP3   OH241274   4.912   5.046  16.770  0.3048  0.1614  0.2295
 6620TIP3    H141275   4.910   5.001  16.855  1.1633  1.3628  0.9200
 6620TIP3    H241276   4.998   5.088  16.767 -0.8399  2.6547  0.1479
 6621TIP3   OH241277   3.768   3.818   3.073  0.5277 -0.0199  0.5115
 6621TIP3    H141278   3.811   3.856   2.996 -2.9324  0.8841 -1.1870
 6621TIP3    H241279   3.732   3.735   3.042 -0.9355  0.3603  1.1235
 6622TIP3   OH241280   2.885   6.759   0.982  0.3541  0.4728  0.0639
 6622TIP3    H141281   2.913   6.714   0.903  2.8048 -0.1702  1.2137
 6622TIP3    H241282   2.792   6.777   0.967 -0.4423 -3.5202 -1.1567
 6623TIP3   OH241283   1.144   2.928   0.054 -0.0647 -0.5741 -0.5483
 6623TIP3    H141284   1.107   2.937   0.142  1.2238 -0.2564 -0.0115
 6623TIP3    H241285   1.073   2.890   0.002 -0.9146 -0.5898  0.5785
 6624TIP3   OH241286   1.455   6.228  12.651 -0.3224 -0.0429 -0.3803
 6624TIP3    H141287   1.549   6.213  12.660 -0.1749  0.6733 -0.6483
 6624TIP3    H241288   1.429   6.266  12.735 -0.4930 -0.8044 -0.0841
 6625TIP3   OH241289   3.451   6.087   4.869  0.1108  0.2356 -0.0808
 6625TIP3    H141290   3.431   6.168   4.823  2.5472  1.0567  0.1929
 6625TIP3    H241291   3.500   6.035   4.806  2.0045  0.6645  0.9868
 6626TIP3   OH241292   1.396   3.997   1.124 -0.4530 -0.3525  0.1053
 6626TIP3    H141293   1.452   3.936   1.171  1.8147 -0.0604 -1.9936
 6626TIP3    H241294   1.313   3.995   1.171  0.4451 -2.8572  1.7898
 6627TIP3   OH241295   0.108   6.498   1.366 -0.0340 -0.2675  0.0914
 6627TIP3    H141296   0.145   6.477   1.451 -2.4571 -0.4838  1.1770
 6627TIP3    H241297   0.098   6.414   1.322  0.1471 -0.2817  0.0795
 6628TIP3   OH241298   1.936   3.822   3.043  0.2303 -0.0758 -0.0172
 6628TIP3    H141299   2.014   3.850   2.995 -0.5306  3.5957  0.6144
 6628TIP3    H241300   1.866   3.823   2.979  0.4453 -2.7111 -0.4230
 6629TIP3   OH241301   4.768   4.470  15.381 -0.0165  0.0850  0.1565
 6629TIP3    H141302   4.853   4.493  15.420 -0.1293  0.2558  0.3013
 6629TIP3    H241303   4.741   4.391  15.428  0.4008 -0.3929 -0.3806
 6630TIP3   OH241304   1.225   1.411   5.376 -0.3950  0.2462  0.1720
 6630TIP3    H141305   1.265   1.324   5.373  1.5311  1.1173 -2.3541
 6630TIP3    H241306   1.138   1.397   5.338 -0.5801 -0.7492  0.8960
 6631TIP3   OH241307   3.960   0.961  17.131  0.3097  0.7364  0.4662
 6631TIP3    H141308   3.869   0.991  17.128  0.3749  0.8556 -0.4502
 6631TIP3    H241309   4.004   1.026  17.185 -0.2700  0.3227  1.4752
 6632TIP3   OH241310   1.802   2.173   5.361  0.0101 -0.8024  0.1595
 6632TIP3    H141311   1.843   2.235   5.422  0.0161 -0.2222 -0.4235
 6632TIP3    H241312   1.867   2.161   5.292 -0.8595  0.3183 -0.9033
 6633TIP3   OH241313   1.067   2.829  16.313  0.0140  0.3750  0.3104
 6633TIP3    H141314   1.142   2.889  16.312  1.2784 -1.0903 -1.6474
 6633TIP3    H241315   1.022   2.846  16.230  0.6694 -1.5856 -0.5206
 6634TIP3   OH241316   6.197   6.410   2.072  0.4099  0.1738 -0.4234
 6634TIP3    H141317   6.191   6.486   2.130 -2.3245  1.5593 -2.3083
 6634TIP3    H241318   6.251   6.439   1.999  1.1266 -0.4353 -0.1393
 6635TIP3   OH241319   2.997   3.435   4.159 -0.2025  0.0840  0.1338
 6635TIP3    H141320   3.019   3.525   4.185 -0.8208  0.4769 -0.6580
 6635TIP3    H241321   2.910   3.442   4.119 -0.6330 -1.0166  0.8550
 6636TIP3   OH241322   4.085   4.701  13.435 -0.2615 -0.0467  0.6649
 6636TIP3    H141323   3.994   4.676  13.454 -0.3009 -0.1487  0.3515
 6636TIP3    H241324   4.090   4.703  13.339  0.5561 -1.8897  0.6242
 6637TIP3   OH241325   0.100   0.601   4.169  0.1232 -0.0735 -0.4054
 6637TIP3    H141326   0.167   0.578   4.104  0.5536 -0.1084  0.0398
 6637TIP3    H241327   0.095   0.697   4.165  0.3880 -0.0525 -0.2604
 6638TIP3   OH241328   6.232   3.190   3.424 -0.1046 -0.0193 -0.3159
 6638TIP3    H141329   6.313   3.195   3.475 -1.4594  1.7740  1.8482
 6638TIP3    H241330   6.258   3.215   3.335  1.7217  0.3824  0.2910
 6639TIP3   OH241331   5.640   3.646  13.628  0.0453 -0.1181  0.2556
 6639TIP3    H141332   5.611   3.557  13.648 -2.1909  0.7737  1.3260
 6639TIP3    H241333   5.609   3.662  13.539 -0.7077  0.0225  0.5383
 6640TIP3   OH241334   1.536   6.232   4.597  0.5721  0.3974  0.5525
 6640TIP3    H141335   1.519   6.323   4.573  1.0821  0.8562  1.8437
 6640TIP3    H241336   1.608   6.237   4.660 -0.0807 -0.8124  1.4394
 6641TIP3   OH241337   1.385   1.954   5.090 -0.4676  0.4598  0.3322
 6641TIP3    H141338   1.440   2.019   5.047  3.1248 -2.7968 -0.5580
 6641TIP3    H241339   1.305   1.950   5.037  0.3020  2.2382 -1.0591
 6642TIP3   OH241340   3.532   6.417   5.685  0.4533 -0.8984  0.1085
 6642TIP3    H141341   3.611   6.466   5.706  0.1449  0.0816 -0.9240
 6642TIP3    H241342   3.499   6.388   5.770  0.7204  0.5773  0.7594
 6643TIP3   OH241343   6.537   4.337  16.542 -0.3579  0.0412 -0.2460
 6643TIP3    H141344   6.630   4.323  16.563  0.4932  2.5614 -1.9541
 6643TIP3    H241345   6.524   4.431  16.553 -2.2429  0.0097 -1.7999
 6644TIP3   OH241346   5.118   4.017  14.192  0.0740 -0.5888  0.5793
 6644TIP3    H141347   5.070   4.098  14.178  0.5087 -0.0574  2.0180
 6644TIP3    H241348   5.063   3.967  14.252  0.0664 -1.1482  0.1242
 6645TIP3   OH241349   6.691   6.055  11.643  0.5808 -0.3503  0.3856
 6645TIP3    H141350   6.608   6.097  11.666  0.5750 -0.1539  0.0172
 6645TIP3    H241351   6.758   6.118  11.669  0.6035 -0.4154  0.4833
 6646TIP3   OH241352   6.777   6.118  15.214  0.1581 -0.1349 -1.0029
 6646TIP3    H141353   6.735   6.059  15.277 -0.1314  0.9282 -0.1737
 6646TIP3    H241354   6.732   6.202  15.226  0.2957  0.1576 -2.4431
 6647TIP3   OH241355   2.748   4.143   0.868  0.1877 -0.2523  0.1453
 6647TIP3    H141356   2.805   4.162   0.942  0.1147  2.2882 -0.3632
 6647TIP3    H241357   2.802   4.163   0.791 -1.0567  1.4295 -0.3572
 6648TIP3   OH241358   5.719   5.033   2.023 -0.3575  0.1116  0.9069
 6648TIP3    H141359   5.631   5.054   1.992 -0.6945 -2.1604  0.1344
 6648TIP3    H241360   5.720   4.938   2.029  2.2003  0.0404  0.4496
 6649TIP3   OH241361   4.953   0.624   5.714 -0.0360  0.0587  0.5275
 6649TIP3    H141362   4.952   0.532   5.738  1.0527 -0.0579  0.2079
 6649TIP3    H241363   5.046   0.648   5.719 -0.1413  0.7826 -0.7007
 6650TIP3   OH241364   2.266   6.171   3.375  0.5254  0.4135 -0.0382
 6650TIP3    H141365   2.227   6.231   3.311 -0.1200  1.4807  1.2941
 6650TIP3    H241366   2.193   6.121   3.409  0.8563 -0.1294 -0.1200
 6651TIP3   OH241367   0.358   6.655  12.010  0.3347 -0.1656  0.1126
 6651TIP3    H141368   0.404   6.571  12.009 -0.5315 -0.6442 -1.6270
 6651TIP3    H241369   0.270   6.635  11.979 -0.2314  1.2138  0.7537
 6652TIP3   OH241370   6.080   1.867   0.031 -0.3305  0.2723 -0.5681
 6652TIP3    H141371   6.166   1.908   0.032  0.3364 -1.0833 -0.9629
 6652TIP3    H241372   6.081   1.805   0.103 -0.9307  0.1569 -0.6509
 6653TIP3   OH241373   4.416   5.037  14.612 -0.2122  0.0731 -0.2848
 6653TIP3    H141374   4.405   5.109  14.550  0.6712  0.9643  0.5491
 6653TIP3    H241375   4.331   5.028  14.655 -0.0027  1.4834  0.4793
 6654TIP3   OH241376   2.566   5.318  16.597  0.3315  0.7069  0.1478
 6654TIP3    H141377   2.660   5.329  16.609  0.1825  1.1191  0.9658
 6654TIP3    H241378   2.535   5.283  16.680  0.0224 -1.2148 -0.7217
 6655TIP3   OH241379   5.405   5.179   1.299 -0.3594 -0.7170 -0.0796
 6655TIP3    H141380   5.349   5.187   1.222  2.9055 -1.2892 -2.7713
 6655TIP3    H241381   5.409   5.268   1.335 -0.2715  0.0934 -1.9629
 6656TIP3   OH241382   2.839   1.908  12.367 -0.5603 -0.3293 -0.1907
 6656TIP3    H141383   2.863   1.998  12.389 -1.5667  0.0826 -0.7126
 6656TIP3    H241384   2.748   1.900  12.397 -0.0430 -1.6410  1.1721
 6657TIP3   OH241385   3.438   4.648  15.638  0.7974 -0.3093  0.2041
 6657TIP3    H141386   3.420   4.653  15.732  2.1577 -1.2133  0.5436
 6657TIP3    H241387   3.533   4.653  15.631  0.6947  0.1222 -1.1640
 6658TIP3   OH241388   1.193   6.570   6.420  0.4636  1.0728 -0.2864
 6658TIP3    H141389   1.154   6.615   6.495  0.7481  1.0872 -0.1463
 6658TIP3    H241390   1.119   6.527   6.376  0.3583  0.7131  0.2427
 6659TIP3   OH241391   4.919   6.193  11.599 -0.5280 -0.7161  0.0036
 6659TIP3    H141392   4.918   6.131  11.672 -2.6596 -1.1816 -0.3320
 6659TIP3    H241393   4.853   6.259  11.623  1.3021  1.1639  0.1012
 6660TIP3   OH241394   5.609   3.748   2.644  0.0177 -0.6872 -0.1542
 6660TIP3    H141395   5.535   3.700   2.606  0.4836 -0.4888 -1.3633
 6660TIP3    H241396   5.661   3.680   2.687 -1.6239 -0.6337  2.0698
 6661TIP3   OH241397   2.505   2.787  12.215  0.2981 -0.2747  0.2700
 6661TIP3    H141398   2.437   2.744  12.267 -1.1466  0.1657 -1.1639
 6661TIP3    H241399   2.482   2.879  12.215  0.9907 -0.0896 -0.1354
 6662TIP3   OH241400   0.283   6.784   3.175 -0.1165 -0.2209  0.6302
 6662TIP3    H141401   0.234   6.861   3.148  1.8026  1.2099  1.0459
 6662TIP3    H241402   0.286   6.729   3.096  1.2825  1.6825 -0.7441
 6663TIP3   OH241403   1.707   1.727   0.603  0.4651 -0.1754  0.5595
 6663TIP3    H141404   1.700   1.729   0.507 -2.5548 -1.5863  0.6503
 6663TIP3    H241405   1.682   1.815   0.630  0.6908  0.0389  0.0999
 6664TIP3   OH241406   0.102   6.144  12.464  0.2209 -0.0162 -0.1642
 6664TIP3    H141407   0.087   6.075  12.400 -2.1325  1.5421 -1.4290
 6664TIP3    H241408   0.104   6.099  12.548  0.1166 -1.7506 -1.0463
 6665TIP3   OH241409   2.916   4.405   3.216 -0.1811  0.1201 -0.5045
 6665TIP3    H141410   2.882   4.321   3.185  1.5060 -1.1530  0.8785
 6665TIP3    H241411   2.892   4.408   3.309  2.6013 -0.4779  0.3402
 6666TIP3   OH241412   2.281   3.094  13.290  0.3685 -0.5362 -0.2641
 6666TIP3    H141413   2.289   2.999  13.294  0.3958 -0.5657 -0.9613
 6666TIP3    H241414   2.263   3.120  13.380  1.2503 -1.1196  0.0921
 6667TIP3   OH241415   0.857   4.559   0.691 -0.4171 -0.0301  0.6703
 6667TIP3    H141416   0.783   4.516   0.732 -0.9526  1.0384  0.8603
 6667TIP3    H241417   0.846   4.652   0.712  0.7511  0.2016  0.3642
 6668TIP3   OH241418   6.329   2.775  12.714 -0.3718 -0.1898  0.0937
 6668TIP3    H141419   6.324   2.746  12.805 -0.9896  0.4625  0.2767
 6668TIP3    H241420   6.388   2.851  12.717  0.6408 -0.9433 -0.2620
 6669TIP3   OH241421   0.479   1.766  16.800  0.2364 -0.2674  0.1903
 6669TIP3    H141422   0.456   1.796  16.712  2.0004 -0.0527 -0.2530
 6669TIP3    H241423   0.478   1.671  16.795  0.2762 -0.2552 -0.0624
 6670TIP3   OH241424   1.448   0.089   0.973  0.1729 -0.6291 -0.1326
 6670TIP3    H141425   1.367   0.064   1.018  0.1633  0.1778  0.3167
 6670TIP3    H241426   1.516   0.076   1.039  0.2712 -0.2861 -0.1629
 6671TIP3   OH241427   2.891   0.210  10.969  0.1078 -0.5561 -0.3224
 6671TIP3    H141428   2.796   0.222  10.966 -0.1304 -2.0601  0.0533
 6671TIP3    H241429   2.917   0.243  11.055 -0.3854 -1.8854  0.3626
 6672TIP3   OH241430   6.251   4.704   4.724  0.4025 -0.6616 -0.2114
 6672TIP3    H141431   6.173   4.702   4.669  0.9969  0.1919 -1.1365
 6672TIP3    H241432   6.241   4.630   4.784 -0.7606 -0.9906 -0.7890
 6673TIP3   OH241433   3.462   3.110  15.840  0.1484  0.1944 -0.3331
 6673TIP3    H141434   3.488   3.026  15.803  1.7405  0.6767 -0.4030
 6673TIP3    H241435   3.400   3.147  15.777 -0.2238 -0.7197 -0.5146
 6674TIP3   OH241436   0.177   2.675  15.466 -0.3166 -0.2720 -0.3190
 6674TIP3    H141437   0.130   2.757  15.456 -1.0268 -0.5376  0.6902
 6674TIP3    H241438   0.238   2.691  15.539 -0.5133 -0.6523 -0.0674
 6675TIP3   OH241439   6.261   4.627  15.376  0.1482  0.6666 -0.1102
 6675TIP3    H141440   6.254   4.585  15.462  0.1147  0.0299 -0.4145
 6675TIP3    H241441   6.354   4.619  15.354 -0.2483 -1.6183 -1.3033
 6676TIP3   OH241442   5.827   1.694   0.260  0.6766 -0.4465 -0.0169
 6676TIP3    H141443   5.754   1.634   0.275 -1.0718  1.0636 -1.8458
 6676TIP3    H241444   5.830   1.748   0.338 -2.2689  1.4189 -0.9986
 6677TIP3   OH241445   3.313   0.839   2.235  0.9316 -0.1866  0.6776
 6677TIP3    H141446   3.254   0.769   2.262 -2.9526  2.6006  0.2999
 6677TIP3    H241447   3.338   0.882   2.317 -0.5240  0.6924  0.6961
 6678TIP3   OH241448   4.742   3.451   6.337 -0.3886  0.2105  0.0040
 6678TIP3    H141449   4.820   3.499   6.309  0.3050 -0.9673 -0.1297
 6678TIP3    H241450   4.689   3.516   6.383  1.7723  0.5111  2.2699
 6679TIP3   OH241451   0.408   4.962   5.534  0.0322  0.0071 -0.3064
 6679TIP3    H141452   0.343   5.000   5.475  0.0561  0.4151 -0.0657
 6679TIP3    H241453   0.369   4.878   5.561 -1.7333  1.4865  2.1223
 6680TIP3   OH241454   2.549   1.160   2.935 -0.2184 -0.1471  0.2247
 6680TIP3    H141455   2.496   1.239   2.927  0.1456 -0.0221 -1.3106
 6680TIP3    H241456   2.605   1.161   2.857  1.2097 -0.8815  1.2024
 6681TIP3   OH241457   4.469   4.403   6.488  0.5544  0.8696 -0.3376
 6681TIP3    H141458   4.375   4.419   6.492  0.9243  3.2945 -0.0020
 6681TIP3    H241459   4.477   4.308   6.491 -1.7886  0.6483  1.3353
 6682TIP3   OH241460   1.703   3.959   5.730  0.5351 -0.5918  0.2824
 6682TIP3    H141461   1.690   4.004   5.814  0.4196  0.8272 -0.4595
 6682TIP3    H241462   1.699   3.866   5.751  0.4091 -0.2557  1.8329
 6683TIP3   OH241463   4.859   2.141  11.089 -0.2882  0.0213 -0.4614
 6683TIP3    H141464   4.858   2.081  11.164  0.4612  0.1456 -0.3495
 6683TIP3    H241465   4.777   2.122  11.043 -1.3075  0.6912  0.9728
 6684TIP3   OH241466   4.220   0.899  10.762 -0.0878 -0.3338  0.6533
 6684TIP3    H141467   4.257   0.867  10.680 -0.5952  1.5616 -0.3551
 6684TIP3    H241468   4.289   0.953  10.801 -0.0493 -0.7732  1.2142
 6685TIP3   OH241469   0.627   3.773   4.882  0.1837 -0.3426  0.2964
 6685TIP3    H141470   0.610   3.867   4.872 -0.3676 -0.4749 -0.0470
 6685TIP3    H241471   0.722   3.765   4.868  0.5068  0.3486  1.8759
 6686TIP3   OH241472   5.571   1.501   2.284  0.1255 -0.2075 -0.7605
 6686TIP3    H141473   5.533   1.422   2.322 -0.0346  0.2518  0.0571
 6686TIP3    H241474   5.514   1.572   2.315 -0.6160  0.0971 -2.6865
 6687TIP3   OH241475   6.494   6.025  10.623 -0.1810 -0.2030  0.0278
 6687TIP3    H141476   6.537   6.008  10.707 -0.7986 -0.8989  0.2123
 6687TIP3    H241477   6.565   6.052  10.564  0.1532  1.0845  0.9692
 6688TIP3   OH241478   5.173   0.154  16.485 -0.3243 -0.9380  0.3544
 6688TIP3    H141479   5.084   0.178  16.511 -0.2778 -0.6389  0.2383
 6688TIP3    H241480   5.161   0.079  16.427 -0.6978  0.6502 -1.7244
 6689TIP3   OH241481   5.657   3.570  10.397 -0.1750 -0.5013 -0.1808
 6689TIP3    H141482   5.641   3.663  10.415 -1.8028 -0.7042 -0.4316
 6689TIP3    H241483   5.723   3.544  10.460 -0.8288  0.4565  0.9324
 6690TIP3   OH241484   4.661   4.592   2.469  0.1738 -0.8924  0.1428
 6690TIP3    H141485   4.572   4.629   2.473 -0.3187 -1.3412 -3.3254
 6690TIP3    H241486   4.693   4.597   2.559 -2.2447  2.0092  1.0353
 6691TIP3   OH241487   1.220   1.307   4.181  0.6634 -0.2929  0.2678
 6691TIP3    H141488   1.258   1.361   4.111 -0.9522 -0.7304 -1.0185
 6691TIP3    H241489   1.229   1.217   4.149 -2.3507 -0.3783 -0.6989
 6692TIP3   OH241490   2.378   0.825  12.016  0.2183  0.4337 -0.1844
 6692TIP3    H141491   2.378   0.781  11.931 -0.8116  0.2592 -0.1131
 6692TIP3    H241492   2.288   0.813  12.049  0.5923  0.5202  0.9127
 6693TIP3   OH241493   4.886   2.814   4.339 -0.0680  0.2899  0.4795
 6693TIP3    H141494   4.935   2.758   4.400  1.1052  0.9806  0.2003
 6693TIP3    H241495   4.886   2.765   4.256  1.9105  1.1154 -0.0746
 6694TIP3   OH241496   5.750   5.219   2.783  0.2356 -0.3753  0.2149
 6694TIP3    H141497   5.767   5.142   2.838  1.8402  1.2725  2.1935
 6694TIP3    H241498   5.838   5.248   2.756 -0.2813  1.1385  0.0849
 6695TIP3   OH241499   2.876   4.256  15.904 -0.6740 -0.8872  0.4253
 6695TIP3    H141500   2.847   4.324  15.844  1.4125  0.2866  0.6492
 6695TIP3    H241501   2.863   4.294  15.991 -0.8213 -1.3526  0.6099
 6696TIP3   OH241502   2.231   5.538  15.569  0.2133  0.2844  0.3614
 6696TIP3    H141503   2.166   5.597  15.530 -0.1264 -0.2249  0.1365
 6696TIP3    H241504   2.311   5.590  15.574  0.8589 -0.1699 -2.9265
 6697TIP3   OH241505   3.682   6.077  12.983 -0.0549  0.5618  0.2404
 6697TIP3    H141506   3.651   5.990  12.961 -2.3485  0.6945  2.5201
 6697TIP3    H241507   3.740   6.101  12.910  0.0549 -2.5016 -0.8157
 6698TIP3   OH241508   6.564   1.126   5.473 -0.8286  0.3863  0.1260
 6698TIP3    H141509   6.578   1.219   5.487  0.5262  0.0889  0.9674
 6698TIP3    H241510   6.577   1.086   5.560  0.8461 -0.7943 -0.6011
 6699TIP3   OH241511   6.345   2.481   3.866 -0.1000  0.1477  0.2122
 6699TIP3    H141512   6.280   2.484   3.795  0.3830  0.9263 -0.2079
 6699TIP3    H241513   6.401   2.557   3.851  0.9894 -0.5730  0.5051
 6700TIP3   OH241514   5.267   3.692   5.854  0.5600 -0.2193  0.1920
 6700TIP3    H141515   5.174   3.714   5.857  0.9373  1.5229  0.1245
 6700TIP3    H241516   5.274   3.611   5.904 -0.8116  0.2980  1.2773
 6701TIP3   OH241517   4.956   0.177   5.742 -0.4941 -0.2182 -0.5607
 6701TIP3    H141518   4.998   0.238   5.803 -0.0612  0.7340 -1.7726
 6701TIP3    H241519   4.913   0.234   5.678 -0.6988 -1.1925 -1.3065
 6702TIP3   OH241520   2.927   5.394  13.472 -0.1364  0.6982  0.1432
 6702TIP3    H141521   3.010   5.364  13.435  0.0444  0.9297  0.3598
 6702TIP3    H241522   2.912   5.336  13.546 -1.2154 -0.7078 -1.1085
 6703TIP3   OH241523   3.542   4.961   5.570  0.3332  0.3365 -0.7414
 6703TIP3    H141524   3.565   4.983   5.480  2.8608 -1.1102 -0.5391
 6703TIP3    H241525   3.488   4.882   5.561  0.9273 -0.0531 -1.0087
 6704TIP3   OH241526   0.603   2.785  14.478 -1.4300  0.3642 -0.1510
 6704TIP3    H141527   0.679   2.774  14.422 -0.6419 -1.0641  1.1086
 6704TIP3    H241528   0.529   2.755  14.425 -1.2914  2.5745 -1.6835
 6705TIP3   OH241529   4.063   5.931  11.954  0.2958  0.4165 -0.3108
 6705TIP3    H141530   4.002   5.870  11.996  1.3392 -1.0150 -0.8138
 6705TIP3    H241531   4.009   6.007  11.932 -1.1815 -0.5584 -0.1999
 6706TIP3   OH241532   3.626   4.406   4.742  0.2056 -0.6939 -0.3009
 6706TIP3    H141533   3.619   4.311   4.749  1.1663 -0.9179 -1.8015
 6706TIP3    H241534   3.539   4.438   4.766  0.1242 -1.8656  1.1369
 6707TIP3   OH241535   2.998   4.512   3.815  0.0779  0.2381 -0.6387
 6707TIP3    H141536   3.059   4.445   3.844 -0.8238  0.1985  1.3296
 6707TIP3    H241537   3.045   4.595   3.825  0.2791  0.1033 -0.4862
 6708TIP3   OH241538   6.224   6.647   2.570  0.2221  0.1316  0.0419
 6708TIP3    H141539   6.292   6.639   2.637  0.1910  0.7782  0.1557
 6708TIP3    H241540   6.228   6.565   2.522  0.5841 -0.1365  0.5222
 6709TIP3   OH241541   0.725   3.359  16.627  0.4490  0.1865 -0.4391
 6709TIP3    H141542   0.728   3.345  16.532 -0.6660 -1.4702 -0.2675
 6709TIP3    H241543   0.686   3.279  16.662  1.5588  0.4382  1.5173
 6710TIP3   OH241544   3.133   4.577  16.306  0.4194  0.2356 -0.2513
 6710TIP3    H141545   3.184   4.496  16.298  0.6509  0.4483 -0.9844
 6710TIP3    H241546   3.075   4.576  16.230 -1.4433 -0.5163  1.1212
 6711TIP3   OH241547   1.710   1.384  16.461  0.2517  0.0592  0.1845
 6711TIP3    H141548   1.764   1.330  16.403  1.7745  0.1548  1.4573
 6711TIP3    H241549   1.773   1.437  16.511 -1.1358  2.4730 -0.4429
 6712TIP3   OH241550   2.722   1.572   6.042  0.1414 -0.1403  0.4910
 6712TIP3    H141551   2.720   1.477   6.040  1.8317 -0.1898 -1.2268
 6712TIP3    H241552   2.630   1.598   6.033 -0.2651 -1.5973  0.2213
 6713TIP3   OH241553   6.516   6.451  15.537 -0.2573  0.1182  0.6079
 6713TIP3    H141554   6.580   6.405  15.592  1.6428  0.9008 -0.8485
 6713TIP3    H241555   6.554   6.538  15.524 -1.5763  0.5690 -0.4239
 6714TIP3   OH241556   4.739   6.088   3.339 -0.2525  0.5339 -0.4502
 6714TIP3    H141557   4.699   6.029   3.403  1.1721  0.7030  0.6378
 6714TIP3    H241558   4.667   6.145   3.312 -1.0155  0.1118  0.5824
 6715TIP3   OH241559   4.745   4.686   5.757 -0.2085  0.2579 -0.1071
 6715TIP3    H141560   4.765   4.664   5.848  0.7091  0.4425 -0.2553
 6715TIP3    H241561   4.775   4.609   5.707 -2.0673 -0.5013 -0.1457
 6716TIP3   OH241562   2.944   4.486  13.701 -0.0977  0.1841  0.4243
 6716TIP3    H141563   2.996   4.557  13.662  0.6166 -0.7262 -0.3365
 6716TIP3    H241564   2.997   4.455  13.774  1.1451 -1.6277 -1.1487
 6717TIP3   OH241565   4.470   5.287  13.200  0.0259 -0.4296 -0.5840
 6717TIP3    H141566   4.381   5.319  13.193 -0.4984 -1.9438 -1.4470
 6717TIP3    H241567   4.517   5.327  13.127  0.3540  1.1584  0.4514
 6718TIP3   OH241568   1.750   5.373  15.070  0.4323  0.6408  0.4876
 6718TIP3    H141569   1.689   5.317  15.116 -0.1185  0.3368 -0.5713
 6718TIP3    H241570   1.825   5.382  15.129 -0.3814  0.5477  1.5543
 6719TIP3   OH241571   2.179   4.194  17.066 -0.0347  0.3368 -0.5123
 6719TIP3    H141572   2.214   4.229  17.148  1.3885 -0.2725 -0.8359
 6719TIP3    H241573   2.103   4.143  17.093 -0.9324  1.9725  0.1730
 6720TIP3   OH241574   0.629   2.142   1.776  0.0064  0.6057 -0.0679
 6720TIP3    H141575   0.554   2.197   1.751 -0.3526 -0.1371 -0.6681
 6720TIP3    H241576   0.676   2.194   1.841 -1.1063  1.0366  0.4291
 6721TIP3   OH241577   4.666   0.899   5.306  0.2498 -0.1507  0.0179
 6721TIP3    H141578   4.724   0.973   5.287  1.1039 -0.6372  0.6241
 6721TIP3    H241579   4.655   0.902   5.402  3.2003 -2.8314  0.5910
 6722TIP3   OH241580   2.504   0.764  12.307 -0.2357  0.9893  0.1377
 6722TIP3    H141581   2.468   0.768  12.218 -1.6973 -1.1290  0.5702
 6722TIP3    H241582   2.593   0.732  12.295 -1.0129 -1.0437 -0.4921
 6723TIP3   OH241583   6.019   6.069   1.076 -0.1439  0.4685  0.1188
 6723TIP3    H141584   6.016   6.115   1.160 -0.1330 -0.2069  0.4925
 6723TIP3    H241585   6.090   6.007   1.085  0.3755  0.9310 -0.6799
 6724TIP3   OH241586   2.230   5.015   5.434 -0.0602 -0.1113  0.2906
 6724TIP3    H141587   2.146   4.973   5.452 -1.1977  1.4092 -1.1583
 6724TIP3    H241588   2.251   4.989   5.344 -0.3548  1.6533 -0.3141
 6725TIP3   OH241589   3.227   5.908  16.642  0.1855  0.3116 -0.1619
 6725TIP3    H141590   3.184   5.823  16.637  1.2630 -0.2596  0.1363
 6725TIP3    H241591   3.183   5.961  16.575  0.0209 -0.7072 -0.8765
 6726TIP3   OH241592   6.695   6.405  13.396  0.0206 -0.0106  0.7872
 6726TIP3    H141593   6.620   6.391  13.453 -0.2519  1.8962  0.9772
 6726TIP3    H241594   6.713   6.320  13.357  0.0420 -1.3452  3.4923
 6727TIP3   OH241595   3.444   4.664   0.597 -0.1832 -0.2786 -0.0904
 6727TIP3    H141596   3.453   4.686   0.504  0.4136 -0.7032 -0.1444
 6727TIP3    H241597   3.480   4.575   0.604  1.0505  0.2475  0.7635
 6728TIP3   OH241598   4.455   5.551   1.340 -0.2859  0.0215 -0.2836
 6728TIP3    H141599   4.384   5.607   1.307 -0.3898 -0.4035 -0.8002
 6728TIP3    H241600   4.429   5.462   1.315  0.0844 -0.2132  0.1546
 6729TIP3   OH241601   5.936   2.934   2.138  0.2317  0.1629  0.3014
 6729TIP3    H141602   5.896   3.012   2.177  0.7636 -0.5597  2.4516
 6729TIP3    H241603   5.917   2.864   2.201 -0.2758 -1.4791 -1.6010
 6730TIP3   OH241604   3.359   6.018  11.829 -0.2473 -0.3070  0.8447
 6730TIP3    H141605   3.281   6.016  11.775  0.2890  2.6494 -0.2257
 6730TIP3    H241606   3.426   5.974  11.776 -0.1241  1.1567 -0.2871
 6731TIP3   OH241607   1.143   5.389  11.198 -0.7619  0.1685 -0.4527
 6731TIP3    H141608   1.097   5.307  11.179  0.3493 -0.1541 -1.8727
 6731TIP3    H241609   1.184   5.414  11.115 -0.0896  1.5449  0.2560
 6732TIP3   OH241610   2.384   6.093   6.645  0.3858 -0.0662 -0.3962
 6732TIP3    H141611   2.345   6.093   6.732 -0.5374 -2.3513 -0.7280
 6732TIP3    H241612   2.351   6.173   6.603 -0.8943 -0.0264  0.6338
 6733TIP3   OH241613   0.723   0.590   3.902  0.0960  0.1818 -0.4661
 6733TIP3    H141614   0.777   0.547   3.968 -3.0797 -0.9262  1.6203
 6733TIP3    H241615   0.698   0.673   3.943 -2.8507 -1.0168  0.3986
 6734TIP3   OH241616   3.711   4.167   4.348 -0.4604  0.4344 -0.5535
 6734TIP3    H141617   3.627   4.205   4.322 -0.2865  1.9882  0.9806
 6734TIP3    H241618   3.747   4.229   4.412  2.4806  0.5153 -2.0899
 6735TIP3   OH241619   4.764   2.721  10.522  0.5484  1.0028  0.1705
 6735TIP3    H141620   4.766   2.815  10.500  1.1080  1.0240  0.2924
 6735TIP3    H241621   4.849   2.688  10.492 -0.0391  0.3214 -0.7954
 6736TIP3   OH241622   0.836   4.232   4.726 -0.0077 -0.0775  0.2461
 6736TIP3    H141623   0.901   4.223   4.656 -1.5300  0.5378 -1.3167
 6736TIP3    H241624   0.887   4.257   4.802  1.6214  0.1240 -0.8480
 6737TIP3   OH241625   0.140   4.806   1.266 -0.4541  0.4509  0.1123
 6737TIP3    H141626   0.166   4.885   1.315  0.3205  1.6171 -2.0667
 6737TIP3    H241627   0.076   4.837   1.202 -0.5610 -0.8030 -0.4093
 6738TIP3   OH241628   4.429   3.977   4.009 -0.1102  0.1722  0.0905
 6738TIP3    H141629   4.442   4.056   4.062  0.1050  2.1084 -2.6222
 6738TIP3    H241630   4.352   3.935   4.046 -1.5818  2.8645  0.3475
 6739TIP3   OH241631   6.230   4.896   2.130  0.1359  0.0765  0.5893
 6739TIP3    H141632   6.301   4.837   2.153 -1.6682 -1.4203  2.7262
 6739TIP3    H241633   6.261   4.983   2.155  1.0397 -0.6149  1.9632
 6740TIP3   OH241634   5.453   2.179   2.076 -0.0415  0.6342  0.2029
 6740TIP3    H141635   5.392   2.121   2.030  0.7291  0.2455 -0.3456
 6740TIP3    H241636   5.399   2.224   2.141 -0.7129 -0.4325  0.3999
 6741TIP3   OH241637   2.415   6.303   3.748  0.1657 -0.0580  0.0620
 6741TIP3    H141638   2.390   6.269   3.834  1.6306 -0.8065  0.2173
 6741TIP3    H241639   2.501   6.264   3.731  0.6795  1.4636 -0.9787
 6742TIP3   OH241640   5.731   1.660   2.641 -0.0250 -0.6360 -0.4801
 6742TIP3    H141641   5.653   1.668   2.695 -0.3220  0.7255 -1.0736
 6742TIP3    H241642   5.738   1.744   2.597  3.0378  0.1244  1.2172
 6743TIP3   OH241643   4.689   3.333   1.312 -0.3300  0.1163 -1.3509
 6743TIP3    H141644   4.686   3.240   1.332 -0.7254  0.8485  2.7064
 6743TIP3    H241645   4.604   3.367   1.340  1.5904  2.4213  2.4234
 6744TIP3   OH241646   3.420   6.704  12.905 -0.3511 -0.4585  0.6303
 6744TIP3    H141647   3.378   6.634  12.954 -0.8473  0.2656  1.2778
 6744TIP3    H241648   3.498   6.725  12.956  0.3377 -1.2231 -0.1082
 6745TIP3   OH241649   5.407   3.578   2.592 -0.4429 -0.1623 -0.1083
 6745TIP3    H141650   5.339   3.642   2.609  0.2497  0.2429  1.3003
 6745TIP3    H241651   5.368   3.494   2.618 -0.9958 -0.1868 -0.9846
 6746TIP3   OH241652   6.565   3.011   4.130 -0.1409  0.3594  0.2480
 6746TIP3    H141653   6.492   2.950   4.138 -1.1852  1.7769  2.7747
 6746TIP3    H241654   6.549   3.057   4.047 -1.4742 -0.1201  0.2217
 6747TIP3   OH241655   0.284   2.546  17.010 -0.7417  0.2283 -0.0583
 6747TIP3    H141656   0.203   2.597  17.015 -1.2202 -0.5327  0.1018
 6747TIP3    H241657   0.276   2.495  16.929 -0.5362 -0.0396  0.0868
 6748TIP3   OH241658   4.834   5.556   1.603  1.2763  0.1805 -0.0944
 6748TIP3    H141659   4.839   5.465   1.575  0.5166 -0.9087  2.8727
 6748TIP3    H241660   4.750   5.587   1.569  0.5611 -0.9423  0.5796
 6749TIP3   OH241661   0.043   1.691   5.165  0.0446 -0.0448 -0.4401
 6749TIP3    H141662  -0.011   1.642   5.102  0.4392  0.6272 -1.3290
 6749TIP3    H241663   0.078   1.764   5.114 -1.0579  1.5644  1.0267
 6750TIP3   OH241664   5.713   2.624  16.193 -0.6456 -0.6347 -0.0180
 6750TIP3    H141665   5.650   2.572  16.243  1.6534 -1.2176  2.5024
 6750TIP3    H241666   5.758   2.560  16.138 -2.1186 -0.2184 -1.8185
 6751TIP3   OH241667   3.479   5.127   3.390 -0.0523  0.3004  0.1129
 6751TIP3    H141668   3.414   5.160   3.452  0.1231 -0.8407  0.9528
 6751TIP3    H241669   3.561   5.130   3.439 -0.2270 -2.5296  0.7503
 6752TIP3   OH241670   5.483   0.381  13.560 -0.0946 -0.6487 -0.1203
 6752TIP3    H141671   5.428   0.411  13.487  0.5735 -1.7960 -1.1326
 6752TIP3    H241672   5.573   0.389  13.526  0.2378 -0.9889  0.6656
 6753TIP3   OH241673   5.270   1.665   2.111  0.2656  0.4869  0.2362
 6753TIP3    H141674   5.361   1.679   2.087  0.2272  0.8034  0.2714
 6753TIP3    H241675   5.251   1.734   2.175 -0.3760  1.2217 -0.7249
 6754TIP3   OH241676   0.773   6.320   5.069  0.4842 -0.5210 -0.0380
 6754TIP3    H141677   0.858   6.340   5.106  0.4479 -0.4221 -0.0083
 6754TIP3    H241678   0.777   6.353   4.979  0.2492  0.0841  0.1654
 6755TIP3   OH241679   0.259   3.072   1.983  0.4167  0.6407  0.1192
 6755TIP3    H141680   0.254   2.981   2.010  0.6160  0.6762  0.2806
 6755TIP3    H241681   0.173   3.109   2.005 -0.1467  0.1578 -1.1885
 6756TIP3   OH241682   3.096   3.439  15.693  0.6400  0.3065  0.1906
 6756TIP3    H141683   3.164   3.505  15.708  2.5096 -0.9719 -2.1403
 6756TIP3    H241684   3.032   3.483  15.637  0.1688  1.0719  1.2723
 6757TIP3   OH241685   4.210   0.090   2.573 -0.3113  0.4502  0.2899
 6757TIP3    H141686   4.121   0.118   2.593 -0.5775  0.0651 -0.3295
 6757TIP3    H241687   4.266   0.153   2.618 -0.8942  0.5649  0.8685
 6758TIP3   OH241688   0.299   4.652   5.980 -0.4294 -0.2499 -0.8116
 6758TIP3    H141689   0.368   4.659   6.047  0.4587  0.5851 -1.7789
 6758TIP3    H241690   0.226   4.609   6.025  0.7175 -1.1579  0.2357
 6759TIP3   OH241691   3.220   6.247   5.240 -0.3887  0.5912 -0.1590
 6759TIP3    H141692   3.201   6.153   5.230 -1.0543  0.8083 -1.1305
 6759TIP3    H241693   3.192   6.268   5.329  0.1778 -0.2177  0.2238
 6760TIP3   OH241694   1.614   5.884   3.470 -0.1970  0.6970 -0.2799
 6760TIP3    H141695   1.586   5.793   3.484  1.0975  0.4251  0.7755
 6760TIP3    H241696   1.533   5.931   3.449 -1.1369 -0.4104  0.6771
 6761TIP3   OH241697   1.779   4.736  14.704 -0.4474 -0.4000 -0.4252
 6761TIP3    H141698   1.737   4.686  14.635  1.2353 -1.9245 -0.4206
 6761TIP3    H241699   1.760   4.688  14.784 -1.5701  0.8258  0.0777
 6762TIP3   OH241700   6.162   4.889  13.707 -0.0275  0.2652  0.3161
 6762TIP3    H141701   6.092   4.953  13.699 -1.8172 -1.7762 -1.7195
 6762TIP3    H241702   6.117   4.807  13.730  2.0875 -0.4861  2.1495
 6763TIP3   OH241703   0.715   5.056   4.717 -0.2322 -0.1169  0.3232
 6763TIP3    H141704   0.646   5.026   4.776 -0.3412  1.2682  0.9315
 6763TIP3    H241705   0.689   5.023   4.631 -1.8645  0.6939  0.4676
 6764TIP3   OH241706   0.415   1.115  11.630 -0.1138  0.3258  0.7835
 6764TIP3    H141707   0.355   1.100  11.557  0.6299  0.0624  0.2122
 6764TIP3    H241708   0.465   1.192  11.605  1.7042 -1.0538 -0.0704
 6765TIP3   OH241709   3.617   2.618   6.605  0.1063 -0.6904 -0.4411
 6765TIP3    H141710   3.597   2.594   6.515 -0.5501 -2.7459  0.2113
 6765TIP3    H241711   3.539   2.596   6.655  0.6141  0.0081  0.7253
 6766TIP3   OH241712   5.387   1.754   3.283 -0.1930 -0.2131 -0.2877
 6766TIP3    H141713   5.346   1.686   3.336  1.6859 -0.3151  1.1471
 6766TIP3    H241714   5.428   1.708   3.210 -3.6396  0.0167 -2.6071
 6767TIP3   OH241715   0.606   3.778  16.795  0.4255  0.0154  0.1704
 6767TIP3    H141716   0.576   3.733  16.717  2.6027 -1.3887  0.0517
 6767TIP3    H241717   0.531   3.832  16.823 -0.9706 -0.7790 -1.8489
 6768TIP3   OH241718   6.576   4.848   3.243 -0.0106  0.1923 -0.7496
 6768TIP3    H141719   6.635   4.866   3.315  0.0284  0.7274 -0.9126
 6768TIP3    H241720   6.505   4.912   3.253  0.6320  1.1333 -1.9058
 6769TIP3   OH241721   2.945   6.031  14.835 -0.0464 -0.3784 -0.0888
 6769TIP3    H141722   2.976   5.965  14.898  0.1009  1.9939  2.5163
 6769TIP3    H241723   3.021   6.050  14.781  0.9947  0.1554  1.4862
 6770TIP3   OH241724   6.006   4.506   4.051 -0.8647 -0.0330 -0.2336
 6770TIP3    H141725   5.951   4.468   3.983 -0.0625  0.8237 -1.4122
 6770TIP3    H241726   5.967   4.592   4.067 -0.7414 -0.0191 -0.0144
 6771TIP3   OH241727   5.146   4.773   6.330 -0.3549  0.1795  0.1584
 6771TIP3    H141728   5.114   4.839   6.269 -1.3116  0.2401  0.7161
 6771TIP3    H241729   5.177   4.823   6.405  0.2427  0.0641  0.0018
 6772TIP3   OH241730   0.176   6.413  16.992  0.3582  0.4184  0.2672
 6772TIP3    H141731   0.245   6.472  16.962  0.0580  1.6166  1.7751
 6772TIP3    H241732   0.106   6.423  16.927  1.1548  0.0113 -0.6839
 6773TIP3   OH241733   0.361   3.922   6.264 -0.7292 -0.1299 -0.5479
 6773TIP3    H141734   0.307   3.852   6.298  0.1200 -0.6955 -0.3357
 6773TIP3    H241735   0.336   3.999   6.314 -1.6500 -0.2774 -0.7682
 6774TIP3   OH241736   4.551   6.335  15.297 -0.1515 -0.2182  0.0335
 6774TIP3    H141737   4.510   6.316  15.381 -0.3626  0.4748  0.0870
 6774TIP3    H241738   4.559   6.430  15.294  0.6216 -0.2877 -0.3726
 6775TIP3   OH241739   2.491   6.686  16.674  0.4469  0.1079 -0.1538
 6775TIP3    H141740   2.527   6.772  16.696  0.5185  0.0572 -0.0662
 6775TIP3    H241741   2.561   6.625  16.698 -0.4860 -0.1776  2.1176
 6776TIP3   OH241742   5.432   4.449   1.651 -0.1163  0.0881 -0.0399
 6776TIP3    H141743   5.387   4.501   1.584 -1.1397  1.0061  1.2964
 6776TIP3    H241744   5.391   4.362   1.645 -1.7274  0.7434  0.7531
 6777TIP3   OH241745   0.577   2.383  12.167  0.0161  0.2160 -0.5651
 6777TIP3    H141746   0.633   2.306  12.173 -0.6434 -0.2982 -0.9385
 6777TIP3    H241747   0.637   2.454  12.145  0.4724 -0.4049 -1.3577
 6778TIP3   OH241748   0.781   0.202   5.855 -0.5163 -0.0395 -0.0288
 6778TIP3    H141749   0.772   0.186   5.949  0.0049  0.1943  0.0662
 6778TIP3    H241750   0.813   0.292   5.849 -0.7312  0.0125 -0.4407
 6779TIP3   OH241751   5.670   0.194  15.044  0.3602  0.0374  0.2842
 6779TIP3    H141752   5.699   0.273  14.998  2.8696  1.4741  3.8503
 6779TIP3    H241753   5.742   0.132  15.032 -0.5963 -0.9233 -0.6363
 6780TIP3   OH241754   2.839   3.787   4.986  0.1272 -0.5994 -0.5221
 6780TIP3    H141755   2.807   3.701   4.961  0.2262 -0.9799  0.6359
 6780TIP3    H241756   2.912   3.770   5.045  1.0982  0.2701 -1.4126
 6781TIP3   OH241757   0.310   5.123  11.829  0.1621 -0.2642  0.4372
 6781TIP3    H141758   0.235   5.116  11.770  0.5493  0.9557 -0.2536
 6781TIP3    H241759   0.276   5.168  11.906 -0.2927 -1.6596  1.0874
 6782TIP3   OH241760   1.047   1.308  14.735 -0.0455 -0.2078  0.5111
 6782TIP3    H141761   0.958   1.309  14.701 -0.7047  0.3453  2.1661
 6782TIP3    H241762   1.099   1.354  14.668 -0.6188 -2.0835 -1.3130
 6783TIP3   OH241763   0.197   4.086  11.303 -0.0047 -0.2915 -0.0157
 6783TIP3    H141764   0.204   4.003  11.257  0.9913 -0.9111  1.2057
 6783TIP3    H241765   0.267   4.084  11.368  0.9517  2.0847 -0.8469
 6784TIP3   OH241766   4.614   3.428   5.570 -0.2602 -0.1139  0.0750
 6784TIP3    H141767   4.693   3.451   5.520  0.2706 -1.2339  0.3597
 6784TIP3    H241768   4.551   3.497   5.548  0.3578  0.0864 -1.1894
 6785TIP3   OH241769   1.005   2.934   2.273 -0.6828 -0.7936 -0.7616
 6785TIP3    H141770   1.078   2.965   2.219 -0.9927  2.8376  0.6351
 6785TIP3    H241771   0.932   2.925   2.211 -0.0996 -0.3591 -1.5273
 6786TIP3   OH241772   3.748   3.333  11.882 -0.0012 -0.3915  0.3172
 6786TIP3    H141773   3.796   3.330  11.964 -2.3783 -0.9586  1.8119
 6786TIP3    H241774   3.742   3.426  11.861  1.1520 -0.2783  0.4261
 6787TIP3   OH241775   2.665   4.710  14.381  0.5251  0.5458 -0.3201
 6787TIP3    H141776   2.613   4.657  14.442 -1.0874 -0.1713 -2.1952
 6787TIP3    H241777   2.673   4.655  14.303  2.4218  1.4706 -0.8530
 6788TIP3   OH241778   1.100   0.161   1.407  0.1719 -0.5229  0.5238
 6788TIP3    H141779   1.083   0.255   1.413  0.2070  0.0239 -4.2772
 6788TIP3    H241780   1.042   0.130   1.338 -0.6156 -4.4103  2.6260
 6789TIP3   OH241781   3.588   2.522  16.003 -0.1283  0.3293  0.2442
 6789TIP3    H141782   3.573   2.617  16.005  1.3716  0.5908  0.2076
 6789TIP3    H241783   3.671   2.511  15.957  0.3027 -0.9171  1.2409
 6790TIP3   OH241784   2.550   6.378   4.438 -0.0008 -0.1925  0.1736
 6790TIP3    H141785   2.460   6.391   4.410  0.2741  0.3681 -0.4927
 6790TIP3    H241786   2.585   6.467   4.448  1.0880 -0.3624 -1.6399
 6791TIP3   OH241787   1.607   2.235   5.176 -0.0405 -0.5503 -0.0690
 6791TIP3    H141788   1.577   2.144   5.180  0.0317 -0.5428  1.5555
 6791TIP3    H241789   1.686   2.236   5.230 -0.5075  0.6294  0.6305
 6792TIP3   OH241790   4.335   2.274   0.452  0.2601  0.0157  0.2329
 6792TIP3    H141791   4.333   2.181   0.430 -2.0492 -0.3356  1.6203
 6792TIP3    H241792   4.279   2.282   0.528 -3.1085  3.1152 -2.2148
 6793TIP3   OH241793   6.715   2.324   1.198  0.5277  0.0106 -0.4078
 6793TIP3    H141794   6.703   2.362   1.285  0.6727  2.4077 -1.3674
 6793TIP3    H241795   6.627   2.299   1.170  0.2859  0.5683 -0.1507
 6794TIP3   OH241796   2.365   4.301   0.703 -0.0694  0.0240  0.8452
 6794TIP3    H141797   2.442   4.352   0.727 -1.5624  1.9018  1.9006
 6794TIP3    H241798   2.366   4.227   0.764  1.7542 -0.9209 -0.2551
 6795TIP3   OH241799   2.856   0.055   1.287  0.3266 -0.0466  0.0654
 6795TIP3    H141800   2.786   0.019   1.341  0.7662  0.6144  1.1223
 6795TIP3    H241801   2.815   0.124   1.236 -0.1131 -0.7342 -0.5323
 6796TIP3   OH241802   1.524   4.780   2.825  0.1034 -0.1435  0.0638
 6796TIP3    H141803   1.468   4.721   2.775  0.5170  0.5405 -1.2528
 6796TIP3    H241804   1.610   4.740   2.823  0.3421  0.3821 -0.6647
 6797TIP3   OH241805   5.001   5.499  11.081 -0.6071  0.0846  0.1463
 6797TIP3    H141806   5.017   5.582  11.035  2.4759 -0.3789  0.1372
 6797TIP3    H241807   4.908   5.482  11.068 -0.7785  2.1735 -2.2090
 6798TIP3   OH241808   0.143   1.854  13.419  0.6578 -0.0415  0.1515
 6798TIP3    H141809   0.180   1.826  13.502 -1.8847  0.2475  1.4654
 6798TIP3    H241810   0.186   1.938  13.401 -0.5281  1.1684  2.5280
 6799TIP3   OH241811   5.781   6.608  11.356 -0.1978  0.6985  0.3495
 6799TIP3    H141812   5.860   6.657  11.332  0.8075 -0.9577  0.1649
 6799TIP3    H241813   5.716   6.635  11.291  0.4589  1.4529 -0.0126
 6800TIP3   OH241814   1.710   1.047  16.327 -0.9756 -0.3817  0.0337
 6800TIP3    H141815   1.651   1.059  16.401  0.4583 -0.0093  1.1741
 6800TIP3    H241816   1.693   1.121  16.270 -1.8642 -0.4906  0.1479
 6801TIP3   OH241817   1.407   6.448   5.082  0.1133  0.1992  0.0679
 6801TIP3    H141818   1.477   6.392   5.116  1.5018  1.5084 -0.5114
 6801TIP3    H241819   1.376   6.497   5.159  1.9075  1.7397 -0.1197
 6802TIP3   OH241820   6.020   0.380   4.075  0.3842 -0.9411  0.3771
 6802TIP3    H141821   6.083   0.437   4.030  1.6422 -1.0958  1.8811
 6802TIP3    H241822   5.992   0.430   4.151 -1.4247 -0.8511 -0.2851
 6803TIP3   OH241823   0.069   0.004  14.872  0.6777  0.3239  0.7801
 6803TIP3    H141824   0.006  -0.028  14.808 -2.0753  2.5870  2.1292
 6803TIP3    H241825   0.135  -0.065  14.877  0.4714 -0.4818 -3.5227
 6804TIP3   OH241826   6.720   5.448  12.030 -0.0297  0.2303  0.0044
 6804TIP3    H141827   6.625   5.453  12.019 -0.4658 -0.4179  2.6757
 6804TIP3    H241828   6.737   5.494  12.112  1.5768 -1.9576  1.0061
 6805TIP3   OH241829   1.284   2.042   5.574  0.3740 -0.1687 -0.6576
 6805TIP3    H141830   1.219   2.084   5.518  3.0561  2.3583 -2.1458
 6805TIP3    H241831   1.321   1.972   5.519 -0.5403 -1.1260 -0.0783
 6806TIP3   OH241832   5.111   2.080  10.900  0.6124 -0.1502 -0.0019
 6806TIP3    H141833   5.035   2.092  10.957  1.7947 -0.0460  1.6241
 6806TIP3    H241834   5.094   2.136  10.824  0.1902  1.8106  1.4789
 6807TIP3   OH241835   0.920   2.403  14.954 -0.3394  0.2219  0.2441
 6807TIP3    H141836   0.826   2.420  14.959 -1.2320 -3.9634  1.3825
 6807TIP3    H241837   0.938   2.345  15.028  2.8333 -0.4577 -0.8961
 6808TIP3   OH241838   4.581   2.470  14.071  0.3676 -0.2821 -0.4280
 6808TIP3    H141839   4.538   2.513  13.998 -1.3624 -0.9681  0.1171
 6808TIP3    H241840   4.635   2.402  14.031  0.8557  0.5089 -1.1366
 6809TIP3   OH241841   3.658   3.339   0.921 -0.7288 -0.3486 -0.5299
 6809TIP3    H141842   3.676   3.432   0.902 -2.7144 -0.0121 -0.9375
 6809TIP3    H241843   3.672   3.295   0.838  0.2617 -0.4562 -0.3258
 6810TIP3   OH241844   2.485   2.878   0.748  0.7440  0.6049 -0.1189
 6810TIP3    H141845   2.552   2.904   0.812 -0.9517 -0.2905  2.1276
 6810TIP3    H241846   2.532   2.818   0.689  1.6055 -1.5988  2.5490
 6811TIP3   OH241847   2.659   6.750  14.373  0.1363 -0.7525 -0.1917
 6811TIP3    H141848   2.677   6.827  14.428  0.0069 -0.5162 -0.4735
 6811TIP3    H241849   2.672   6.781  14.284 -1.8290 -0.4957 -0.4324
 6812TIP3   OH241850   3.845   5.527  12.304  0.4960 -0.3641 -0.8767
 6812TIP3    H141851   3.902   5.558  12.233  0.0280  0.3480 -0.9483
 6812TIP3    H241852   3.793   5.604  12.328 -0.3769 -0.9848 -0.7534
 6813TIP3   OH241853   4.523   6.190   3.733  0.0279 -0.2271 -0.1572
 6813TIP3    H141854   4.518   6.153   3.821 -0.2892  0.7606  0.2431
 6813TIP3    H241855   4.453   6.254   3.729  1.6156  1.5940 -0.2497
 6814TIP3   OH241856   4.413   2.323  15.017  0.3882  0.5344  0.8022
 6814TIP3    H141857   4.502   2.303  15.048  0.6442  1.6010  0.7864
 6814TIP3    H241858   4.408   2.282  14.931  2.0610  3.1622 -0.6831
 6815TIP3   OH241859   3.972   2.299   5.402 -0.5566  0.0938  0.6832
 6815TIP3    H141860   3.904   2.329   5.462  0.3721 -0.1765  1.9166
 6815TIP3    H241861   4.006   2.218   5.442 -0.5670 -0.6299 -0.7098
 6816TIP3   OH241862   2.401   0.607  12.526  0.2239  0.0227  0.1970
 6816TIP3    H141863   2.443   0.662  12.461 -1.1420 -0.0040 -0.7470
 6816TIP3    H241864   2.320   0.653  12.549 -1.2949 -1.8309 -1.1045
 6817TIP3   OH241865   6.544   0.192  11.324  0.1658  0.4173 -0.1535
 6817TIP3    H141866   6.530   0.103  11.291  2.2591 -0.3747  0.9180
 6817TIP3    H241867   6.603   0.233  11.262  0.5721  0.4537  0.2491
 6818TIP3   OH241868   0.066   3.649   0.991  0.5424 -0.8135 -0.0362
 6818TIP3    H141869  -0.016   3.698   0.985  0.2280 -1.3999 -0.7309
 6818TIP3    H241870   0.048   3.580   1.055  0.4105 -1.0939 -0.3743
 6819TIP3   OH241871   0.276   3.904   5.830 -0.4921 -0.0066 -0.0139
 6819TIP3    H141872   0.249   3.906   5.738 -0.7445 -0.0172  0.0584
 6819TIP3    H241873   0.258   3.814   5.858 -1.1516  0.2024  0.2614
 6820TIP3   OH241874   5.967   2.955   1.707 -0.1946 -0.1144  0.2220
 6820TIP3    H141875   5.925   2.917   1.784  2.5585 -1.6747  1.0786
 6820TIP3    H241876   5.897   3.004   1.664 -2.2823 -0.6792  2.7044
 6821TIP3   OH241877   2.879   0.883   0.199  0.0556 -0.0703  0.3314
 6821TIP3    H141878   2.816   0.820   0.164  0.2380 -0.1872  0.2151
 6821TIP3    H241879   2.837   0.968   0.186  0.4543 -0.0388 -0.9147
 6822TIP3   OH241880   6.308   2.019   0.025  0.2054  0.1872 -0.1612
 6822TIP3    H141881   6.353   1.935   0.024  0.0764  0.0331  2.0909
 6822TIP3    H241882   6.377   2.084   0.041  0.2889  0.5372 -1.7719
 6823TIP3   OH241883   5.049   4.248   2.900 -0.4519  0.0481 -0.6603
 6823TIP3    H141884   4.961   4.285   2.903 -0.2932  0.3893 -0.1488
 6823TIP3    H241885   5.039   4.166   2.851 -1.1733 -0.2506 -0.0310
 6824TIP3   OH241886   4.953   6.485  11.841 -0.0083 -0.3124  0.5699
 6824TIP3    H141887   5.035   6.437  11.855  1.0102  1.0755 -0.3678
 6824TIP3    H241888   4.885   6.418  11.847  1.3708 -1.9507 -0.9765
 6825TIP3   OH241889   1.285   1.195  14.062  0.1048 -0.2741 -0.5073
 6825TIP3    H141890   1.248   1.150  13.987  1.1920 -1.5975 -0.2982
 6825TIP3    H241891   1.262   1.140  14.137 -0.8536  0.9568  0.1315
 6826TIP3   OH241892   3.248   2.003  15.442 -0.2026 -0.6473 -0.2241
 6826TIP3    H141893   3.239   2.031  15.351  1.0131 -3.4591 -1.2990
 6826TIP3    H241894   3.158   2.000  15.475 -0.5991  1.2619 -0.9940
 6827TIP3   OH241895   1.768   3.099  10.633 -0.2145 -0.4576 -0.4639
 6827TIP3    H141896   1.753   3.009  10.661 -0.0213 -0.5964 -0.7946
 6827TIP3    H241897   1.732   3.103  10.544  0.3983 -0.4069 -0.7184
 6828TIP3   OH241898   5.871   1.230  17.135  0.2275 -0.5484 -0.1992
 6828TIP3    H141899   5.965   1.211  17.142 -0.0463 -2.0619 -0.1043
 6828TIP3    H241900   5.866   1.307  17.079  1.6666  1.5289  2.3430
 6829TIP3   OH241901   4.230   0.783  17.044 -0.2462  0.7001 -0.0923
 6829TIP3    H141902   4.206   0.805  16.954 -0.0017 -2.5757 -1.0959
 6829TIP3    H241903   4.149   0.750  17.083  0.2212 -0.4379 -0.0412
 6830TIP3   OH241904   0.768   2.816   2.155  0.3751 -0.2832 -0.4599
 6830TIP3    H141905   0.750   2.751   2.224 -1.0740  1.7035  1.1709
 6830TIP3    H241906   0.684   2.859   2.141  0.8994  0.1233 -2.7681
 6831TIP3   OH241907   1.984   2.586  15.480 -0.1113  1.0165 -0.2757
 6831TIP3    H141908   2.025   2.637  15.550 -1.4691  0.6851  0.8235
 6831TIP3    H241909   1.959   2.504  15.522 -0.0602  0.3974 -1.4229
 6832TIP3   OH241910   3.235   6.536   1.380 -0.0255 -0.3151  0.3186
 6832TIP3    H141911   3.230   6.578   1.294 -0.4884 -1.6734 -0.3634
 6832TIP3    H241912   3.143   6.526   1.407  0.1137 -0.0123  0.9167
 6833TIP3   OH241913   3.613   0.954   3.303 -0.8472  0.1713  0.1372
 6833TIP3    H141914   3.647   0.935   3.390 -0.1959  0.8472  0.0380
 6833TIP3    H241915   3.571   1.039   3.311  0.9684  1.1894 -0.6481
 6834TIP3   OH241916   0.843   1.395  12.312  0.0271 -0.1399 -0.3137
 6834TIP3    H141917   0.852   1.301  12.301  0.3846 -0.2129  0.5673
 6834TIP3    H241918   0.881   1.432  12.232  1.7422 -0.6836  0.2071
 6835TIP3   OH241919   6.747   4.470  13.170  0.1291 -0.2106  0.2200
 6835TIP3    H141920   6.781   4.392  13.214 -1.4057 -0.7333  0.5694
 6835TIP3    H241921   6.823   4.509  13.127  1.2621 -0.9197  1.4949
 6836TIP3   OH241922   6.426   0.163  16.392  0.0944 -0.5147  0.4245
 6836TIP3    H141923   6.384   0.249  16.400  1.2341  0.2291 -1.0985
 6836TIP3    H241924   6.470   0.166  16.307  1.9170 -1.8281  1.2620
 6837TIP3   OH241925   5.311   5.844  14.916  0.2677  0.8744  0.0831
 6837TIP3    H141926   5.257   5.886  14.849 -0.5358 -1.0539 -0.5774
 6837TIP3    H241927   5.248   5.807  14.978  0.8072 -0.6132 -0.1982
 6838TIP3   OH241928   1.322   0.013   4.784  0.3025 -0.3693  0.1524
 6838TIP3    H141929   1.344  -0.080   4.782  2.7165  0.0945 -3.1543
 6838TIP3    H241930   1.405   0.057   4.803 -0.1783  1.1474 -1.0608
 6839TIP3   OH241931   1.795   6.138  11.981  0.1663 -0.0686  0.1642
 6839TIP3    H141932   1.744   6.215  11.956  0.8302  0.0674 -0.8256
 6839TIP3    H241933   1.745   6.098  12.053 -1.7110 -0.3421 -1.2180
 6840TIP3   OH241934   1.817   5.771   3.928 -0.0094 -0.1117 -0.0269
 6840TIP3    H141935   1.802   5.677   3.934 -1.7427  0.1049 -0.6512
 6840TIP3    H241936   1.880   5.781   3.857 -1.8883 -0.6526 -1.8442
 6841TIP3   OH241937   4.325   1.596   0.600 -0.1503  0.1116  0.7031
 6841TIP3    H141938   4.318   1.541   0.679  0.0355 -0.5992  0.2389
 6841TIP3    H241939   4.390   1.551   0.546 -1.1504 -0.0658 -0.3801
 6842TIP3   OH241940   5.227   6.385  11.892 -0.1478  0.2213  0.3401
 6842TIP3    H141941   5.252   6.477  11.893 -0.0201  0.2499 -1.5526
 6842TIP3    H241942   5.250   6.355  11.804 -2.9754 -0.8450 -0.1376
 6843TIP3   OH241943   0.226   5.858   0.043 -0.2914 -0.2340 -0.0171
 6843TIP3    H141944   0.230   5.777  -0.008 -0.7661  0.1141 -0.6241
 6843TIP3    H241945   0.134   5.867   0.066 -0.3464  0.4755 -0.5134
 6844TIP3   OH241946   4.328   5.751  12.772 -0.4429 -1.1211 -0.7696
 6844TIP3    H141947   4.415   5.714  12.788 -0.5553 -1.4701 -0.9719
 6844TIP3    H241948   4.283   5.686  12.719  0.0762  0.1880 -2.9164
 6845TIP3   OH241949   2.567   6.691   4.944 -0.1760 -0.0499  0.1539
 6845TIP3    H141950   2.615   6.633   4.885  1.0475 -0.0431  1.0891
 6845TIP3    H241951   2.604   6.778   4.928 -0.1648  0.0285  0.5927
 6846TIP3   OH241952   5.368   2.166   1.665 -0.0872 -0.1951  0.4833
 6846TIP3    H141953   5.418   2.138   1.588 -2.5643 -0.4741 -1.1373
 6846TIP3    H241954   5.410   2.121   1.738  1.8117 -0.6371 -0.8050
 6847TIP3   OH241955   0.576   1.939   4.750  0.1445 -0.1672  0.1805
 6847TIP3    H141956   0.565   2.034   4.751  1.3522  0.0172 -1.0792
 6847TIP3    H241957   0.593   1.916   4.841  0.7546  0.9512  0.3661
 6848TIP3   OH241958   1.929   4.021   0.953  0.2667 -0.0721  0.0492
 6848TIP3    H141959   1.883   4.023   1.037 -0.2382  0.5020 -0.2293
 6848TIP3    H241960   1.865   3.984   0.892  0.7806 -0.9004 -0.0051
 6849TIP3   OH241961   6.599   4.534   5.442  0.2397  0.4052 -0.2152
 6849TIP3    H141962   6.563   4.549   5.354  0.9813  2.1649 -0.2559
 6849TIP3    H241963   6.694   4.538   5.430  0.3490  2.5114  0.9114
 6850TIP3   OH241964   0.500   2.576   3.554  0.2832 -0.3468  0.1647
 6850TIP3    H141965   0.505   2.635   3.479  1.7342 -0.3303  0.2542
 6850TIP3    H241966   0.419   2.527   3.540 -0.2470  0.7050 -0.6140
 6851TIP3   OH241967   0.094   3.466   6.575 -0.4446  0.0078  0.0070
 6851TIP3    H141968   0.184   3.442   6.553  0.1616  1.4337  0.8042
 6851TIP3    H241969   0.080   3.550   6.532 -1.3397 -0.1354  0.0134
 6852TIP3   OH241970   0.501   1.361   2.862 -0.0695 -0.9129  0.2657
 6852TIP3    H141971   0.488   1.287   2.922  0.4903 -1.3771 -0.1773
 6852TIP3    H241972   0.539   1.430   2.917 -0.9757 -0.8004  0.7704
 6853TIP3   OH241973   5.319   0.693  11.975  0.1791  0.6580  0.0109
 6853TIP3    H141974   5.341   0.785  11.968  1.4500  0.5061  1.4609
 6853TIP3    H241975   5.240   0.683  11.923  0.6827  2.3163 -1.1493
 6854TIP3   OH241976   5.990   4.001   1.442 -0.0465  0.0991 -0.0957
 6854TIP3    H141977   6.044   3.971   1.515  0.7291 -0.4084 -0.8546
 6854TIP3    H241978   6.036   4.078   1.409 -2.1198  2.4251  1.9614
 6855TIP3   OH241979   2.579   0.279  16.317 -0.1717  0.3745 -0.5175
 6855TIP3    H141980   2.597   0.186  16.328  1.2887  0.7479  0.5981
 6855TIP3    H241981   2.540   0.305  16.400  1.9413  1.2704  0.2679
 6856TIP3   OH241982   3.321   3.439  14.462 -0.3330  0.0015  0.3257
 6856TIP3    H141983   3.275   3.462  14.543  0.8258  1.1164  0.6974
 6856TIP3    H241984   3.390   3.379  14.490 -1.1818 -1.2496 -0.1583
 6857TIP3   OH241985   4.021   2.703   1.239  0.0976  0.3492  0.1074
 6857TIP3    H141986   3.960   2.653   1.184  2.0744 -2.0726 -0.0498
 6857TIP3    H241987   4.075   2.751   1.176  0.3998 -0.0419  0.0621
 6858TIP3   OH241988   0.849   3.718   5.192  0.1472 -0.2735 -0.7002
 6858TIP3    H141989   0.896   3.676   5.264  0.8318  0.0806 -0.9298
 6858TIP3    H241990   0.817   3.645   5.139  0.1305 -0.5243 -0.3523
 6859TIP3   OH241991   5.066   2.079   6.381 -0.9283 -0.6788  0.1972
 6859TIP3    H141992   5.140   2.072   6.321 -1.8559  0.4606 -1.1478
 6859TIP3    H241993   5.075   2.166   6.420 -2.3823  0.1663 -1.2119
 6860TIP3   OH241994   2.512   1.263  14.575  0.2227 -0.3608 -0.2758
 6860TIP3    H141995   2.466   1.301  14.651 -0.7208 -0.8583 -0.5810
 6860TIP3    H241996   2.553   1.184  14.609  2.3167  0.9553  0.3958
 6861TIP3   OH241997   1.000   3.702  14.477  0.7035 -0.5129  0.4256
 6861TIP3    H141998   1.079   3.668  14.434  2.6548 -1.0598  3.9655
 6861TIP3    H241999   0.942   3.626  14.483  0.1108 -0.2726 -1.6292
 6862TIP3   OH242000   3.076   4.571   4.089 -0.1023 -0.4696 -0.1892
 6862TIP3    H142001   3.108   4.644   4.036 -1.0407 -1.2071 -1.8323
 6862TIP3    H242002   2.981   4.578   4.085 -0.3171  0.6629  3.1707
 6863TIP3   OH242003   5.394   5.750   4.876  0.7400  0.1952 -0.3926
 6863TIP3    H142004   5.318   5.785   4.921 -0.5517  1.8594 -3.5772
 6863TIP3    H242005   5.469   5.789   4.921 -0.4590  1.7876  0.2996
 6864TIP3   OH242006   6.220   4.762  15.024 -0.3009  0.3131 -0.3866
 6864TIP3    H142007   6.183   4.790  14.941 -0.1207 -0.6914 -0.8173
 6864TIP3    H242008   6.293   4.822  15.039 -0.1583  0.3229 -1.0983
 6865TIP3   OH242009   2.656   4.142  14.719  0.2856 -0.1305  0.1729
 6865TIP3    H142010   2.678   4.061  14.765 -0.8052 -0.2182  0.5786
 6865TIP3    H242011   2.598   4.114  14.648  1.8925  0.0173 -1.2444
 6866TIP3   OH242012   2.703   0.851  14.906  0.0666  0.2265  0.4178
 6866TIP3    H142013   2.624   0.895  14.874  0.0383  1.0971  1.5982
 6866TIP3    H242014   2.751   0.827  14.827 -0.7164  0.9385 -0.2945
 6867TIP3   OH242015   1.223   6.325  16.789  0.5403  0.0764 -0.1648
 6867TIP3    H142016   1.316   6.332  16.809  1.0442 -2.3094 -1.3629
 6867TIP3    H242017   1.214   6.363  16.702 -0.4353  4.0297  1.4401
 6868TIP3   OH242018   6.170   3.158   2.265 -0.1216 -0.4729 -0.1762
 6868TIP3    H142019   6.196   3.104   2.191 -0.5937 -1.7076  0.5338
 6868TIP3    H242020   6.251   3.172   2.314 -0.3095 -2.1921  0.6764
 6869TIP3   OH242021   1.770   3.312   0.432 -0.4906  1.0483  0.2948
 6869TIP3    H142022   1.780   3.221   0.405  1.4382  1.1285  0.6213
 6869TIP3    H242023   1.766   3.361   0.350 -1.9844  0.6717  0.1073
 6870TIP3   OH242024   3.799   2.333   3.083  0.1966 -0.1252 -0.4246
 6870TIP3    H142025   3.879   2.318   3.134 -1.8333 -1.7910  2.5869
 6870TIP3    H242026   3.797   2.262   3.019  1.8122  0.8594 -1.6565
 6871TIP3   OH242027   1.051   1.200   5.252 -0.1270 -0.3929 -0.4515
 6871TIP3    H142028   0.997   1.125   5.278  1.1100 -0.6542  1.5580
 6871TIP3    H242029   1.138   1.163   5.236  0.0382  0.3533 -1.3883
 6872TIP3   OH242030   4.373   4.320  14.059 -0.3414  0.1021  0.3773
 6872TIP3    H142031   4.319   4.244  14.038  0.4538 -0.2272 -0.5753
 6872TIP3    H242032   4.405   4.350  13.974  0.6268  0.5434  0.8822
 6873TIP3   OH242033   0.515   5.542   1.395 -0.2339 -0.2480  0.1368
 6873TIP3    H142034   0.608   5.523   1.401  0.0892 -0.1539 -2.9426
 6873TIP3    H242035   0.472   5.457   1.403  0.1077 -0.3184  1.3147
 6874TIP3   OH242036   0.885   4.337   6.152 -0.4046  0.4704  0.3268
 6874TIP3    H142037   0.830   4.372   6.222 -0.1712  2.4850 -0.4616
 6874TIP3    H242038   0.824   4.291   6.094 -0.9975  1.1890  0.3799
 6875TIP3   OH242039   4.457   6.519   4.777 -0.3032  0.4876 -0.5346
 6875TIP3    H142040   4.403   6.588   4.816 -0.6811  0.9414 -1.8135
 6875TIP3    H242041   4.523   6.566   4.726  0.7424 -0.0796  0.2663
 6876TIP3   OH242042   2.749   4.384  15.319  0.1141  0.0872  0.0104
 6876TIP3    H142043   2.800   4.329  15.379 -0.6031 -1.4363 -0.7251
 6876TIP3    H242044   2.704   4.322  15.262 -0.2714  1.4694 -1.2501
 6877TIP3   OH242045   2.715   2.777   2.704 -0.3015  0.0380  0.7564
 6877TIP3    H142046   2.681   2.866   2.700  0.9016  0.6093  2.2347
 6877TIP3    H242047   2.643   2.725   2.738  0.0450  1.1244  3.3348
 6878TIP3   OH242048   5.040   4.057  11.387  0.0638  0.7517 -0.2130
 6878TIP3    H142049   5.083   4.141  11.403  0.4965  0.3849  0.6108
 6878TIP3    H242050   5.098   3.992  11.427 -2.2750  0.4026  2.9886
 6879TIP3   OH242051   4.213   2.041  12.929  0.3126 -0.0557 -0.2950
 6879TIP3    H142052   4.223   1.946  12.923 -0.2162 -0.1874  0.6693
 6879TIP3    H242053   4.217   2.059  13.023 -2.1034  0.5667 -0.2430
 6880TIP3   OH242054   2.686   5.818   5.522 -0.5928  0.2385  0.1503
 6880TIP3    H142055   2.700   5.783   5.610 -0.0363  0.1101  0.0157
 6880TIP3    H242056   2.655   5.744   5.470 -2.0019  0.5708  0.4978
 6881TIP3   OH242057   1.603   1.634  14.791  0.1527 -0.1176  0.2766
 6881TIP3    H142058   1.671   1.671  14.735 -0.6374 -1.2664 -1.5201
 6881TIP3    H242059   1.551   1.579  14.733 -1.7250 -0.0668  1.8173
 6882TIP3   OH242060   3.310   3.267   2.135 -0.0547 -0.0808  0.4259
 6882TIP3    H142061   3.242   3.265   2.202  0.1843  0.3451  0.6858
 6882TIP3    H242062   3.392   3.252   2.183  0.2094  1.1176  0.3686
 6883TIP3   OH242063   2.329   5.813  11.681  0.3741  0.2956  0.4386
 6883TIP3    H142064   2.325   5.882  11.615  1.5153 -0.3361 -0.3252
 6883TIP3    H242065   2.417   5.819  11.718  1.0102 -1.5997 -0.6341
 6884TIP3   OH242066   1.864   1.210  12.394  0.1553  0.2628 -0.2755
 6884TIP3    H142067   1.797   1.270  12.427  0.7833  1.4888 -1.1493
 6884TIP3    H242068   1.860   1.135  12.454  0.2736  1.7386  1.6827
 6885TIP3   OH242069   1.360   1.225  15.046 -0.4687 -0.1324 -0.2748
 6885TIP3    H142070   1.265   1.220  15.031 -0.6770 -0.5386  1.1061
 6885TIP3    H242071   1.382   1.143  15.088  0.2671  0.5140  0.6399
 6886TIP3   OH242072   5.061   3.891  17.123  0.3355  0.6947  0.2675
 6886TIP3    H142073   5.148   3.910  17.089  0.4068 -0.0234  0.0347
 6886TIP3    H242074   5.038   3.807  17.084 -1.2758  1.7623 -1.3027
 6887TIP3   OH242075   2.807   1.460   0.539 -0.1409  0.5253 -0.2355
 6887TIP3    H142076   2.827   1.413   0.620 -0.5682  0.0681 -0.3926
 6887TIP3    H242077   2.858   1.540   0.545  1.0583 -0.2224 -0.2321
 6888TIP3   OH242078   2.971   3.598  13.130 -0.4755  0.1328 -0.4856
 6888TIP3    H142079   2.963   3.678  13.181 -0.7284  1.6643 -2.7883
 6888TIP3    H242080   3.064   3.573  13.138  0.1217  1.8829 -1.3882
 6889TIP3   OH242081   4.502   5.129   5.276  0.1211  0.1935  0.0434
 6889TIP3    H142082   4.542   5.044   5.294  0.0709  0.4275  1.3510
 6889TIP3    H242083   4.423   5.109   5.226  1.5576 -0.3131 -2.1684
 6890TIP3   OH242084   4.708   1.637  13.690 -0.2598 -0.9310 -0.1956
 6890TIP3    H142085   4.656   1.713  13.665 -2.0499 -1.9486  0.2441
 6890TIP3    H242086   4.711   1.639  13.785 -0.0344 -1.2071 -0.1952
 6891TIP3   OH242087   1.908   5.832  15.715 -0.6745 -0.0629 -0.0990
 6891TIP3    H142088   1.832   5.809  15.769 -0.8710 -0.1427 -0.4080
 6891TIP3    H242089   1.948   5.907  15.760 -0.0798 -0.9335  0.8772
 6892TIP3   OH242090   2.486   3.465  13.965 -0.1982  0.5137  0.1523
 6892TIP3    H142091   2.497   3.483  14.058  0.0319  1.3535 -0.0282
 6892TIP3    H242092   2.398   3.429  13.957 -0.0949  0.1329  0.7350
 6893TIP3   OH242093   4.304   4.709  12.477  0.2740 -0.1799  0.1207
 6893TIP3    H142094   4.392   4.673  12.480 -0.2267 -1.4870 -0.1196
 6893TIP3    H242095   4.254   4.647  12.424 -0.8280  0.4441  0.3825
 6894TIP3   OH242096   0.068   1.232  12.032  0.5385  0.1473 -0.3318
 6894TIP3    H142097  -0.028   1.238  12.034  0.6194  1.9296  1.5256
 6894TIP3    H242098   0.095   1.295  11.966  0.4537  0.6003  0.0601
 6895TIP3   OH242099   3.487   3.325  16.295  0.2703 -0.1151  0.0953
 6895TIP3    H142100   3.460   3.407  16.252 -1.0638 -0.2496  0.6131
 6895TIP3    H242101   3.516   3.269  16.223 -2.1777 -0.4423 -0.7261
 6896TIP3   OH242102   0.412   6.221   3.716  0.3031 -0.6963 -0.2016
 6896TIP3    H142103   0.465   6.201   3.639  1.0705 -0.0728  0.1503
 6896TIP3    H242104   0.448   6.166   3.786  2.8879  2.1384  0.9585
 6897TIP3   OH242105   0.707   6.773   4.383 -0.7498 -0.3918  0.1837
 6897TIP3    H142106   0.669   6.696   4.340 -0.5838 -0.9507  1.0172
 6897TIP3    H242107   0.631   6.824   4.412 -0.8726 -0.7473  0.5033
 6898TIP3   OH242108   4.827   6.363   1.039 -0.3247  0.4972 -0.1608
 6898TIP3    H142109   4.865   6.363   0.951 -0.5107  0.0068 -0.2459
 6898TIP3    H242110   4.854   6.279   1.077 -0.8217  0.4005 -0.0058
 6899TIP3   OH242111   4.718   1.595   2.798  0.8175 -1.0031 -0.1635
 6899TIP3    H142112   4.632   1.634   2.817  1.7087  0.3884  1.2614
 6899TIP3    H242113   4.730   1.531   2.868  1.0221 -1.0419 -0.2348
 6900TIP3   OH242114   6.135   3.509   2.817  0.1036  0.5241 -0.3132
 6900TIP3    H142115   6.111   3.426   2.857 -0.5070  0.1140 -1.5043
 6900TIP3    H242116   6.119   3.574   2.885  1.9602 -0.4426  1.1463
 6901TIP3   OH242117   5.111   1.805  12.029  0.4286 -0.7031 -0.1137
 6901TIP3    H142118   5.202   1.806  12.001  0.0806 -1.6169 -1.3284
 6901TIP3    H242119   5.109   1.865  12.104  2.1428 -1.1591  0.3409
 6902TIP3   OH242120   6.586   0.639  14.603  0.8214 -0.9265  0.0026
 6902TIP3    H142121   6.595   0.658  14.697 -0.0713  1.5825 -0.3504
 6902TIP3    H242122   6.670   0.664  14.565  1.3328 -2.3316  0.1257
 6903TIP3   OH242123   2.718   2.613  15.267 -0.2672 -0.2404  0.3378
 6903TIP3    H142124   2.657   2.674  15.227  0.6812  0.6089  0.1608
 6903TIP3    H242125   2.721   2.539  15.206  1.1335  1.0137 -1.2238
 6904TIP3   OH242126   2.395   3.895  15.460 -0.2107  0.5077 -0.4485
 6904TIP3    H142127   2.337   3.970  15.452 -3.1649 -1.5021  0.3078
 6904TIP3    H242128   2.421   3.874  15.371 -1.5022  0.8563 -0.9204
 6905TIP3   OH242129   5.510   0.886  16.050 -0.0619 -0.0929 -0.5720
 6905TIP3    H142130   5.500   0.976  16.080 -1.8908 -0.0395 -1.2510
 6905TIP3    H242131   5.559   0.893  15.967 -0.2656  0.2752 -0.6602
 6906TIP3   OH242132   4.620   5.703   1.505  0.0494  0.0027  0.0410
 6906TIP3    H142133   4.581   5.644   1.441  0.3419  0.1487 -0.2777
 6906TIP3    H242134   4.562   5.778   1.508 -0.8960 -0.7374  1.2214
 6907TIP3   OH242135   3.108   6.719  17.032  0.4323  0.3175 -0.7457
 6907TIP3    H142136   3.121   6.654  16.963 -0.1583  0.7091 -1.2290
 6907TIP3    H242137   3.162   6.793  17.006  1.0119  0.0814 -0.2538
 6908TIP3   OH242138   1.862   4.286   4.437 -0.3723  0.0713  0.6642
 6908TIP3    H142139   1.849   4.284   4.342 -3.1012 -0.1390  0.9574
 6908TIP3    H242140   1.794   4.228   4.472  0.8036 -0.1693  2.7597
 6909TIP3   OH242141   4.289   1.748  14.526  0.2986 -0.2527  0.5075
 6909TIP3    H142142   4.197   1.746  14.500  0.4607 -0.1802 -0.0829
 6909TIP3    H242143   4.294   1.688  14.601  0.0498 -1.4268 -0.3822
 6910TIP3   OH242144   0.642   5.081  12.067 -0.6335 -0.1924  0.1419
 6910TIP3    H142145   0.637   5.149  11.999  1.1957 -0.1021  0.0540
 6910TIP3    H242146   0.575   5.107  12.131  0.2666  1.9560  0.3064
 6911TIP3   OH242147   2.467   4.086  16.431  0.1622 -0.4562  0.2445
 6911TIP3    H142148   2.477   4.071  16.337 -1.8095 -2.3146  0.2402
 6911TIP3    H242149   2.544   4.044  16.470  2.3184  2.4323 -0.5469
 6912TIP3   OH242150   3.385   3.807  17.161 -0.6643 -0.3802 -0.0305
 6912TIP3    H142151   3.391   3.712  17.152  0.0870 -0.2918 -0.5981
 6912TIP3    H242152   3.420   3.841  17.079  0.3468  0.4039  0.6995
 6913TIP3   OH242153   5.081   5.020   5.764 -0.8998  0.2861  0.6414
 6913TIP3    H142154   5.094   5.099   5.815 -0.8496  0.4577  0.3658
 6913TIP3    H242155   5.069   5.051   5.674  0.3052 -0.0903  0.3396
 6914TIP3   OH242156   3.394   2.046   1.532 -0.2651  0.1185  0.0502
 6914TIP3    H142157   3.373   2.136   1.557 -2.8425 -0.2259 -0.5410
 6914TIP3    H242158   3.344   2.031   1.452  0.8175 -1.5728 -0.3691
 6915TIP3   OH242159   4.913   0.940   0.370  0.7056  0.3693 -0.1526
 6915TIP3    H142160   4.862   0.916   0.292  0.0770  0.3287  0.2584
 6915TIP3    H242161   4.846   0.960   0.436  1.2122  1.5615  0.0258
 6916TIP3   OH242162   5.422   4.411  15.093 -0.1639  0.3364 -0.5154
 6916TIP3    H142163   5.408   4.505  15.077  0.2971  0.6438  0.7582
 6916TIP3    H242164   5.515   4.404  15.115 -0.5057 -0.1765  0.8583
 6917TIP3   OH242165   2.826   1.251  15.139  0.3480 -0.1552 -0.5264
 6917TIP3    H142166   2.823   1.186  15.068 -1.3912 -0.3786 -0.2992
 6917TIP3    H242167   2.769   1.322  15.109  0.5291  0.2880  0.1562
 6918TIP3   OH242168   3.288   6.591   5.047 -0.8934 -0.1051  0.1117
 6918TIP3    H142169   3.211   6.648   5.043 -0.9595 -0.2411 -0.8059
 6918TIP3    H242170   3.316   6.582   4.956  0.4153  0.2085  0.4580
 6919TIP3   OH242171   1.221   4.136  14.628  0.0219  0.0020  0.2519
 6919TIP3    H142172   1.170   4.080  14.569  1.7211  0.3296 -1.6653
 6919TIP3    H242173   1.295   4.081  14.653  0.3282  0.5323  0.4967
 6920TIP3   OH242174   3.490   5.340  15.602 -0.0735  0.7960  0.1089
 6920TIP3    H142175   3.540   5.371  15.678  1.7816  2.4958 -1.6762
 6920TIP3    H242176   3.503   5.245  15.602 -2.0841  0.3854  3.1478
 6921TIP3   OH242177   0.724   0.813   2.668  0.0845  0.1280 -0.5513
 6921TIP3    H142178   0.672   0.876   2.717 -0.3079 -0.9418  0.4587
 6921TIP3    H242179   0.677   0.801   2.586  0.3899  1.4380 -0.9382
 6922TIP3   OH242180   0.900   2.245  10.760  0.4172  0.2439 -0.6495
 6922TIP3    H142181   0.832   2.192  10.801  0.2437  2.0349  1.5532
 6922TIP3    H242182   0.875   2.249  10.667 -1.1782 -1.0048 -0.3112
 6923TIP3   OH242183   0.074   4.317   4.646  0.3332 -0.2574  0.5522
 6923TIP3    H142184   0.139   4.364   4.593  2.5474 -1.6345  1.9138
 6923TIP3    H242185   0.037   4.252   4.586 -1.1500  1.6509 -0.7241
 6924TIP3   OH242186   1.694   5.920   5.660  0.9293 -0.7306  0.2639
 6924TIP3    H142187   1.663   5.909   5.570  0.1099 -0.9625  0.5574
 6924TIP3    H242188   1.782   5.883   5.660  0.7591 -1.1573 -0.3422
 6925TIP3   OH242189   6.716   2.509  12.620 -0.1846  0.2679  0.1452
 6925TIP3    H142190   6.783   2.450  12.584  0.1669  0.9739 -0.3818
 6925TIP3    H242191   6.732   2.508  12.715  0.3611  0.1655  0.0588
 6926TIP3   OH242192   5.736   6.704  16.397  0.4599  0.2680  0.0651
 6926TIP3    H142193   5.673   6.749  16.341 -1.5727 -0.1347  1.8871
 6926TIP3    H242194   5.770   6.632  16.342 -0.5855  0.5467 -0.9848
 6927TIP3   OH242195   4.199   4.420   6.516  0.3166  0.0634  0.0794
 6927TIP3    H142196   4.114   4.410   6.472  0.2283  0.4532  0.1630
 6927TIP3    H242197   4.218   4.332   6.550 -1.0156  0.3797  1.8169
 6928TIP3   OH242198   3.105   5.856   3.371  0.4408  0.1814 -0.4670
 6928TIP3    H142199   3.118   5.808   3.453  0.4639 -0.8642 -1.0693
 6928TIP3    H242200   3.171   5.820   3.312 -1.5570 -1.3213 -1.9017
 6929TIP3   OH242201   4.141   2.002  14.930  0.5610  0.5460  0.2288
 6929TIP3    H142202   4.214   2.058  14.903  0.5631  0.7521  0.6488
 6929TIP3    H242203   4.120   2.031  15.019  1.0784 -0.6330  0.7586
 6930TIP3   OH242204   2.079   6.606  15.190  0.9187  0.2331 -0.5506
 6930TIP3    H142205   2.129   6.542  15.140  0.6922 -1.3814  1.1805
 6930TIP3    H242206   1.994   6.609  15.146  1.5411  0.8324 -1.7806
 6931TIP3   OH242207   3.473   5.000  15.810 -0.2569 -0.4401 -0.0610
 6931TIP3    H142208   3.470   4.915  15.765 -2.6440  0.5299 -1.9773
 6931TIP3    H242209   3.533   5.053  15.758  1.2002 -0.8761  1.1109
 6932TIP3   OH242210   1.232   4.477   4.378  0.2818  0.0165  0.0618
 6932TIP3    H142211   1.141   4.497   4.355  0.3369 -1.3558 -1.4792
 6932TIP3    H242212   1.278   4.561   4.366 -0.4046  0.2373 -1.2570
 6933TIP3   OH242213   6.188   3.707   5.032 -0.3363 -0.0277  0.0759
 6933TIP3    H142214   6.104   3.754   5.039 -0.1019  0.4384 -0.2429
 6933TIP3    H242215   6.216   3.696   5.123 -0.1240  0.9385  0.1374
 6934TIP3   OH242216   4.044   5.556  13.552  0.1518 -0.4523  0.0253
 6934TIP3    H142217   3.985   5.480  13.558  0.5011 -0.6542  1.1268
 6934TIP3    H242218   3.997   5.617  13.495  0.2559 -1.8215 -1.6165
 6935TIP3   OH242219   3.767   4.720  13.421  0.2213  0.4600 -0.4631
 6935TIP3    H142220   3.797   4.752  13.336 -0.7345 -1.7776 -1.7565
 6935TIP3    H242221   3.676   4.692  13.405  0.3089 -0.8159  1.0559
 6936TIP3   OH242222   2.874   4.514   0.301  0.5029 -0.2678  0.6524
 6936TIP3    H142223   2.827   4.590   0.336  0.6014  0.6234 -1.0438
 6936TIP3    H242224   2.876   4.451   0.373 -2.9293 -0.2115  0.9339
 6937TIP3   OH242225   4.913   1.940  14.261  0.1743 -0.1980  0.0330
 6937TIP3    H142226   4.845   1.877  14.286 -0.0390  0.0437  0.0646
 6937TIP3    H242227   4.902   2.013  14.322 -0.5614  0.5451 -0.9431
 6938TIP3   OH242228   3.331   4.924  13.313  0.0607 -0.5309 -0.1103
 6938TIP3    H142229   3.353   4.860  13.381  0.3814 -1.3873 -0.9984
 6938TIP3    H242230   3.359   5.008  13.350  1.2689 -1.1221  0.3766
 6939TIP3   OH242231   4.162   6.266   0.949 -0.6943  0.0101  0.8331
 6939TIP3    H142232   4.185   6.178   0.980 -2.0675 -1.5915 -2.2589
 6939TIP3    H242233   4.246   6.311   0.940  0.4194 -2.1495 -0.5393
 6940TIP3   OH242234   2.636   5.306  16.977 -0.0668 -0.3446 -0.3307
 6940TIP3    H142235   2.705   5.251  17.014  0.7676  1.3805  0.8319
 6940TIP3    H242236   2.560   5.248  16.968  0.2223 -1.2805  2.4908
 6941TIP3   OH242237   3.199   4.456   6.036 -0.0710  0.5128 -0.6965
 6941TIP3    H142238   3.130   4.411   6.084 -0.8211  1.2051 -1.0948
 6941TIP3    H242239   3.278   4.405   6.053 -0.5388  0.1073  0.3468
 6942TIP3   OH242240   5.226   6.421   3.310 -0.0503 -0.6911 -0.1997
 6942TIP3    H142241   5.200   6.487   3.246 -0.9634  1.5819  2.3205
 6942TIP3    H242242   5.277   6.469   3.374 -0.7371 -2.4432  1.7726
 6943TIP3   OH242243   6.050   3.118   5.343  0.4100 -0.3293 -0.4576
 6943TIP3    H142244   5.965   3.158   5.362  0.3132  0.2317 -1.9020
 6943TIP3    H242245   6.047   3.100   5.249  1.7136 -0.7375 -0.4385
 6944TIP3   OH242246   4.154   4.803  11.619 -0.2157  0.1409 -0.3401
 6944TIP3    H142247   4.135   4.732  11.680  0.2013  0.6027  0.3354
 6944TIP3    H242248   4.099   4.784  11.543 -0.7472 -0.4380  0.1747
 6945TIP3   OH242249   2.646   6.227  14.385 -0.0378  0.0505 -0.5216
 6945TIP3    H142250   2.652   6.270  14.470 -0.7115  1.0320 -0.9609
 6945TIP3    H242251   2.557   6.192  14.381  0.7132 -2.0794  0.1304
 6946TIP3   OH242252   0.681   3.199  12.987  0.3714  0.2101  0.1689
 6946TIP3    H142253   0.765   3.183  13.030  0.8235  1.0662 -0.3706
 6946TIP3    H242254   0.660   3.117  12.943  0.5734 -0.2323  0.8876
 6947TIP3   OH242255   5.906   2.094   4.965 -0.2781  0.6656 -0.2602
 6947TIP3    H142256   5.871   2.059   5.048 -0.4307  0.3008 -0.4747
 6947TIP3    H242257   5.846   2.165   4.942 -0.4249  0.5517 -0.2279
 6948TIP3   OH242258   6.048   5.180  14.197  0.4659 -0.3872 -0.2817
 6948TIP3    H142259   6.115   5.130  14.152 -1.5779 -0.5704 -3.4301
 6948TIP3    H242260   6.001   5.115  14.250  0.4638 -1.0065 -1.0294
 6949TIP3   OH242261   3.783   0.568   1.668  0.3608  0.3194  0.0580
 6949TIP3    H142262   3.696   0.540   1.697 -0.3487  2.3976  0.1086
 6949TIP3    H242263   3.816   0.623   1.740  2.4435 -1.6929  0.7497
 6950TIP3   OH242264   0.237   3.643   0.483  0.0826  0.0029 -0.4673
 6950TIP3    H142265   0.183   3.575   0.444  0.4610 -0.6358  0.1069
 6950TIP3    H242266   0.181   3.683   0.549  0.4840 -1.0651  0.5541
 6951TIP3   OH242267   6.638   3.038  16.292 -0.1915  0.1063 -0.6248
 6951TIP3    H142268   6.694   3.101  16.246  0.1801  0.7910  0.7203
 6951TIP3    H242269   6.627   3.075  16.379  0.9823 -2.2266  0.6129
 6952TIP3   OH242270   6.459   5.994  15.085 -0.1398  0.1681 -0.4451
 6952TIP3    H142271   6.519   6.052  15.037 -0.8120  0.0082 -1.4893
 6952TIP3    H242272   6.373   6.034  15.073  0.0120  2.7387  4.3409
 6953TIP3   OH242273   4.559   2.947  10.788  0.3180 -0.3373 -0.1362
 6953TIP3    H142274   4.515   2.876  10.741  0.8284 -1.1768  0.6291
 6953TIP3    H242275   4.488   3.005  10.815 -0.0141  0.0095 -1.6574
 6954TIP3   OH242276   1.658   1.256  15.047 -0.1273  0.2848 -0.7305
 6954TIP3    H142277   1.570   1.274  15.079 -0.0070  2.4243 -1.4628
 6954TIP3    H242278   1.674   1.164  15.071 -2.2128  0.0951  0.1358
 6955TIP3   OH242279   4.710   4.694   3.842  0.4844 -0.0149 -0.3759
 6955TIP3    H142280   4.652   4.694   3.766  0.4354 -1.6962 -0.3706
 6955TIP3    H242281   4.687   4.775   3.889 -0.2881  0.4652 -1.5346
 6956TIP3   OH242282   0.372   5.479  12.189 -0.0398  0.1940  0.0224
 6956TIP3    H142283   0.327   5.438  12.115 -1.6405  1.2934  0.3456
 6956TIP3    H242284   0.411   5.558  12.153  0.1167  0.1651  0.1257
 6957TIP3   OH242285   6.262   4.957   0.872  0.1098  0.2354  0.4157
 6957TIP3    H142286   6.246   4.872   0.914 -0.2130  0.3163  0.4573
 6957TIP3    H242287   6.178   4.981   0.834  0.4426  0.0898 -0.4181
 6958TIP3   OH242288   3.100   3.188   2.288  0.0746 -0.0900  0.2386
 6958TIP3    H142289   3.009   3.201   2.259 -0.0308 -0.8874  0.1952
 6958TIP3    H242290   3.111   3.252   2.359 -1.0390 -1.0225  1.3150
 6959TIP3   OH242291   3.085   6.579  15.846 -0.2755 -0.3259 -0.0162
 6959TIP3    H142292   3.024   6.505  15.837 -0.7646 -0.0296  0.7586
 6959TIP3    H242293   3.170   6.543  15.823 -0.2492 -1.5468  1.7849
 6960TIP3   OH242294   1.109   6.320  16.181  0.5845  0.1967  0.1000
 6960TIP3    H142295   1.191   6.354  16.217  0.4468  0.3392  0.2837
 6960TIP3    H242296   1.049   6.318  16.256 -0.0712  1.6486 -0.3617
 6961TIP3   OH242297   5.750   4.200  10.501 -0.1037 -0.0525  0.2432
 6961TIP3    H142298   5.801   4.139  10.554  2.2502  2.1259  0.6793
 6961TIP3    H242299   5.678   4.147  10.466  0.0450 -2.3261  2.9984
 6962TIP3   OH242300   2.973   3.385  10.884  0.2947  0.3612  0.0070
 6962TIP3    H142301   2.884   3.382  10.849  1.0322 -0.3244 -1.9878
 6962TIP3    H242302   2.997   3.293  10.897  0.3271  0.5753  1.7054
 6963TIP3   OH242303   4.891   4.918  15.955  0.1078 -0.1420 -0.3753
 6963TIP3    H142304   4.906   4.906  15.861 -0.5292  1.9075 -0.7916
 6963TIP3    H242305   4.831   4.848  15.979 -0.8015  0.1142 -1.8154
 6964TIP3   OH242306   6.353   0.051  12.810 -0.6819 -0.4607 -0.4056
 6964TIP3    H142307   6.393   0.028  12.726 -0.4513  0.0417 -0.4395
 6964TIP3    H242308   6.402   0.001  12.875  0.3518  0.5364 -0.3962
 6965TIP3   OH242309   4.459   2.551   1.122 -0.2836  0.2732  0.5746
 6965TIP3    H142310   4.404   2.550   1.200  1.0538  1.3003  1.5918
 6965TIP3    H242311   4.548   2.563   1.156  0.4208  0.0087 -1.0761
 6966TIP3   OH242312   1.879   2.349  11.250  0.0773 -0.5191  0.3383
 6966TIP3    H142313   1.810   2.328  11.187 -0.1630 -1.7840  0.9884
 6966TIP3    H242314   1.845   2.425  11.297 -0.4241 -0.4986 -0.0440
 6967TIP3   OH242315   1.122   0.872  15.652 -0.3751  1.0601 -0.4400
 6967TIP3    H142316   1.115   0.876  15.748  0.0192 -0.5392 -0.3137
 6967TIP3    H242317   1.213   0.894  15.634 -0.3258  0.8717 -0.4165
 6968TIP3   OH242318   6.187   5.843   1.132  0.0969  0.0395 -0.2132
 6968TIP3    H142319   6.281   5.862   1.132  0.0460  0.3107 -0.8447
 6968TIP3    H242320   6.168   5.816   1.222  0.5748  0.9936  0.1849
 6969TIP3   OH242321   3.550   3.361  15.839 -0.3873  0.1448  0.8674
 6969TIP3    H142322   3.523   3.274  15.867 -0.0964  0.5039  2.3345
 6969TIP3    H242323   3.523   3.366  15.747 -0.4675 -1.4511  0.7849
 6970TIP3   OH242324   5.708   0.600  16.065 -0.0075 -0.0530 -0.7051
 6970TIP3    H142325   5.787   0.585  16.012  0.4512 -2.5648  0.5649
 6970TIP3    H242326   5.681   0.513  16.093 -0.4823  1.0603  2.7759
 6971TIP3   OH242327   3.718   3.598   0.867  0.4602 -0.2535 -0.4067
 6971TIP3    H142328   3.786   3.660   0.842 -1.0530  1.2228 -1.0715
 6971TIP3    H242329   3.640   3.653   0.882 -0.8651 -1.9634 -0.7338
 6972TIP3   OH242330   6.628   3.250   5.580  0.0071  0.2176  0.1198
 6972TIP3    H142331   6.536   3.271   5.567 -0.0722 -0.3811 -0.3395
 6972TIP3    H242332   6.647   3.278   5.670  0.0533  2.6120 -0.5875
 6973TIP3   OH242333   0.269   4.163   2.651  0.2672 -0.4854  0.0115
 6973TIP3    H142334   0.244   4.212   2.572  1.6217 -1.6603 -1.2221
 6973TIP3    H242335   0.360   4.189   2.666  0.1833 -0.6943  0.8780
 6974TIP3   OH242336   5.782   0.828   3.898 -0.4357 -0.4491 -0.1663
 6974TIP3    H142337   5.782   0.768   3.973  0.5894 -1.0049 -0.6012
 6974TIP3    H242338   5.840   0.899   3.925  0.9355 -1.2595 -0.8882
 6975TIP3   OH242339   1.894   5.522  12.662  0.4287 -0.1474  0.0014
 6975TIP3    H142340   1.839   5.586  12.706  0.5690  0.0931 -0.1675
 6975TIP3    H242341   1.979   5.530  12.704  0.2543 -0.7456  0.4828
 6976TIP3   OH242342   4.299   0.177  13.532 -0.5417 -0.2766 -0.1928
 6976TIP3    H142343   4.263   0.264  13.513 -0.9640 -0.6150 -0.9771
 6976TIP3    H242344   4.379   0.195  13.581 -1.0290  0.5344  0.3406
 6977TIP3   OH242345   4.498   3.220   0.179 -0.3152  0.0422  0.0233
 6977TIP3    H142346   4.465   3.182   0.260  2.1859 -2.0218  0.2164
 6977TIP3    H242347   4.465   3.163   0.110  1.4367 -1.1459  0.0958
 6978TIP3   OH242348   2.634   6.453   1.880  0.2617 -0.1695  0.1779
 6978TIP3    H142349   2.634   6.518   1.809 -0.0918  0.7268  0.9903
 6978TIP3    H242350   2.582   6.493   1.949  1.3077 -0.6705  1.2791
 6979TIP3   OH242351   3.108   1.164  15.067  0.2355  0.6566  0.0878
 6979TIP3    H142352   3.014   1.172  15.049  0.4614  1.4024 -0.8239
 6979TIP3    H242353   3.125   1.228  15.136  0.0182  0.3172  0.4548
 6980TIP3   OH242354   5.129   6.692   1.597 -0.2227 -0.0788 -0.4159
 6980TIP3    H142355   5.065   6.643   1.545 -0.1570 -0.3523 -0.2440
 6980TIP3    H242356   5.086   6.775   1.616  0.2214  0.5207 -1.9310
 6981TIP3   OH242357   6.133   5.018   4.508  1.0107 -0.2885 -0.5647
 6981TIP3    H142358   6.136   5.112   4.526 -0.4161 -0.6839  2.1927
 6981TIP3    H242359   6.051   5.005   4.461  0.5881 -0.2951  0.1649
 6982TIP3   OH242360   2.690   5.091  11.944 -0.6566 -0.5441 -0.0227
 6982TIP3    H142361   2.688   5.095  12.040  0.0613 -1.3659  0.0452
 6982TIP3    H242362   2.681   4.998  11.924 -0.2824 -0.4358 -0.7276
 6983TIP3   OH242363   5.460   2.864   6.093  0.0630 -0.3109 -0.3065
 6983TIP3    H142364   5.368   2.874   6.066 -0.6447 -0.9908  1.6705
 6983TIP3    H242365   5.464   2.904   6.179  1.8631  0.4381 -0.7050
 6984TIP3   OH242366   3.635   2.603  12.976  0.0447 -0.3103  0.2323
 6984TIP3    H142367   3.657   2.512  12.957  0.8306  0.3937 -2.8252
 6984TIP3    H242368   3.597   2.635  12.894  4.1670  3.3707 -0.5738
 6985TIP3   OH242369   0.252   2.885  12.228  0.0253  0.0276 -0.2545
 6985TIP3    H142370   0.210   2.936  12.297  1.1931  0.5864  0.0602
 6985TIP3    H242371   0.232   2.794  12.250 -0.5637  0.2517  0.1717
 6986TIP3   OH242372   5.001   2.055  15.796 -0.1121  0.4575 -0.3201
 6986TIP3    H142373   5.065   2.028  15.862  0.8469  2.8452 -0.1702
 6986TIP3    H242374   4.993   2.149  15.808 -1.1298  0.7207 -2.5793
 6987TIP3   OH242375   1.332   2.114  14.505 -0.3123 -0.3627 -0.0477
 6987TIP3    H142376   1.382   2.032  14.503 -1.3929 -1.0331 -2.6442
 6987TIP3    H242377   1.398   2.182  14.487  0.4897 -0.6329  1.5921
 6988TIP3   OH242378   6.014   3.505  16.220 -0.6003  0.0491  0.1159
 6988TIP3    H142379   6.003   3.410  16.211 -0.5421  0.1112 -0.7498
 6988TIP3    H242380   6.108   3.519  16.216 -0.6452  0.2025 -0.5142
 6989TIP3   OH242381   3.429   5.140   3.114  0.5589 -0.0351  0.5869
 6989TIP3    H142382   3.371   5.065   3.104  1.0459 -0.4339  0.6881
 6989TIP3    H242383   3.444   5.145   3.209  1.9944 -0.9640  0.4432
 6990TIP3   OH242384   1.528   3.173   3.096  0.0118  0.0155 -0.0034
 6990TIP3    H142385   1.473   3.123   3.155 -0.8574  1.7837  0.7739
 6990TIP3    H242386   1.584   3.226   3.154  1.7427 -0.8755 -0.7773
 6991TIP3   OH242387   2.808   1.470  17.031  0.4209 -0.0170 -1.1970
 6991TIP3    H142388   2.864   1.392  17.038  1.0144  0.3714 -1.4731
 6991TIP3    H242389   2.789   1.477  16.938 -1.7324 -1.2531 -0.9050
 6992TIP3   OH242390   4.811   3.714   5.225 -0.0515 -0.3858 -0.9626
 6992TIP3    H142391   4.756   3.790   5.206 -0.2035  0.9699  3.5559
 6992TIP3    H242392   4.776   3.644   5.171 -3.9459  1.3193 -0.9498
 6993TIP3   OH242393   6.382   6.637   2.800 -0.4697 -0.5440 -0.1164
 6993TIP3    H142394   6.466   6.591   2.798 -0.8385 -1.3332  1.3854
 6993TIP3    H242395   6.376   6.671   2.889 -1.1909  0.6134 -0.5778
 6994TIP3   OH242396   3.979   3.975   0.530  0.0086  0.1572 -0.0518
 6994TIP3    H142397   4.012   3.967   0.620  0.7524  0.7539 -0.2661
 6994TIP3    H242398   3.886   3.994   0.541  0.3235  1.3912  0.6279
 6995TIP3   OH242399   4.828   1.286   1.246  0.0238  0.3582  0.2770
 6995TIP3    H142400   4.780   1.252   1.322 -0.3882  1.9481  0.7664
 6995TIP3    H242401   4.844   1.378   1.267 -0.5945  0.9950 -1.8088
 6996TIP3   OH242402   0.736   1.419   0.769  0.3076 -0.1189  0.1483
 6996TIP3    H142403   0.652   1.465   0.781 -0.0364 -0.2872 -1.4181
 6996TIP3    H242404   0.798   1.488   0.745 -0.2328 -0.3872 -2.3123
 6997TIP3   OH242405   6.385   1.293   4.492  0.4938 -0.0293  0.0586
 6997TIP3    H142406   6.479   1.312   4.496  0.5447 -0.0395 -0.8975
 6997TIP3    H242407   6.348   1.365   4.443  0.4675 -1.5204 -2.2377
 6998TIP3   OH242408   4.652   0.537   1.514 -0.2328 -0.7982  0.7349
 6998TIP3    H142409   4.669   0.445   1.494  0.7403 -0.6973  1.0220
 6998TIP3    H242410   4.732   0.582   1.488 -1.1085  0.1419 -0.4244
 6999TIP3   OH242411   2.300   4.650  13.558 -0.0300  0.0178  0.3642
 6999TIP3    H142412   2.256   4.616  13.480 -2.2376 -0.0791  1.5995
 6999TIP3    H242413   2.393   4.653  13.533 -0.6361 -0.1950 -2.1848
 7000TIP3   OH242414   6.733   0.785  15.608  0.0808  0.5031 -0.0750
 7000TIP3    H142415   6.650   0.738  15.601 -0.1608  0.9036  0.0370
 7000TIP3    H242416   6.797   0.718  15.634 -0.2515  0.2344  0.0587
 7001TIP3   OH242417   4.203   4.720  12.119 -0.1508  0.0919 -0.8764
 7001TIP3    H142418   4.152   4.709  12.199  0.5451 -1.7797 -0.6612
 7001TIP3    H242419   4.150   4.779  12.066 -1.2857  0.2688  0.3900
 7002TIP3   OH242420   5.212   4.116  12.499  0.4449  0.1684  0.1043
 7002TIP3    H142421   5.246   4.205  12.504  0.4240  0.2484 -0.9078
 7002TIP3    H242422   5.254   4.070  12.572 -0.0623  1.1608  1.0451
 7003TIP3   OH242423   1.094   1.135  13.378  0.7502 -0.0175  0.1439
 7003TIP3    H142424   1.127   1.165  13.294  1.3738  0.0223  0.3996
 7003TIP3    H242425   1.134   1.193  13.442 -0.2018  0.3510  0.4329
 7004TIP3   OH242426   0.612   2.898  11.254 -0.4958  0.6413 -0.8493
 7004TIP3    H142427   0.609   2.994  11.260 -2.1983  0.5195  1.0582
 7004TIP3    H242428   0.666   2.881  11.176 -0.4983  3.1320 -1.4809
 7005TIP3   OH242429   5.572   5.360  17.183 -0.1432 -0.1522 -0.0362
 7005TIP3    H142430   5.479   5.337  17.195 -0.0846 -1.7835 -2.1854
 7005TIP3    H242431   5.620   5.285  17.218  0.5258  1.4760  2.8108
 7006TIP3   OH242432   5.950   0.488  15.380  0.1839 -0.2761  0.4920
 7006TIP3    H142433   5.882   0.483  15.447 -0.1959  1.3571  0.2713
 7006TIP3    H242434   5.979   0.398  15.368 -2.7437 -1.2173 -0.2392
 7007TIP3   OH242435   0.952   4.729   0.134 -0.6202 -0.3241  0.2212
 7007TIP3    H142436   0.882   4.685   0.085 -1.2602  1.5987 -0.7379
 7007TIP3    H242437   1.010   4.764   0.066 -1.7850  2.8241  0.6304
 7008TIP3   OH242438   5.363   5.608   4.601 -0.5974 -0.5630  0.1396
 7008TIP3    H142439   5.452   5.631   4.628 -0.8222  0.7164 -0.1332
 7008TIP3    H242440   5.346   5.524   4.642  0.7332 -0.8158  0.2108
 7009TIP3   OH242441   1.223   2.139   0.237 -0.3850 -0.2263 -0.0588
 7009TIP3    H142442   1.160   2.164   0.170  0.4105  0.4434 -0.5651
 7009TIP3    H242443   1.281   2.214   0.246  1.4260 -1.4397 -0.8736
 7010TIP3   OH242444   1.642   0.405   4.136  0.5769 -0.1013  0.4109
 7010TIP3    H142445   1.588   0.361   4.202  0.1071  0.0568  0.1395
 7010TIP3    H242446   1.592   0.483   4.114  0.1133 -0.7692 -1.0334
 7011TIP3   OH242447   2.374   6.226  12.154 -0.1180 -0.4013 -0.2994
 7011TIP3    H142448   2.290   6.220  12.108 -0.8514  0.1195  0.9020
 7011TIP3    H242449   2.381   6.319  12.177 -0.3001 -0.7950  1.5059
 7012TIP3   OH242450   1.837   6.774  15.468  0.6872  0.4104 -0.3344
 7012TIP3    H142451   1.812   6.723  15.391 -0.3246 -0.6812  0.6715
 7012TIP3    H242452   1.933   6.779  15.463  0.6311  0.4815 -1.7108
 7013TIP3   OH242453   1.174   3.152  13.761 -0.1497 -0.2231 -0.0652
 7013TIP3    H142454   1.221   3.179  13.840 -0.2275 -0.3367  0.0208
 7013TIP3    H242455   1.213   3.204  13.691 -1.7966  1.8126  0.4172
 7014TIP3   OH242456   1.293   4.033   5.768  0.1350 -0.1389 -0.4041
 7014TIP3    H142457   1.287   3.966   5.835 -0.3932 -0.2606 -0.5667
 7014TIP3    H242458   1.202   4.047   5.740 -0.0013  1.8898  0.8392
 7015TIP3   OH242459   3.718   0.224   2.248 -0.1984  0.2961  0.1015
 7015TIP3    H142460   3.657   0.256   2.181  0.0687 -0.3275 -0.4446
 7015TIP3    H242461   3.669   0.157   2.295  0.3723 -0.9249 -0.9862
 7016TIP3   OH242462   2.464   5.962   1.072  0.1974 -0.2362  0.5599
 7016TIP3    H142463   2.421   6.014   1.140 -2.0376 -1.8465  0.4604
 7016TIP3    H242464   2.397   5.902   1.041  1.7599 -0.9570 -1.6504
 7017TIP3   OH242465   4.662   2.959   5.405 -0.8189  0.1252 -0.0105
 7017TIP3    H142466   4.612   2.879   5.385 -0.3221 -0.3043  0.4223
 7017TIP3    H242467   4.607   3.030   5.373 -0.9098 -0.4303 -1.1564
 7018TIP3   OH242468   2.890   2.275  17.079 -0.7511 -0.5152 -0.0889
 7018TIP3    H142469   2.930   2.303  16.997  0.0897 -0.2564  0.3949
 7018TIP3    H242470   2.947   2.204  17.110 -1.5130 -1.1483 -0.1179
 7019TIP3   OH242471   5.044   6.710  14.448 -0.3368 -0.2365  0.0438
 7019TIP3    H142472   4.970   6.664  14.486 -1.6201  1.3430 -0.4239
 7019TIP3    H242473   5.121   6.667  14.484 -1.4714 -1.9310  0.5400
 7020TIP3   OH242474   4.153   1.590  11.676  0.1399  0.4941 -0.3975
 7020TIP3    H142475   4.096   1.645  11.622 -1.2539 -0.5984 -0.0928
 7020TIP3    H242476   4.179   1.519  11.617  0.8349  0.7426 -0.3971
 7021TIP3   OH242477   5.485   0.184   1.367 -0.5337  0.2919  0.2449
 7021TIP3    H142478   5.518   0.094   1.375  0.4955  0.3567 -2.4832
 7021TIP3    H242479   5.553   0.230   1.319 -2.5967  1.6129 -1.5643
 7022TIP3   OH242480   2.972   4.106   2.096 -0.1296 -0.2259 -0.2061
 7022TIP3    H142481   2.920   4.110   2.016  2.1146 -0.0280 -1.7463
 7022TIP3    H242482   2.951   4.187   2.143 -0.3269  0.4284 -1.3878
 7023TIP3   OH242483   0.492   6.066   2.263  0.3074 -0.6356 -0.4706
 7023TIP3    H142484   0.587   6.063   2.276  0.2599 -0.5377 -0.0911
 7023TIP3    H242485   0.463   5.976   2.280  0.1059 -0.2849  1.2661
 7024TIP3   OH242486   3.309   3.999   4.722 -0.2161  0.2547  0.3247
 7024TIP3    H142487   3.334   4.065   4.658 -1.4014  1.0965  0.7019
 7024TIP3    H242488   3.384   3.995   4.782  0.1105  0.8310 -0.0276
 7025TIP3   OH242489   4.733   0.132  10.953  0.0178  0.5638 -0.1871
 7025TIP3    H142490   4.795   0.066  10.922 -0.0385  0.8861 -0.9857
 7025TIP3    H242491   4.669   0.141  10.883 -0.2232  1.1563  0.0993
 7026TIP3   OH242492   0.824   0.305  15.473 -0.0150 -0.1151  0.2882
 7026TIP3    H142493   0.911   0.275  15.499  0.2280  0.6620  0.3882
 7026TIP3    H242494   0.800   0.248  15.400  0.7985  0.0067 -0.0819
 7027TIP3   OH242495   6.492   4.759  16.967  0.8395  0.2782 -0.4510
 7027TIP3    H142496   6.501   4.804  17.051  1.5690  1.1032 -0.9502
 7027TIP3    H242497   6.533   4.818  16.904 -0.0230 -0.1476 -1.4539
 7028TIP3   OH242498   3.489   2.596   0.355  0.1283  0.0231 -0.0675
 7028TIP3    H142499   3.512   2.682   0.320  0.3177 -0.6144 -1.6215
 7028TIP3    H242500   3.399   2.582   0.326  0.4678 -0.7438 -0.7802
 7029TIP3   OH242501   0.789   1.886  11.563  0.0942  0.6575  0.0743
 7029TIP3    H142502   0.848   1.962  11.565  0.6944  0.2090 -0.1711
 7029TIP3    H242503   0.748   1.889  11.477  0.8661  0.1617 -0.3275
 7030TIP3   OH242504   0.306   6.363  16.209 -0.0690  0.2309  0.7029
 7030TIP3    H142505   0.395   6.358  16.175 -0.9659 -2.4919 -1.6931
 7030TIP3    H242506   0.271   6.445  16.175 -0.4869 -1.7124 -4.4958
 7031TIP3   OH242507   0.736   4.612  15.295 -0.6304  0.7630  0.0424
 7031TIP3    H142508   0.825   4.639  15.271  0.0029  0.3861  1.8148
 7031TIP3    H242509   0.690   4.604  15.212  1.7567 -1.7338 -1.1801
 7032TIP3   OH242510   1.300   6.414   1.714 -0.1729  0.4672  0.3386
 7032TIP3    H142511   1.233   6.352   1.683 -0.1668  0.3888  0.4803
 7032TIP3    H242512   1.313   6.390   1.806  0.8953 -0.2829  0.0128
 7033TIP3   OH242513   2.212   0.055   2.682  0.4302  0.1558  0.0585
 7033TIP3    H142514   2.144   0.109   2.642  1.6156  0.4369 -1.6458
 7033TIP3    H242515   2.222   0.091   2.770 -0.5732  1.0694 -0.1833
 7034TIP3   OH242516   2.070   2.199  10.591  0.6558 -0.1746 -0.1528
 7034TIP3    H142517   2.151   2.250  10.587  0.5421  0.1904  1.4623
 7034TIP3    H242518   2.001   2.262  10.569  0.7288 -0.2575 -0.6222
 7035TIP3   OH242519   2.469   0.916  10.983 -0.0832  0.4226  0.0672
 7035TIP3    H142520   2.495   0.934  11.074  0.1538  1.4491 -0.1862
 7035TIP3    H242521   2.471   0.821  10.976  0.9035  0.3602  0.8531
 7036TIP3   OH242522   0.726   2.085  15.801  0.3171  0.2743  0.6336
 7036TIP3    H142523   0.737   2.025  15.875  0.3096 -0.6861 -0.1168
 7036TIP3    H242524   0.632   2.083  15.784  0.4373 -0.2832 -0.0105
 7037TIP3   OH242525   5.133   3.648  12.156 -0.2365  0.0458  0.1559
 7037TIP3    H142526   5.151   3.717  12.092  0.9947 -0.8126 -0.4762
 7037TIP3    H242527   5.110   3.695  12.237 -0.5970  1.1602 -0.5736
 7038TIP3   OH242528   4.859   6.263   4.575 -0.3178 -0.3459  0.7957
 7038TIP3    H142529   4.928   6.242   4.638  0.6681 -1.5671 -0.6136
 7038TIP3    H242530   4.905   6.268   4.491 -1.8092 -0.2090 -0.0431
 7039TIP3   OH242531   4.946   1.060   5.057  0.3036  0.2268  0.1857
 7039TIP3    H142532   4.902   1.136   5.020 -0.8669 -0.9216 -0.8845
 7039TIP3    H242533   4.938   1.071   5.152 -0.6057  0.9917  0.0318
 7040TIP3   OH242534   2.085   4.129   2.487 -0.6391 -0.6756 -0.2729
 7040TIP3    H142535   2.122   4.144   2.574  2.2512 -3.2056 -0.8770
 7040TIP3    H242536   2.069   4.035   2.484 -1.0316 -0.5895 -2.3444
 7041TIP3   OH242537   6.131   3.353   0.916 -0.2966 -0.3361 -0.1768
 7041TIP3    H142538   6.187   3.320   0.845  0.9237  1.5216 -0.1594
 7041TIP3    H242539   6.175   3.432   0.946 -0.7639 -1.0587  2.7151
 7042TIP3   OH242540   2.346   2.895  12.533  0.4571 -0.0852  0.0451
 7042TIP3    H142541   2.284   2.924  12.600 -0.4065  1.6426 -1.4118
 7042TIP3    H242542   2.365   2.804  12.555 -3.7577 -1.2484 -0.2263
 7043TIP3   OH242543   4.616   0.200  11.384  0.3519  0.2333 -0.5923
 7043TIP3    H142544   4.692   0.154  11.420 -0.0289 -2.6050 -2.9994
 7043TIP3    H242545   4.543   0.174  11.441  0.7409  1.0114  0.2927
 7044TIP3   OH242546   5.017   0.365   0.418  0.0172  0.5488 -0.2584
 7044TIP3    H142547   5.067   0.367   0.336  0.8568  1.0236  0.2512
 7044TIP3    H242548   4.929   0.336   0.392  0.6422 -0.6760 -1.1285
 7045TIP3   OH242549   3.869   1.118   0.944  0.1036  0.8122 -0.3157
 7045TIP3    H142550   3.960   1.149   0.947  0.2152  0.5141 -0.6575
 7045TIP3    H242551   3.847   1.102   1.036  1.0825 -1.1264 -0.3650
 7046TIP3   OH242552   3.642   1.410   6.341 -0.3368  0.0311  0.7660
 7046TIP3    H142553   3.736   1.421   6.327 -0.5192  0.3570 -0.3097
 7046TIP3    H242554   3.613   1.493   6.380 -0.3703  0.4003 -0.0200
 7047TIP3   OH242555   5.110   1.006  11.346 -0.8357 -0.5676 -0.3802
 7047TIP3    H142556   5.032   1.061  11.349  0.4878  1.3670  1.8315
 7047TIP3    H242557   5.152   1.029  11.264  0.3529  2.9006  1.0407
 7048TIP3   OH242558   3.255   6.404   0.791 -0.0072 -0.3075 -0.2095
 7048TIP3    H142559   3.337   6.422   0.745 -0.8625  2.5402 -0.8229
 7048TIP3    H242560   3.196   6.373   0.723  0.1395 -0.9917 -0.0326
 7049TIP3   OH242561   6.765   1.197   2.649  0.1504 -0.7520  0.3600
 7049TIP3    H142562   6.740   1.286   2.671  1.5718 -0.4757  0.9855
 7049TIP3    H242563   6.718   1.178   2.568 -1.6833 -0.1540  1.2111
 7050TIP3   OH242564   5.132   1.564  16.128 -0.3579 -0.4699 -0.3133
 7050TIP3    H142565   5.124   1.610  16.045  1.4323 -1.3590 -1.0370
 7050TIP3    H242566   5.129   1.471  16.105  3.1869 -0.8239  0.1027
 7051TIP3   OH242567   5.334   2.350  14.068  0.4314  0.0342  0.0183
 7051TIP3    H142568   5.398   2.317  14.005 -0.0065  0.4245 -0.6419
 7051TIP3    H242569   5.387   2.388  14.138  0.9422  1.3501 -1.0409
 7052TIP3   OH242570   5.044   3.130   1.182  0.3491  0.1775 -0.1622
 7052TIP3    H142571   5.043   3.156   1.089  0.2068  2.4397  0.4246
 7052TIP3    H242572   5.134   3.148   1.211  0.2732 -0.1147  0.2693
 7053TIP3   OH242573   4.052   3.452  16.409  0.0856  0.0115 -0.7985
 7053TIP3    H142574   4.112   3.470  16.336  0.7171  1.4240  0.0306
 7053TIP3    H242575   4.082   3.509  16.479  0.1125 -2.0235  0.9411
 7054TIP3   OH242576   2.851   0.663   2.588 -0.6541  0.3864 -0.3686
 7054TIP3    H142577   2.894   0.749   2.584  0.9796 -0.2727  1.4246
 7054TIP3    H242578   2.809   0.663   2.674  0.3933 -1.0294  0.1763
 7055TIP3   OH242579   0.652   3.528  15.483 -0.2991 -0.3191 -0.3764
 7055TIP3    H142580   0.632   3.555  15.572  2.2823  0.9006 -0.0641
 7055TIP3    H242581   0.653   3.433  15.486  1.6710 -0.3188  1.4780
 7056TIP3   OH242582   4.046   4.822   3.143  0.4483 -0.1878 -0.1289
 7056TIP3    H142583   4.079   4.893   3.197  0.7969 -1.2405  1.1001
 7056TIP3    H242584   3.956   4.846   3.124  1.1225  1.5302 -1.4452
 7057TIP3   OH242585   3.904   6.483   5.859 -0.2779  0.3804 -0.7298
 7057TIP3    H142586   3.895   6.527   5.774 -0.2943  1.8757  0.0230
 7057TIP3    H242587   3.978   6.423   5.847 -0.3042  0.5403 -1.8057
 7058TIP3   OH242588   6.146   0.900  17.260 -0.0626 -0.1216 -0.3469
 7058TIP3    H142589   6.108   0.817  17.289 -0.3312  0.4543  1.0363
 7058TIP3    H242590   6.233   0.901  17.300 -0.7502  1.0649  1.2517
 7059TIP3   OH242591   3.340   5.807  13.422 -0.4335  0.4720 -0.1695
 7059TIP3    H142592   3.343   5.902  13.430  1.3449  0.4384  0.0304
 7059TIP3    H242593   3.379   5.775  13.503  1.8119 -0.3165 -1.4704
 7060TIP3   OH242594   3.474   1.995  10.761 -0.6291  0.3105  0.1010
 7060TIP3    H142595   3.542   2.029  10.703 -1.6336 -0.0699 -1.3503
 7060TIP3    H242596   3.425   1.933  10.708 -0.4696 -1.4913  1.9153
 7061TIP3   OH242597   0.317   6.690  14.513  0.7988 -0.6132 -0.4225
 7061TIP3    H142598   0.338   6.618  14.573 -0.1426  0.7163  1.5935
 7061TIP3    H242599   0.336   6.769  14.563 -2.1053  0.5829 -1.0490
 7062TIP3   OH242600   2.265   5.661  12.068  0.6953 -0.2487  0.4415
 7062TIP3    H142601   2.313   5.620  11.996 -0.4248  1.1527 -1.2137
 7062TIP3    H242602   2.289   5.754  12.062  0.5047 -0.0896  1.8462
 7063TIP3   OH242603   4.565   4.229   0.351 -0.2719  0.0844  0.1490
 7063TIP3    H142604   4.569   4.148   0.400 -1.1321 -1.0714 -1.5962
 7063TIP3    H242605   4.593   4.296   0.413  1.3139 -1.6235  1.3845
 7064TIP3   OH242606   2.542   4.392  15.054  0.3707  0.4120  0.0204
 7064TIP3    H142607   2.597   4.377  14.977 -1.5609 -0.0306 -1.3529
 7064TIP3    H242608   2.552   4.485  15.074  2.6284  0.0851  0.6824
 7065TIP3   OH242609   4.999   0.725   0.216 -0.4968  0.5140 -0.0446
 7065TIP3    H142610   4.920   0.671   0.211  0.1928 -0.6120  0.7192
 7065TIP3    H242611   4.982   0.785   0.289 -0.1161 -0.6686  1.0484
 7066TIP3   OH242612   5.924   5.902  13.778  0.1045  0.1535 -0.1673
 7066TIP3    H142613   5.997   5.840  13.781  0.2331  0.1986 -1.6611
 7066TIP3    H242614   5.854   5.857  13.826  0.4440 -0.8165 -0.5466
 7067TIP3   OH242615   2.620   5.070   0.091 -0.3774  0.0537  0.0616
 7067TIP3    H142616   2.684   5.122   0.139  1.0178 -0.8406 -0.7757
 7067TIP3    H242617   2.646   4.979   0.106 -2.2404 -0.4277  0.7559
 7068TIP3   OH242618   5.233   3.870  16.765 -0.0985 -0.0462  0.1780
 7068TIP3    H142619   5.163   3.927  16.732 -1.4432 -0.9727  1.3248
 7068TIP3    H242620   5.305   3.883  16.702 -1.1241  1.2435 -0.8130
 7069TIP3   OH242621   4.969   3.348  11.623  0.5476 -0.2559  0.4206
 7069TIP3    H142622   4.938   3.438  11.612  1.9623 -0.0071 -2.7345
 7069TIP3    H242623   5.058   3.349  11.586 -0.0701 -3.2876 -1.5432
 7070TIP3   OH242624   4.853   0.846   5.562 -0.6753 -0.0991 -0.6182
 7070TIP3    H142625   4.859   0.768   5.617 -1.8748  0.9179  1.0603
 7070TIP3    H242626   4.761   0.872   5.568  0.4288  4.1702  2.9691
 7071TIP3   OH242627   5.855   1.438  12.127 -0.4170 -0.3198 -0.1265
 7071TIP3    H142628   5.898   1.384  12.060  1.1075 -0.6893  1.0898
 7071TIP3    H242629   5.763   1.414  12.122 -0.1213 -1.2942 -1.2199
 7072TIP3   OH242630   2.726   6.435   0.402  0.1789 -0.0249  0.7492
 7072TIP3    H142631   2.784   6.376   0.450  0.1390 -1.5228 -0.9186
 7072TIP3    H242632   2.783   6.505   0.371  0.4883  0.1352  1.6598
 7073TIP3   OH242633   4.608   5.294  11.228 -0.4459 -0.3169  0.2033
 7073TIP3    H142634   4.526   5.252  11.203 -1.0356  0.5954  0.5440
 7073TIP3    H242635   4.584   5.357  11.295  0.4648  0.2743  0.0047
 7074TIP3   OH242636   5.301   2.056   4.673 -0.2221 -0.1499 -0.0529
 7074TIP3    H142637   5.251   2.134   4.648 -1.6453 -0.7305  0.8353
 7074TIP3    H242638   5.386   2.089   4.700 -0.6412  1.0531 -0.1307
 7075TIP3   OH242639   4.840   4.649   0.896 -0.0087  0.1165 -0.2551
 7075TIP3    H142640   4.861   4.741   0.880  1.7743 -0.3908 -1.0560
 7075TIP3    H242641   4.863   4.604   0.815 -1.8591 -0.9219 -0.2608
 7076TIP3   OH242642   4.316   5.123   3.752  0.0267  0.2169 -0.2847
 7076TIP3    H142643   4.322   5.208   3.709 -2.0577  0.1850 -0.7581
 7076TIP3    H242644   4.350   5.061   3.687  0.1258  0.5323 -0.5382
 7077TIP3   OH242645   3.338   2.376   2.996 -0.2654 -0.6855 -0.3005
 7077TIP3    H142646   3.330   2.461   3.040 -2.4414 -0.4744 -0.9697
 7077TIP3    H242647   3.256   2.331   3.017  0.9142 -2.7355  0.1993
 7078TIP3   OH242648   5.304   3.709  11.431 -0.1360 -0.3808  0.5308
 7078TIP3    H142649   5.391   3.721  11.393 -0.2634 -0.0563  0.3396
 7078TIP3    H242650   5.294   3.782  11.492 -0.6787  0.1611 -0.1950
 7079TIP3   OH242651   4.870   2.404   1.547 -0.1036 -0.5670  0.1636
 7079TIP3    H142652   4.793   2.422   1.494  0.8596 -0.9446 -1.4453
 7079TIP3    H242653   4.937   2.463   1.513  0.9169 -1.7467  0.0419
 7080TIP3   OH242654   3.227   1.162  15.673 -0.4272 -0.2213 -0.1497
 7080TIP3    H142655   3.187   1.232  15.621 -1.2175 -0.1196  0.5634
 7080TIP3    H242656   3.152   1.119  15.715  0.0862 -1.2178 -0.2369
 7081TIP3   OH242657   5.786   3.813   2.904 -0.0307 -0.6516  0.4447
 7081TIP3    H142658   5.764   3.901   2.876  2.0963  0.0905  0.9501
 7081TIP3    H242659   5.881   3.807   2.896  0.1206 -2.1721  2.4097
 7082TIP3   OH242660   0.739   3.007  16.341 -0.7390  0.2147  0.2613
 7082TIP3    H142661   0.827   2.998  16.304 -0.4904 -1.7963  1.1667
 7082TIP3    H242662   0.730   3.099  16.362  0.4824  0.7668 -1.4365
 7083TIP3   OH242663   5.491   0.097   5.596  0.1993  0.3622  0.3645
 7083TIP3    H142664   5.456   0.029   5.654  1.0415 -0.3365  0.0660
 7083TIP3    H242665   5.473   0.179   5.643 -0.2899 -0.0977  1.0074
 7084TIP3   OH242666   5.062   6.333  13.799 -0.0558  0.1022  0.0865
 7084TIP3    H142667   4.972   6.359  13.819 -0.3638 -0.7724 -0.1250
 7084TIP3    H242668   5.056   6.290  13.714  0.6756  0.6181 -0.2410
 7085TIP3   OH242669   1.874   1.376  15.236 -0.1548  0.2987 -0.3889
 7085TIP3    H142670   1.789   1.336  15.250  0.1633 -0.5223 -0.7320
 7085TIP3    H242671   1.895   1.358  15.144  0.4622  0.3492 -0.2667
 7086TIP3   OH242672   3.959   4.173   3.886 -0.3160 -0.2469 -0.0906
 7086TIP3    H142673   3.905   4.095   3.904  1.3442 -1.2270  0.8825
 7086TIP3    H242674   3.911   4.219   3.817  0.3024 -3.9335 -3.3041
 7087TIP3   OH242675   0.335   6.778  15.191 -0.0944 -0.1413 -0.0845
 7087TIP3    H142676   0.395   6.810  15.123  0.0992 -1.1240 -0.3930
 7087TIP3    H242677   0.389   6.773  15.270 -0.2819  0.8581  0.1216
 7088TIP3   OH242678   2.608   5.071   4.183 -0.3230 -0.2606 -0.2101
 7088TIP3    H142679   2.591   4.983   4.215  0.6879  0.1487  1.5669
 7088TIP3    H242680   2.663   5.111   4.250  1.8030  0.7324 -2.3959
 7089TIP3   OH242681   4.670   3.918  12.987 -0.1464  0.3256 -0.1619
 7089TIP3    H142682   4.629   3.852  13.044  0.1878 -0.7983 -1.1767
 7089TIP3    H242683   4.630   4.001  13.014 -1.6522 -0.4690  0.1883
 7090TIP3   OH242684   6.430   4.266   0.761  0.2698 -0.0849 -0.0318
 7090TIP3    H142685   6.504   4.310   0.719  0.9361  0.5961  1.7329
 7090TIP3    H242686   6.388   4.335   0.813 -1.4493 -0.5350 -0.7702
 7091TIP3   OH242687   6.549   6.709   0.104 -0.0027  0.4833  0.0512
 7091TIP3    H142688   6.623   6.770   0.103 -1.2714  2.1678 -2.7193
 7091TIP3    H242689   6.491   6.743   0.172 -1.6051  3.8119 -2.6816
 7092TIP3   OH242690   0.816   1.059  13.760 -0.7984  0.1744  0.4875
 7092TIP3    H142691   0.791   1.079  13.850  1.3676 -0.8501  1.3792
 7092TIP3    H242692   0.855   1.140  13.727 -0.1550  0.0949  1.0341
 7093TIP3   OH242693   1.917   1.103  14.828  0.3542  0.3614  0.2433
 7093TIP3    H142694   2.008   1.129  14.841  0.4010 -0.5672  2.2697
 7093TIP3    H242695   1.915   1.011  14.852 -0.4468 -0.7680 -3.5257
 7094TIP3   OH242696   6.458   0.733  12.435 -0.4795 -0.5696 -0.1504
 7094TIP3    H142697   6.464   0.767  12.524 -0.8366  2.2112 -1.0749
 7094TIP3    H242698   6.546   0.701  12.416 -0.6797 -2.2519  1.5268
 7095TIP3   OH242699   0.107   0.157  17.131 -0.0920 -0.5476  0.7432
 7095TIP3    H142700   0.049   0.195  17.196  2.0619  2.5708  1.0529
 7095TIP3    H242701   0.137   0.231  17.079  2.8284 -2.1093 -0.0211
 7096TIP3   OH242702   3.631   0.874   4.134 -0.2781 -0.1987  0.0935
 7096TIP3    H142703   3.580   0.938   4.185  1.0352 -1.0752  2.7097
 7096TIP3    H242704   3.692   0.927   4.083 -1.4716  0.7195 -0.4295
 7097TIP3   OH242705   4.339   2.863  12.186 -0.6007  0.5432  0.3788
 7097TIP3    H142706   4.398   2.812  12.240  1.1175  0.3844 -1.5203
 7097TIP3    H242707   4.263   2.806  12.173 -0.1458 -0.2116  0.9582
 7098TIP3   OH242708   5.658   6.488  10.723  0.0102  0.0208 -0.0099
 7098TIP3    H142709   5.598   6.530  10.784 -0.7680 -0.7515 -0.2288
 7098TIP3    H242710   5.678   6.556  10.658 -0.6786  0.2633  0.0281
 7099TIP3   OH242711   3.064   6.595   5.966  0.6748 -0.5411  0.1633
 7099TIP3    H142712   2.976   6.562   5.986  1.3158 -1.1983  2.0416
 7099TIP3    H242713   3.062   6.609   5.871 -0.9331 -2.1276 -0.1056
 7100TIP3   OH242714   4.229   0.878   0.881  0.2766  0.1898  0.2757
 7100TIP3    H142715   4.205   0.831   0.802  2.3145 -0.7164  0.1184
 7100TIP3    H242716   4.184   0.831   0.951  0.6104 -0.7384 -0.1032
 7101TIP3   OH242717   4.218   3.031  13.579  0.5505 -0.3638 -0.3187
 7101TIP3    H142718   4.183   3.117  13.601 -1.1975 -0.4203 -2.4662
 7101TIP3    H242719   4.273   3.047  13.502  0.8179 -1.0549 -0.2746
 7102TIP3   OH242720   0.443   6.494   2.455 -0.4086  0.3260 -0.2940
 7102TIP3    H142721   0.384   6.552   2.503  0.5953  1.8238 -0.7932
 7102TIP3    H242722   0.531   6.519   2.484  0.0296 -2.3686  0.9922
 7103TIP3   OH242723   6.625   2.228   6.383 -0.0084 -0.0086  0.1532
 7103TIP3    H142724   6.595   2.301   6.328  0.6283 -0.4750 -0.8478
 7103TIP3    H242725   6.545   2.178   6.401  0.0372 -1.2462 -2.4861
 7104TIP3   OH242726   4.565   0.311   4.148  0.6121  0.1519  0.0427
 7104TIP3    H142727   4.478   0.293   4.184  0.8893 -3.7486 -0.8268
 7104TIP3    H242728   4.549   0.337   4.057  0.2859 -1.0747 -0.2768
 7105TIP3   OH242729   5.050   4.170  16.459 -0.0359 -0.2835 -0.1130
 7105TIP3    H142730   5.017   4.256  16.433  0.6337  0.5676  1.6839
 7105TIP3    H242731   5.145   4.175  16.444  0.2616 -0.0258  1.6671
 7106TIP3   OH242732   6.711   4.220   5.955 -0.2576  0.6336 -0.0108
 7106TIP3    H142733   6.669   4.304   5.973 -0.1323  0.4915  0.9749
 7106TIP3    H242734   6.657   4.156   5.999 -1.5617 -0.0948 -2.4574
 7107TIP3   OH242735   0.415   5.244  15.857  0.9106 -0.2918  0.4008
 7107TIP3    H142736   0.486   5.242  15.921 -0.1020 -1.5593  1.5379
 7107TIP3    H242737   0.437   5.316  15.798  2.5735  0.0167  1.3655
 7108TIP3   OH242738   2.191   2.378   3.232  0.0303  0.9313 -0.1200
 7108TIP3    H142739   2.138   2.387   3.152  0.1532 -0.2541 -0.3607
 7108TIP3    H242740   2.147   2.310   3.282  1.1972  0.0662 -0.2322
 7109TIP3   OH242741   4.576   5.033   3.557  0.7302 -0.2614  0.6419
 7109TIP3    H142742   4.651   4.977   3.575  0.0256 -1.2691  0.4971
 7109TIP3    H242743   4.593   5.112   3.608  1.0727 -1.1669  1.9790
 7110TIP3   OH242744   6.428   5.662   5.036  0.3634  0.0266  0.4523
 7110TIP3    H142745   6.467   5.739   4.994  0.9853 -0.5924 -0.1327
 7110TIP3    H242746   6.350   5.696   5.080 -0.8487  0.5738 -1.9477
 7111TIP3   OH242747   2.990   3.826  13.299 -0.2731 -0.2505  0.3085
 7111TIP3    H142748   2.936   3.869  13.365  0.9070 -0.4834  1.4506
 7111TIP3    H242749   3.021   3.897  13.243  0.3390  0.2053  1.2055
 7112TIP3   OH242750   1.814   0.402  14.143 -0.3659  0.1052  0.1739
 7112TIP3    H142751   1.876   0.363  14.081 -1.1775 -0.2695 -0.4271
 7112TIP3    H242752   1.828   0.496  14.135 -0.4731  0.0650 -0.6080
 7113TIP3   OH242753   5.597   1.553   0.341  0.5143  0.5650 -0.0054
 7113TIP3    H142754   5.608   1.510   0.426 -0.1376 -0.2264 -0.3050
 7113TIP3    H242755   5.535   1.497   0.294  2.1680  0.0204 -1.6553
 7114TIP3   OH242756   5.915   2.051   6.056  0.0366 -0.5235  0.2996
 7114TIP3    H142757   5.917   1.968   6.102 -1.8224 -0.4625  0.5635
 7114TIP3    H242758   6.007   2.069   6.035  0.4284 -2.9531 -0.3657
 7115TIP3   OH242759   3.250   2.640  14.356 -0.7050  0.3752  0.6814
 7115TIP3    H142760   3.295   2.723  14.335 -0.7795  0.0567 -0.9007
 7115TIP3    H242761   3.161   2.666  14.380 -1.0871  0.7121 -0.9823
 7116TIP3   OH242762   1.786   3.329  11.018  0.6588  0.2413  0.1125
 7116TIP3    H142763   1.851   3.323  10.948  0.4160  1.7516 -0.2822
 7116TIP3    H242764   1.816   3.403  11.072  0.2194 -0.1738  0.9418
 7117TIP3   OH242765   5.299   5.968  14.219  0.0772  0.1913  0.8484
 7117TIP3    H142766   5.323   6.052  14.258  2.1161  0.7415 -1.3945
 7117TIP3    H242767   5.237   5.991  14.150  1.7944  0.1205 -0.7913
 7118TIP3   OH242768   3.049   2.819   5.566 -0.1172  0.1994 -0.3650
 7118TIP3    H142769   3.133   2.793   5.602 -0.6098  0.9348  1.4620
 7118TIP3    H242770   2.994   2.741   5.574 -0.2155  0.3459  0.5350
 7119TIP3   OH242771   6.253   1.569   5.226 -0.3970  0.2656 -0.2991
 7119TIP3    H142772   6.192   1.601   5.292 -0.6825  0.5596 -0.7076
 7119TIP3    H242773   6.200   1.515   5.168  0.0370 -0.7976  0.2577
 7120TIP3   OH242774   5.814   2.715  11.386  0.7966 -0.2928 -0.1114
 7120TIP3    H142775   5.889   2.766  11.354  0.7160  0.1158  0.3448
 7120TIP3    H242776   5.800   2.649  11.318  2.4403 -1.2489  0.4378
 7121TIP3   OH242777   1.486   1.372   5.052  0.0366 -0.4020 -0.5709
 7121TIP3    H142778   1.565   1.334   5.091 -0.3084 -0.1954  0.3601
 7121TIP3    H242779   1.515   1.407   4.968  1.3866  1.3259  0.5434
 7122TIP3   OH242780   4.261   0.528  16.231  0.1319 -0.0730  0.1377
 7122TIP3    H142781   4.298   0.484  16.307 -1.2202  0.6937  1.2712
 7122TIP3    H242782   4.336   0.573  16.191  0.7137  0.2333  1.5149
 7123TIP3   OH242783   1.168   6.393  13.344  0.5705 -0.6894 -0.2741
 7123TIP3    H142784   1.176   6.392  13.439  0.1104 -0.4617 -0.2261
 7123TIP3    H242785   1.199   6.308  13.315  2.6565 -0.0372 -0.0996
 7124TIP3   OH242786   3.682   4.458   4.131 -0.2777  0.3167  0.1440
 7124TIP3    H142787   3.637   4.524   4.078 -0.4435  0.1145  0.0301
 7124TIP3    H242788   3.705   4.503   4.212 -0.1596  0.5854 -0.0380
 7125TIP3   OH242789   6.029   2.259   2.611  0.3395 -0.0810  0.2030
 7125TIP3    H142790   6.116   2.288   2.636  1.1435 -1.2797 -1.0127
 7125TIP3    H242791   6.007   2.312   2.534  0.5337 -0.6052 -0.2210
 7126TIP3   OH242792   3.567   5.494  16.853  0.2831  0.1322  0.4826
 7126TIP3    H142793   3.549   5.406  16.820  0.2338  0.1903  0.3547
 7126TIP3    H242794   3.481   5.534  16.864  0.2461 -0.2365  1.6411
 7127TIP3   OH242795   2.922   0.444   5.905  0.5831 -0.3384  0.5369
 7127TIP3    H142796   3.004   0.452   5.857  1.1524  2.4113  1.7768
 7127TIP3    H242797   2.858   0.495   5.855  0.1965 -0.6388  0.7146
 7128TIP3   OH242798   4.243   1.117  12.358  0.1295 -0.4873 -0.3443
 7128TIP3    H142799   4.242   1.057  12.433  1.4757 -1.2029 -0.8713
 7128TIP3    H242800   4.219   1.063  12.283 -0.0690 -0.0322 -0.6124
 7129TIP3   OH242801   3.440   6.200  13.027 -0.0030 -0.0202 -0.0006
 7129TIP3    H142802   3.363   6.150  13.001 -0.4399  1.5788 -2.1217
 7129TIP3    H242803   3.507   6.176  12.962 -0.7096  3.1329 -2.1257
 7130TIP3   OH242804   3.371   2.220  12.902 -0.6656  0.1882  0.4160
 7130TIP3    H142805   3.304   2.283  12.876  0.9519  2.3566  1.1746
 7130TIP3    H242806   3.357   2.208  12.996 -0.3231  0.2678  0.4798
 7131TIP3   OH242807   4.462   1.980  15.395 -0.4544  0.0250 -0.4852
 7131TIP3    H142808   4.394   1.970  15.329 -1.4517  2.3143  0.1303
 7131TIP3    H242809   4.420   1.954  15.477 -0.7939  1.8805 -0.0297
 7132TIP3   OH242810   3.064   3.100  13.610 -0.1615  0.2479  0.0961
 7132TIP3    H142811   3.142   3.141  13.573 -0.2065 -0.7280 -1.1457
 7132TIP3    H242812   3.098   3.035  13.672 -0.0852  1.8512  1.8297
 7133TIP3   OH242813   4.615   3.430  15.894 -0.0281  0.3125 -0.0632
 7133TIP3    H142814   4.594   3.464  15.807 -0.7611  0.4333  0.1578
 7133TIP3    H242815   4.686   3.488  15.925  0.4329  0.0910 -0.6858
 7134TIP3   OH242816   2.509   6.328  15.804  0.1926 -0.6569  0.1623
 7134TIP3    H142817   2.556   6.355  15.725  0.4829 -1.9438 -0.1325
 7134TIP3    H242818   2.451   6.401  15.824 -0.8117 -0.7895 -1.9996
 7135TIP3   OH242819   3.177   0.392  13.478 -0.1793 -0.0320  0.2217
 7135TIP3    H142820   3.229   0.473  13.474  1.3924 -1.0026  0.0250
 7135TIP3    H242821   3.242   0.322  13.473 -1.5137 -1.3195  0.2918
 7136TIP3   OH242822   4.104   1.524  14.226 -0.3987  0.1937 -0.1526
 7136TIP3    H142823   4.113   1.582  14.301 -1.1425  0.8174 -0.5361
 7136TIP3    H242824   4.145   1.571  14.153  2.5253 -1.3942  0.2920
 7137TIP3   OH242825   2.562   6.271  11.774 -0.4803 -0.1889 -0.1899
 7137TIP3    H142826   2.551   6.231  11.860 -0.2604  0.1923  0.0191
 7137TIP3    H242827   2.528   6.360  11.785 -0.5378 -0.1678 -0.5239
 7138TIP3   OH242828   5.316   2.935   5.033  0.3848  0.0990  0.0426
 7138TIP3    H142829   5.347   2.870   4.971  0.8763  0.0528  0.3292
 7138TIP3    H242830   5.221   2.922   5.037  0.4391 -0.3659 -0.1623
 7139TIP3   OH242831   3.923   1.342   1.834  0.1411  0.1338 -0.0753
 7139TIP3    H142832   3.996   1.379   1.785 -0.3786  0.4225 -0.6467
 7139TIP3    H242833   3.845   1.372   1.787 -0.2947 -2.6127 -1.2363
 7140TIP3   OH242834   5.621   2.369  15.550 -0.0170  0.8136  0.0037
 7140TIP3    H142835   5.666   2.421  15.616 -0.2364 -1.2166  1.8513
 7140TIP3    H242836   5.528   2.387  15.564 -0.0343  0.8445 -0.1498
 7141TIP3   OH242837   1.126   6.589   3.835 -0.3539 -0.4618 -0.7137
 7141TIP3    H142838   1.136   6.512   3.890 -1.7366  0.8664  1.5920
 7141TIP3    H242839   1.215   6.619   3.818  0.1276 -1.4683 -0.0215
 7142TIP3   OH242840   4.361   4.660   5.153 -0.3697  0.1763 -0.4993
 7142TIP3    H142841   4.288   4.641   5.212 -1.9146 -1.8054 -2.8217
 7142TIP3    H242842   4.435   4.610   5.189 -0.3752  1.4228  1.3472
 7143TIP3   OH242843   4.518   1.301  12.051 -0.0497 -0.3550  0.4425
 7143TIP3    H142844   4.505   1.336  12.139 -1.3057  0.3596  0.0031
 7143TIP3    H242845   4.498   1.375  11.993  0.5266 -0.8839 -0.4427
 7144TIP3   OH242846   5.345   5.692   2.707  0.3660 -0.0830  0.0222
 7144TIP3    H142847   5.313   5.602   2.713  2.7988 -1.0580 -0.3121
 7144TIP3    H242848   5.266   5.746   2.714 -1.4081 -2.2660 -1.5396
 7145TIP3   OH242849   3.000   1.040   5.900 -0.3101  0.3031  0.1995
 7145TIP3    H142850   2.936   1.037   5.971  1.0032 -0.3814  1.4150
 7145TIP3    H242851   3.040   1.127   5.907  0.7508 -0.2280  1.2201
 7146TIP3   OH242852   0.840   2.096  15.118 -0.0973 -0.0884  0.1206
 7146TIP3    H142853   0.869   2.031  15.055  0.7967 -1.5814  1.9707
 7146TIP3    H242854   0.748   2.113  15.095 -0.9595 -3.4141  0.6400
 7147TIP3   OH242855   6.189   0.828   2.991 -0.0951 -0.0369 -0.3492
 7147TIP3    H142856   6.200   0.773   2.913 -0.8544  1.5846 -1.6738
 7147TIP3    H242857   6.099   0.811   3.020  0.3218 -0.9517  0.4631
 7148TIP3   OH242858   1.713   1.921   5.397 -0.0143 -0.0457  0.2035
 7148TIP3    H142859   1.712   2.016   5.406 -0.1890 -0.1964  2.3459
 7148TIP3    H242860   1.698   1.888   5.486  0.1879 -2.0839 -0.4542
 7149TIP3   OH242861   0.211   3.883  13.650 -0.1905  0.2901  0.0059
 7149TIP3    H142862   0.171   3.966  13.625 -3.1180 -0.6988  0.9859
 7149TIP3    H242863   0.294   3.880  13.601 -1.9983  1.7935 -3.4995
 7150TIP3   OH242864   4.422   5.888   5.698 -0.2101  0.1807  0.0147
 7150TIP3    H142865   4.435   5.919   5.608 -0.5828  0.3205  0.0099
 7150TIP3    H242866   4.373   5.806   5.688  2.5933 -1.6156 -0.1174
 7151TIP3   OH242867   5.551   1.453  13.292  0.7583  0.0727 -0.0940
 7151TIP3    H142868   5.524   1.470  13.382 -2.3425 -2.4027 -0.3923
 7151TIP3    H242869   5.608   1.376  13.298  1.4502  0.5642 -0.1983
 7152TIP3   OH242870   3.634   0.494  13.441 -0.2871  0.3216 -0.3391
 7152TIP3    H142871   3.708   0.441  13.411 -1.1166 -0.4763 -0.9991
 7152TIP3    H242872   3.643   0.576  13.392  0.3865  0.4030 -0.1029
 7153TIP3   OH242873   1.256   4.223   5.253 -0.0188  0.6675 -0.1603
 7153TIP3    H142874   1.346   4.236   5.285 -0.0712  0.1831  0.2155
 7153TIP3    H242875   1.240   4.297   5.195  0.6700  0.6965 -0.3281
 7154TIP3   OH242876   1.640   4.271  14.760 -0.2582 -0.0591 -0.0755
 7154TIP3    H142877   1.669   4.298  14.847  1.2171  1.2888 -0.9334
 7154TIP3    H242878   1.644   4.175  14.762 -0.7415 -0.0886  1.4638
 7155TIP3   OH242879   0.381   6.736  12.275  0.9152 -0.2362 -0.3068
 7155TIP3    H142880   0.384   6.831  12.272  1.5347 -0.1317  1.9458
 7155TIP3    H242881   0.350   6.710  12.188 -1.3285  2.1057 -0.3348
 7156TIP3   OH242882   1.449   0.943   2.096  0.6357 -0.5328 -0.1157
 7156TIP3    H142883   1.486   0.903   2.175 -1.4113 -1.4879  0.4158
 7156TIP3    H242884   1.390   1.011   2.129  0.4024 -0.3688 -0.8604
 7157TIP3   OH242885   0.462   4.384   5.571  0.0238  0.3450 -0.1964
 7157TIP3    H142886   0.546   4.378   5.525 -0.2494  0.6805 -0.7515
 7157TIP3    H242887   0.426   4.295   5.567 -0.0077  0.3780 -0.6564
 7158TIP3   OH242888   6.722   2.304   3.717 -0.6405 -0.4112 -0.0240
 7158TIP3    H142889   6.654   2.325   3.782 -0.3445 -0.6111  0.3519
 7158TIP3    H242890   6.767   2.228   3.753  0.9085  0.7363  0.5846
 7159TIP3   OH242891   6.774   1.263   4.117 -0.0629 -0.3868 -0.1621
 7159TIP3    H142892   6.705   1.228   4.060 -0.9351  1.3145 -0.2026
 7159TIP3    H242893   6.842   1.294   4.056  0.4903 -1.4913 -0.1387
 7160TIP3   OH242894   1.456   2.951  13.926  0.2997  0.3116 -0.2832
 7160TIP3    H142895   1.385   3.002  13.887 -0.7514 -0.3206  0.7396
 7160TIP3    H242896   1.491   2.899  13.854 -1.7086 -0.9634 -0.4319
 7161TIP3   OH242897   6.422   3.704  13.677 -0.1450 -0.3047 -0.3131
 7161TIP3    H142898   6.486   3.764  13.640 -0.6026 -0.2666 -1.0566
 7161TIP3    H242899   6.467   3.619  13.679  0.0667 -0.1965 -0.4526
 7162TIP3   OH242900   4.852   2.190  10.681 -0.5961 -0.5684  0.1402
 7162TIP3    H142901   4.937   2.157  10.653 -0.1407  0.8411 -0.1948
 7162TIP3    H242902   4.808   2.213  10.599 -1.6133 -1.9690  0.2551
 7163TIP3   OH242903   3.769   1.071  14.482 -0.1289  0.2376  0.4317
 7163TIP3    H142904   3.749   1.017  14.405  1.0858 -1.5205  1.2809
 7163TIP3    H242905   3.739   1.019  14.556  1.3654  0.5658  1.3055
 7164TIP3   OH242906   0.320   2.091  14.865 -0.1142 -0.4062 -0.1951
 7164TIP3    H142907   0.375   2.020  14.832  0.6329  0.6882 -1.4146
 7164TIP3    H242908   0.359   2.171  14.828 -1.0580  0.6293  0.9435
 7165TIP3   OH242909   2.983   1.537  14.472 -0.1487 -0.4201  0.5973
 7165TIP3    H142910   2.966   1.624  14.436  1.1363 -0.1600  0.6004
 7165TIP3    H242911   2.896   1.496  14.476 -0.4630 -0.2051 -2.0816
 7166TIP3   OH242912   6.167   2.914   1.087  0.4319 -0.0918 -0.1995
 7166TIP3    H142913   6.084   2.868   1.083 -0.7717  2.0034 -2.6243
 7166TIP3    H242914   6.147   2.996   1.132  1.5309 -0.1087  0.3555
 7167TIP3   OH242915   1.285   0.211  16.386  0.4283 -0.3116 -0.2172
 7167TIP3    H142916   1.354   0.180  16.328 -0.5123 -0.5994 -1.1955
 7167TIP3    H242917   1.247   0.131  16.423  1.4335 -0.1238  1.3345
 7168TIP3   OH242918   4.909   4.228  14.178  0.3130  0.3939  0.1567
 7168TIP3    H142919   4.836   4.171  14.202  1.1771 -0.4282  0.9216
 7168TIP3    H242920   4.880   4.273  14.099  0.4832 -2.9055 -1.9621
 7169TIP3   OH242921   4.798   0.264   1.793 -0.3389  0.1466  0.5122
 7169TIP3    H142922   4.771   0.355   1.783 -1.2639 -0.2135 -0.3942
 7169TIP3    H242923   4.716   0.216   1.809  0.1977 -0.4574  1.6176
 7170TIP3   OH242924   0.385   2.228  11.965  0.4258 -0.3862 -0.0143
 7170TIP3    H142925   0.464   2.176  11.947  0.4763 -0.1713 -0.4331
 7170TIP3    H242926   0.351   2.192  12.046  1.2333 -0.1644  0.4405
 7171TIP3   OH242927   5.172   1.920   5.479 -0.4107  0.2698 -0.4236
 7171TIP3    H142928   5.229   1.849   5.449 -0.8115 -0.3785  0.3087
 7171TIP3    H242929   5.088   1.903   5.438 -0.4827  0.3725 -0.3199
 7172TIP3   OH242930   1.579   4.539   5.758 -0.7504  0.4840 -0.6010
 7172TIP3    H142931   1.630   4.620   5.755  2.1925 -1.1830  0.8500
 7172TIP3    H242932   1.545   4.529   5.669 -1.5893  3.4599 -0.7207
 7173TIP3   OH242933   0.892   4.481   0.416  0.3539  0.2228 -0.0467
 7173TIP3    H142934   0.986   4.495   0.426  0.3555  0.4198 -0.3510
 7173TIP3    H242935   0.855   4.508   0.500  0.3414  2.1666 -0.6487
 7174TIP3   OH242936   4.027   2.058  16.738 -0.4816  0.2374  0.6744
 7174TIP3    H142937   3.981   2.063  16.822 -0.1338  0.4092  0.8529
 7174TIP3    H242938   3.979   1.990  16.689 -1.9814  1.5512  0.2180
 7175TIP3   OH242939   5.295   4.654   3.213  0.1615  0.4866  0.1635
 7175TIP3    H142940   5.340   4.667   3.129 -0.8500  1.9288 -0.2000
 7175TIP3    H242941   5.364   4.628   3.274  1.6692  3.2349 -0.2087
 7176TIP3   OH242942   4.760   5.209   3.070  0.0495 -0.2520  0.2499
 7176TIP3    H142943   4.735   5.202   3.162  0.8115  2.1413  0.7166
 7176TIP3    H242944   4.855   5.193   3.070  0.2044  0.6457  0.0322
 7177TIP3   OH242945   0.361   6.495   3.048  0.1322  0.5647  0.4720
 7177TIP3    H142946   0.386   6.414   3.091 -0.7741  0.3988  0.6920
 7177TIP3    H242947   0.437   6.553   3.060  1.2399 -0.5928 -0.6461
 7178TIP3   OH242948   3.829   1.683   2.851 -0.0867 -0.0870  0.0423
 7178TIP3    H142949   3.735   1.680   2.871 -0.1483 -0.0672 -0.2282
 7178TIP3    H242950   3.834   1.741   2.775  0.0751 -0.5756 -0.3269
 7179TIP3   OH242951   4.919   6.330   5.336  0.0728 -0.2067  0.1095
 7179TIP3    H142952   4.918   6.425   5.326 -1.0224 -0.2354 -0.1120
 7179TIP3    H242953   4.944   6.316   5.427  0.8320  0.2718 -0.0134
 7180TIP3   OH242954   2.036   5.726  12.981 -0.3551 -0.4748  0.7815
 7180TIP3    H142955   2.115   5.694  13.025 -0.3675  0.3553  1.4302
 7180TIP3    H242956   2.062   5.740  12.890 -0.4736 -2.7773  0.3233
 7181TIP3   OH242957   4.255   1.468   2.123  0.5483  0.6061 -0.1081
 7181TIP3    H142958   4.161   1.486   2.112  0.2582 -1.2071 -0.9594
 7181TIP3    H242959   4.261   1.373   2.121  2.3735  0.6776  0.4940
 7182TIP3   OH242960   2.753   5.526   3.835 -0.1409  0.3598  0.2770
 7182TIP3    H142961   2.705   5.455   3.878 -0.0704  0.9031  1.2816
 7182TIP3    H242962   2.725   5.522   3.743 -0.6900 -0.4983  0.4730
 7183TIP3   OH242963   5.864   3.408  15.961 -0.2036 -0.1619  0.0851
 7183TIP3    H142964   5.815   3.425  15.880 -0.7873  0.9862  0.6507
 7183TIP3    H242965   5.931   3.477  15.963 -1.1242  0.7362  1.2879
 7184TIP3   OH242966   4.322   3.395  10.854 -0.3886  0.1461  0.1072
 7184TIP3    H142967   4.304   3.324  10.916  1.4715  1.7775  2.7363
 7184TIP3    H242968   4.236   3.420  10.821 -1.1058 -3.4538 -1.2536
 7185TIP3   OH242969   1.233   3.193  16.794 -0.1779  0.1273 -0.1091
 7185TIP3    H142970   1.189   3.267  16.753 -1.7354 -0.6879 -0.0077
 7185TIP3    H242971   1.215   3.203  16.888 -3.1967 -1.9600 -0.3005
 7186TIP3   OH242972   5.031   6.564  14.022  0.1830 -0.0026 -0.0810
 7186TIP3    H142973   4.975   6.488  14.036 -0.9407  0.9272  0.6097
 7186TIP3    H242974   4.976   6.625  13.973  0.4405  1.0753  0.9389
 7187TIP3   OH242975   6.749   3.896   4.915 -0.3219  0.1988  0.7542
 7187TIP3    H142976   6.800   3.838   4.972 -2.6963 -1.2090  1.6294
 7187TIP3    H242977   6.730   3.843   4.838  1.1241  1.3935 -0.4789
 7188TIP3   OH242978   3.594   6.335   3.822 -0.4442  0.1649  0.3265
 7188TIP3    H142979   3.562   6.255   3.778  0.8878  0.0679 -0.5172
 7188TIP3    H242980   3.537   6.344   3.898 -1.2251 -1.0782 -0.0693
 7189TIP3   OH242981   5.862   3.460  13.623 -0.1290  0.3682 -0.2032
 7189TIP3    H142982   5.833   3.541  13.664  0.6153 -0.7002  2.6496
 7189TIP3    H242983   5.958   3.464  13.626  0.0500  0.8295 -3.2482
 7190TIP3   OH242984   4.354   5.174  14.380  0.9398  0.5017  0.3587
 7190TIP3    H142985   4.372   5.119  14.304 -1.7171 -1.1778  0.8096
 7190TIP3    H242986   4.331   5.259  14.343  2.9234  0.7422 -0.4689
 7191TIP3   OH242987   5.981   2.402   4.009 -0.2993  0.1077 -0.0806
 7191TIP3    H142988   6.065   2.361   3.988  0.5589  1.6627  0.1691
 7191TIP3    H242989   5.995   2.443   4.094 -1.7632 -0.7444  0.6255
 7192TIP3   OH242990   3.996   0.340   1.969 -0.0054 -0.5032  0.2655
 7192TIP3    H142991   4.045   0.293   2.035 -0.8029 -0.2963  1.0273
 7192TIP3    H242992   3.967   0.273   1.907 -1.0908 -1.0343  1.3132
 7193TIP3   OH242993   3.186   3.159  12.223  0.3479  0.3407 -0.0123
 7193TIP3    H142994   3.113   3.111  12.184  0.3141  1.0711 -0.8641
 7193TIP3    H242995   3.247   3.092  12.252 -0.4205 -0.2603  0.2463
 7194TIP3   OH242996   1.941   4.721  15.238 -0.3200  0.1445  0.3704
 7194TIP3    H142997   1.998   4.704  15.163  0.1227  1.3672  0.4069
 7194TIP3    H242998   1.936   4.638  15.284  0.9984 -0.1225  0.0613
 7195TIP3   OH242999   0.559   0.704  16.645 -0.0203 -0.2825  0.9862
 7195TIP3    H143000   0.550   0.758  16.566  0.2153  0.0885  1.2089
 7195TIP3    H243001   0.560   0.767  16.717  0.2119 -0.5919  1.2531
 7196TIP3   OH243002   5.809   1.182   5.217 -0.3508 -0.2912  0.1476
 7196TIP3    H143003   5.756   1.148   5.145 -0.5069 -1.0227  0.6044
 7196TIP3    H243004   5.761   1.158   5.296  0.4864 -0.6528  0.5523
 7197TIP3   OH243005   5.052   1.194  14.784  0.1768  0.0692  0.0395
 7197TIP3    H143006   5.014   1.107  14.782 -1.4867  0.7358  1.1903
 7197TIP3    H243007   4.978   1.254  14.790  1.3202  1.4233  2.6122
 7198TIP3   OH243008   0.553   2.567   0.503  0.0686 -0.4166 -0.1392
 7198TIP3    H143009   0.525   2.613   0.582  0.3934 -2.4047  1.2002
 7198TIP3    H243010   0.505   2.484   0.506  2.2269 -1.7522 -0.4788
 7199TIP3   OH243011   3.129   1.905   2.250  0.3858 -0.2590 -0.1355
 7199TIP3    H143012   3.167   1.991   2.266  0.7741 -0.5730  0.6921
 7199TIP3    H243013   3.191   1.862   2.191 -1.2033  1.0140 -2.9022
 7200TIP3   OH243014   1.493   4.915   5.425 -0.6356 -0.0827 -0.2478
 7200TIP3    H143015   1.405   4.881   5.409  0.0542 -3.4922  2.0842
 7200TIP3    H243016   1.490   4.947   5.515  0.6503 -1.0353  0.1687
 7201TIP3   OH243017   3.342   4.915  10.644  0.1607  0.1869  0.5016
 7201TIP3    H143018   3.287   4.976  10.693 -0.6223 -0.2951  0.2478
 7201TIP3    H243019   3.393   4.970  10.585 -1.0290  0.5706 -0.2136
 7202TIP3   OH243020   0.915   2.862  16.085 -0.4701  0.2027  0.0222
 7202TIP3    H143021   0.852   2.930  16.109  0.9886  1.1275  1.4844
 7202TIP3    H243022   0.938   2.882  15.994 -0.7586  1.1096  0.1313
 7203TIP3   OH243023   3.350   2.689  11.839  0.6331  0.4466 -0.1285
 7203TIP3    H143024   3.412   2.665  11.769  1.1678  0.7980  0.2220
 7203TIP3    H243025   3.385   2.646  11.917  0.4538  0.6812  0.0800
 7204TIP3   OH243026   4.327   5.487  14.095  0.0558  0.2793  0.4008
 7204TIP3    H143027   4.383   5.532  14.159  1.8187 -2.1481  0.7162
 7204TIP3    H243028   4.262   5.441  14.148  2.0222 -2.4209  0.7132
 7205TIP3   OH243029   0.669   4.159  13.715  0.3718 -0.3085 -0.5720
 7205TIP3    H143030   0.609   4.204  13.655 -0.7430 -1.0894 -0.0951
 7205TIP3    H243031   0.738   4.124  13.659  0.0035  0.0139 -1.2370
 7206TIP3   OH243032   2.998   2.307   2.810 -0.7413  0.6610 -0.1182
 7206TIP3    H143033   3.020   2.228   2.860 -1.1501  0.5528 -0.1063
 7206TIP3    H243034   3.065   2.311   2.742  0.6119  1.5209  1.1948
 7207TIP3   OH243035   6.509   4.985  14.668  0.0097 -0.2615  0.0995
 7207TIP3    H143036   6.480   4.943  14.587  0.2584  1.5179 -0.9694
 7207TIP3    H243037   6.579   4.929  14.701 -0.1711 -1.0742 -0.8604
 7208TIP3   OH243038   0.452   4.873   5.955 -0.5686 -0.1267 -0.0307
 7208TIP3    H143039   0.528   4.816   5.968 -0.2554 -0.4547 -2.7535
 7208TIP3    H243040   0.380   4.813   5.940 -0.8257  0.2071 -0.1364
 7209TIP3   OH243041   1.377   0.967  15.174  0.0325 -0.5121 -0.2945
 7209TIP3    H143042   1.328   0.953  15.255 -0.3199 -0.4982 -0.5025
 7209TIP3    H243043   1.443   0.898  15.173 -1.6210 -2.1913 -1.2609
 7210TIP3   OH243044   1.726   4.008   2.546 -1.0232 -0.4529  0.2900
 7210TIP3    H143045   1.767   4.066   2.482  0.0209 -3.8368 -2.4299
 7210TIP3    H243046   1.637   3.995   2.513 -1.0386 -0.8925  0.5030
 7211TIP3   OH243047   1.350   6.317  15.313 -0.0284  0.7861  0.1987
 7211TIP3    H143048   1.388   6.264  15.383  1.1666  0.0295 -0.9662
 7211TIP3    H243049   1.266   6.346  15.347  0.9890  1.3847  2.3849
 7212TIP3   OH243050   3.841   1.894  13.182 -0.3638  0.6606  0.1626
 7212TIP3    H143051   3.868   1.986  13.176 -2.7417  1.7175  2.7806
 7212TIP3    H243052   3.749   1.896  13.156 -0.3483 -1.0479 -0.0710
 7213TIP3   OH243053   6.004   4.813   5.407  0.5836  0.1160 -0.0323
 7213TIP3    H143054   6.075   4.769   5.452 -0.5733 -0.5287  1.2148
 7213TIP3    H243055   5.957   4.861   5.476 -0.2606  0.4330 -0.8012
 7214TIP3   OH243056   6.664   1.385  12.436  0.5611 -0.5574  0.0567
 7214TIP3    H143057   6.702   1.436  12.364 -0.1850  0.6100  0.4582
 7214TIP3    H243058   6.681   1.438  12.514  0.8298 -1.5180  0.6683
 7215TIP3   OH243059   0.375   0.243  16.896  0.3301 -0.3934  0.1574
 7215TIP3    H143060   0.331   0.268  16.815  0.7954  0.7883  0.2508
 7215TIP3    H243061   0.350   0.152  16.909 -0.3785 -0.3739 -0.9003
 7216TIP3   OH243062   4.459   3.249   3.654  0.0219  0.4269 -0.2734
 7216TIP3    H143063   4.483   3.341   3.641 -0.6810  0.8159  0.9497
 7216TIP3    H243064   4.536   3.210   3.696  0.8518  0.0821 -2.0246
 7217TIP3   OH243065   4.560   6.111  11.825  0.1096 -0.0044 -0.2676
 7217TIP3    H143066   4.583   6.121  11.917  1.4797  2.8097 -0.8042
 7217TIP3    H243067   4.465   6.111  11.823  0.0455  1.2102  1.0800
 7218TIP3   OH243068   4.199   4.597  14.486  0.2664  0.6806 -0.2580
 7218TIP3    H143069   4.266   4.618  14.550  1.1137  0.0406 -0.9183
 7218TIP3    H243070   4.132   4.551  14.536  0.4795  1.0038  0.3358
 7219TIP3   OH243071   2.898   1.155  16.676  0.1336  0.1618 -0.6661
 7219TIP3    H143072   2.873   1.084  16.735  1.4629 -0.5790 -0.9425
 7219TIP3    H243073   2.817   1.180  16.632 -0.4283 -0.9541 -0.2940
 7220TIP3   OH243074   4.084   2.410   2.670 -0.5267  0.0154  0.3309
 7220TIP3    H143075   4.161   2.431   2.618  0.1661  1.7556  1.9508
 7220TIP3    H243076   4.011   2.412   2.608  0.4226  0.7534 -0.7816
 7221TIP3   OH243077   1.072   0.717   0.727 -0.1085 -0.2673 -0.6996
 7221TIP3    H143078   1.104   0.788   0.671 -0.3232  1.4605  1.2143
 7221TIP3    H243079   1.139   0.649   0.719  0.3928  0.3531 -2.2003
 7222TIP3   OH243080   1.550   1.075  10.432 -0.3897 -0.1430  0.4361
 7222TIP3    H143081   1.462   1.049  10.459 -0.0383 -1.5797  0.2911
 7222TIP3    H243082   1.605   1.000  10.454  0.7973  0.7176  0.4804
 7223TIP3   OH243083   1.011   3.009   3.617  1.0233 -0.0821  0.0190
 7223TIP3    H143084   1.062   2.954   3.559  1.1108 -0.1843  0.1907
 7223TIP3    H243085   1.067   3.085   3.634  0.0260  1.2183 -2.0539
 7224TIP3   OH243086   3.842   4.331  16.809 -0.1954  0.2829  0.4361
 7224TIP3    H143087   3.929   4.362  16.837  0.1662 -0.1575 -0.1742
 7224TIP3    H243088   3.789   4.334  16.888  0.0483  1.6945  0.5643
 7225TIP3   OH243089   5.319   2.159  16.953 -0.1676 -0.2071  0.1313
 7225TIP3    H143090   5.310   2.073  16.994 -0.9594 -0.2437 -0.1097
 7225TIP3    H243091   5.237   2.173  16.906  0.3009  0.2906 -0.5760
 7226TIP3   OH243092   4.992   3.270  14.136  0.1429  0.3624 -0.0226
 7226TIP3    H143093   5.082   3.266  14.169  0.0469  0.3685  0.2403
 7226TIP3    H243094   4.948   3.195  14.177  0.2292 -0.1037 -0.7658
 7227TIP3   OH243095   0.303   3.392   2.400 -0.1508  0.6415  0.3796
 7227TIP3    H143096   0.307   3.358   2.310 -0.0544 -1.7702  1.2212
 7227TIP3    H243097   0.231   3.455   2.398  0.0301  0.8475 -1.4402
 7228TIP3   OH243098   3.341   0.017   0.579  1.0999  0.1382 -0.3569
 7228TIP3    H143099   3.337   0.026   0.484  0.9308  2.3024 -0.1796
 7228TIP3    H243100   3.276   0.078   0.613 -0.8789 -2.5553  1.1603
 7229TIP3   OH243101   0.004   3.963  13.996 -0.7680 -0.0470  0.4432
 7229TIP3    H143102  -0.019   4.052  14.020 -0.8799  0.0516 -0.0248
 7229TIP3    H243103   0.067   3.935  14.063 -0.6908  0.3992  0.5561
 7230TIP3   OH243104   0.073   1.691  15.181  0.1452  0.0389  0.2517
 7230TIP3    H143105   0.124   1.738  15.115  0.5373 -0.6264  0.0693
 7230TIP3    H243106  -0.016   1.688  15.145  0.4766 -0.8254 -0.5324
 7231TIP3   OH243107   0.730   5.711   1.705 -0.0718 -0.0203  0.2621
 7231TIP3    H143108   0.779   5.671   1.776 -1.5251 -2.9054 -0.2049
 7231TIP3    H243109   0.641   5.721   1.739  0.0754  2.3916  0.1272
 7232TIP3   OH243110   0.307   6.348  15.537 -0.2650  0.0344  0.4600
 7232TIP3    H143111   0.298   6.284  15.608  1.1111  1.9904  2.5547
 7232TIP3    H243112   0.269   6.429  15.573 -0.8139  0.7498 -1.6120
 7233TIP3   OH243113   5.172   6.040   6.292  0.0659 -0.4821 -0.1823
 7233TIP3    H143114   5.175   6.089   6.210  1.0990 -0.6213 -0.2319
 7233TIP3    H243115   5.104   6.084   6.343  2.2671  2.2820  0.5724
 7234TIP3   OH243116   0.430   6.551  16.977 -0.0897 -0.3799  0.0703
 7234TIP3    H143117   0.497   6.516  16.917 -0.5287 -0.2508 -0.5000
 7234TIP3    H243118   0.477   6.564  17.060  0.3892 -1.0980 -0.0756
 7235TIP3   OH243119   1.425   1.586   1.956 -1.0397  0.0848 -0.1193
 7235TIP3    H143120   1.450   1.595   2.047  1.5153 -2.1309 -0.4813
 7235TIP3    H243121   1.398   1.674   1.930  0.1496  1.2394  2.2161
 7236TIP3   OH243122   2.700   6.318  15.594  0.4593 -0.2020 -0.2768
 7236TIP3    H143123   2.617   6.275  15.572  0.6151 -0.1212 -1.0555
 7236TIP3    H243124   2.710   6.388  15.529  1.1874 -0.2793 -0.2663
 7237TIP3   OH243125   0.253   1.701   4.221  0.2079 -0.6231 -0.0274
 7237TIP3    H143126   0.334   1.696   4.273 -0.5458 -0.0159  1.2734
 7237TIP3    H243127   0.199   1.629   4.253 -0.0092 -0.6355 -0.4218
 7238TIP3   OH243128   0.971   4.005   3.758  0.0661  0.4493 -0.4143
 7238TIP3    H143129   0.978   4.027   3.851 -1.4601 -1.3338  0.1719
 7238TIP3    H243130   0.930   4.082   3.719 -3.4042 -0.3795  1.2319
 7239TIP3   OH243131   2.739   3.105   3.153 -0.4557  0.2097 -0.0830
 7239TIP3    H143132   2.719   3.093   3.245  0.3420 -0.1047  0.0583
 7239TIP3    H243133   2.736   3.017   3.115 -2.1074  0.4764 -0.6590
 7240TIP3   OH243134   0.338   4.509  12.596  0.3834 -0.2612  0.0333
 7240TIP3    H143135   0.318   4.494  12.689  0.9742 -1.2682  0.0029
 7240TIP3    H243136   0.397   4.438  12.572  2.2888  1.4059 -0.4482
 7241TIP3   OH243137   4.554   5.354  16.912 -0.0584 -0.2281 -0.3506
 7241TIP3    H143138   4.583   5.330  16.999  1.3217  0.8147 -0.4898
 7241TIP3    H243139   4.474   5.302  16.898  0.3169 -1.2472  1.0649
 7242TIP3   OH243140   3.838   4.824   5.744 -0.6504 -0.3924 -0.2733
 7242TIP3    H143141   3.836   4.791   5.654  1.3567  0.9400 -0.8736
 7242TIP3    H243142   3.813   4.916   5.737  0.1414 -0.1107  0.4079
 7243TIP3   OH243143   5.300   6.317  10.922  0.0673 -0.1782  0.2216
 7243TIP3    H143144   5.354   6.344  10.996  1.7494  0.3467 -1.1383
 7243TIP3    H243145   5.357   6.327  10.845 -1.7244 -0.3456 -1.1963
 7244TIP3   OH243146   6.179   4.111   4.914  0.1365  0.2720 -0.0581
 7244TIP3    H143147   6.238   4.154   4.975 -0.8656  0.9859  0.4223
 7244TIP3    H243148   6.187   4.162   4.833  0.6371 -0.0195 -0.2028
 7245TIP3   OH243149   1.364   0.876   5.399 -0.0252 -0.2177  0.5850
 7245TIP3    H143150   1.285   0.823   5.388 -0.3259 -0.1736  2.3177
 7245TIP3    H243151   1.351   0.922   5.481  1.2522  0.7891  0.2511
 7246TIP3   OH243152   0.124   3.290   4.688 -0.4209 -0.6125  0.1842
 7246TIP3    H143153   0.034   3.295   4.657 -0.2527 -0.1905 -0.2494
 7246TIP3    H243154   0.159   3.210   4.649 -0.9869 -1.4639  1.3859
 7247TIP3   OH243155   4.655   6.431  11.512 -0.0462  0.6417  0.2656
 7247TIP3    H143156   4.639   6.430  11.418  0.0580 -1.0619  0.2284
 7247TIP3    H243157   4.747   6.455  11.521  0.8090 -2.1144 -0.2923
 7248TIP3   OH243158   2.356   3.669  16.182 -0.0833  0.2188  0.0785
 7248TIP3    H143159   2.285   3.731  16.198  0.9863  1.5909 -0.2290
 7248TIP3    H243160   2.432   3.709  16.225  0.3065 -1.7385  1.3502
 7249TIP3   OH243161   1.962   1.262  16.755  0.6388  0.4089 -0.1768
 7249TIP3    H143162   1.945   1.339  16.701  1.4398  0.6151 -0.1561
 7249TIP3    H243163   2.045   1.227  16.723  0.8001  0.1545  0.4817
 7250TIP3   OH243164   1.096   3.754   3.907  0.0276 -0.3464 -0.5478
 7250TIP3    H143165   1.014   3.802   3.907 -0.3806 -0.9967 -1.9967
 7250TIP3    H243166   1.113   3.735   4.000 -0.7438  0.9541 -0.1228
 7251TIP3   OH243167   6.163   5.205  16.441 -0.2092  0.3070 -0.5786
 7251TIP3    H143168   6.178   5.272  16.374  0.6961 -0.4781 -1.1993
 7251TIP3    H243169   6.195   5.244  16.522 -2.2909  1.6792 -0.3435
 7252TIP3   OH243170   1.140   5.927   4.924  0.2896 -0.0504  0.3910
 7252TIP3    H143171   1.100   5.876   4.854  0.9938 -0.6029  0.3765
 7252TIP3    H243172   1.224   5.884   4.940 -0.6927 -1.2110  3.0007
 7253TIP3   OH243173   6.773   3.081   2.827  0.6020  0.1684 -0.2106
 7253TIP3    H143174   6.735   3.153   2.878 -1.3432 -2.0219  1.6846
 7253TIP3    H243175   6.866   3.081   2.851  0.7124  2.0895 -0.4308
 7254TIP3   OH243176   2.466   5.727  15.652 -0.2528  0.2806  0.3056
 7254TIP3    H143177   2.422   5.807  15.622  1.0661  0.5732 -0.9726
 7254TIP3    H243178   2.531   5.758  15.715  0.1705  0.2206 -0.0924
 7255TIP3   OH243179   1.828   3.463   4.477  0.0282  0.6820  0.0139
 7255TIP3    H143180   1.842   3.533   4.540 -0.9651  0.2526  0.7428
 7255TIP3    H243181   1.787   3.506   4.402 -0.7111  0.8725  0.5168
 7256TIP3   OH243182   1.875   0.113  16.592  0.3599 -0.5735 -0.4492
 7256TIP3    H143183   1.944   0.168  16.556  2.6721 -1.6540  2.0273
 7256TIP3    H243184   1.839   0.164  16.665 -0.4451 -0.6350 -0.7905
 7257TIP3   OH243185   6.759   2.036  17.246  0.4709 -0.0046  0.1162
 7257TIP3    H143186   6.749   2.027  17.151  0.0458 -0.1896  0.1726
 7257TIP3    H243187   6.789   2.126  17.259 -1.1722  0.6257 -0.1003
 7258TIP3   OH243188   6.699   5.619   5.051 -0.3163 -0.1315 -0.2732
 7258TIP3    H143189   6.611   5.595   5.021 -1.0217  0.6033  1.0910
 7258TIP3    H243190   6.684   5.670   5.131  1.4395 -1.9166  1.3145
 7259TIP3   OH243191   3.813   4.333  13.979  0.1589  0.3943  0.0320
 7259TIP3    H143192   3.808   4.353  14.072 -1.0191 -1.7753  0.4946
 7259TIP3    H243193   3.727   4.355  13.945  0.4554  0.7933 -0.4769
 7260TIP3   OH243194   4.817   3.423   0.748  0.4274  0.0049  0.6624
 7260TIP3    H143195   4.857   3.337   0.758 -0.5450 -0.4526  0.7867
 7260TIP3    H243196   4.880   3.474   0.697 -0.0849 -1.5853 -1.7484
 7261TIP3   OH243197   6.335   0.786  13.499  0.1328  0.3242 -0.3001
 7261TIP3    H143198   6.252   0.799  13.546  0.0207  0.1384 -0.4445
 7261TIP3    H243199   6.335   0.693  13.478 -0.2428  0.5679 -1.4538
 7262TIP3   OH243200   5.519   3.335  12.568  0.0001  0.6492 -0.4623
 7262TIP3    H143201   5.476   3.376  12.493  0.7149  1.1057 -0.6298
 7262TIP3    H243202   5.451   3.329  12.635 -0.7332 -0.0458 -1.2399
 7263TIP3   OH243203   3.586   0.472  16.748 -0.3489  0.5735 -0.2733
 7263TIP3    H143204   3.616   0.552  16.706 -1.0956 -0.2351 -2.5022
 7263TIP3    H243205   3.503   0.452  16.705 -1.1417 -0.3773  1.6023
 7264TIP3   OH243206   2.277   5.014  15.170 -0.2618 -0.1254  0.3059
 7264TIP3    H143207   2.237   5.059  15.096  0.2003  2.6272  1.6029
 7264TIP3    H243208   2.367   5.048  15.173 -0.2172 -0.2892  1.9874
 7265TIP3   OH243209   3.323   2.063  11.268 -0.2724  0.0459  0.0640
 7265TIP3    H143210   3.271   1.985  11.251  1.6598 -1.0565 -1.1899
 7265TIP3    H243211   3.405   2.049  11.220  0.2793  2.7225  0.0156
 7266TIP3   OH243212   5.507   1.633   4.532 -0.6919  0.3122 -0.4023
 7266TIP3    H143213   5.590   1.612   4.574 -0.1590  0.0701 -1.5519
 7266TIP3    H243214   5.448   1.653   4.605 -0.2657 -1.7168  0.5704
 7267TIP3   OH243215   6.220   4.202  13.398  0.0127 -0.1277 -0.4874
 7267TIP3    H143216   6.257   4.114  13.399  1.7939  0.5323 -2.0983
 7267TIP3    H243217   6.202   4.220  13.306 -0.7012  1.0722 -0.1476
 7268TIP3   OH243218   1.752   0.468   6.738  0.3851  0.4494 -0.3895
 7268TIP3    H143219   1.711   0.382   6.742 -0.2659  0.7266 -0.8744
 7268TIP3    H243220   1.733   0.508   6.823  1.2240 -0.1049  0.0808
 7269TIP3   OH243221   5.709   1.757   3.149 -0.3528 -0.4488 -0.2809
 7269TIP3    H143222   5.658   1.678   3.130  0.9037 -0.7105 -3.2031
 7269TIP3    H243223   5.681   1.819   3.082 -0.1534  1.0464  0.9825
 7270TIP3   OH243224   2.140   3.481  11.724  0.7223 -0.4136  0.2002
 7270TIP3    H143225   2.136   3.432  11.642 -0.9622 -1.3279  0.7791
 7270TIP3    H243226   2.174   3.419  11.788  0.9462 -0.0623  0.4240
 7271TIP3   OH243227   0.675   6.346  11.540 -0.0908 -0.4836  0.0320
 7271TIP3    H143228   0.679   6.269  11.483 -0.2960 -0.1686 -0.4068
 7271TIP3    H243229   0.632   6.413  11.487  0.3636  0.0285  0.3081
 7272TIP3   OH243230   0.689   5.613   4.311 -0.2232  0.2017 -0.1327
 7272TIP3    H143231   0.686   5.577   4.400  1.0863 -0.4078 -0.3180
 7272TIP3    H243232   0.638   5.551   4.259 -0.7030  0.3736  0.1278
 7273TIP3   OH243233   0.199   4.491  16.172 -0.0204  0.2420 -0.0004
 7273TIP3    H143234   0.263   4.554  16.141  0.6808 -0.1025  0.6970
 7273TIP3    H243235   0.175   4.522  16.260 -0.0809 -0.1550  0.1275
 7274TIP3   OH243236   4.943   1.083   4.174 -0.1501  0.3110  0.1417
 7274TIP3    H143237   4.852   1.056   4.174  0.2478 -1.1934 -1.0053
 7274TIP3    H243238   4.952   1.139   4.097 -0.2897  1.2910  0.8095
 7275TIP3   OH243239   6.560   4.829  13.666 -0.1106  0.0738  0.5178
 7275TIP3    H143240   6.568   4.755  13.726  1.2426 -0.0118  0.2768
 7275TIP3    H243241   6.524   4.791  13.586  1.0461 -0.4678  0.2191
 7276TIP3   OH243242   3.835   0.137  13.057  0.2865 -0.0896  0.3321
 7276TIP3    H143243   3.860   0.141  13.149 -0.3767 -0.8369  0.5602
 7276TIP3    H243244   3.860   0.222  13.021 -0.9239  0.8555  1.6070
 7277TIP3   OH243245   6.321   3.145   5.922 -0.4327  0.5746 -0.0168
 7277TIP3    H143246   6.280   3.060   5.915  1.6717 -0.5459  0.2724
 7277TIP3    H243247   6.323   3.164   6.016  0.0220  0.4530 -0.0005
 7278TIP3   OH243248   3.846   1.765  14.874  0.9959  0.8492  0.3829
 7278TIP3    H143249   3.779   1.823  14.837  1.0631  0.9307  0.3870
 7278TIP3    H243250   3.918   1.767  14.810  0.8175  0.4146  0.1622
 7279TIP3   OH243251   3.156   2.880   1.766  0.1126  0.0576  0.4899
 7279TIP3    H143252   3.100   2.949   1.800  0.5295  0.4092  0.4787
 7279TIP3    H243253   3.235   2.926   1.736 -0.0210 -0.3102 -0.4508
 7280TIP3   OH243254   4.176   5.090  17.056  0.2161  0.0270 -0.1298
 7280TIP3    H143255   4.189   5.115  16.964 -0.8518  1.1353  0.0055
 7280TIP3    H243256   4.114   5.017  17.052  1.0566 -0.6912 -0.3436
 7281TIP3   OH243257   5.649   4.502   5.056 -0.0612  0.2543  0.2309
 7281TIP3    H143258   5.706   4.453   5.114 -0.6914 -0.6432  0.1075
 7281TIP3    H243259   5.563   4.460   5.065 -0.0468 -0.3062 -1.7802
 7282TIP3   OH243260   0.286   4.972  12.410  0.1496 -0.2582 -0.0005
 7282TIP3    H143261   0.272   4.877  12.417  0.4031 -0.2420  0.8145
 7282TIP3    H243262   0.379   4.980  12.387  0.3179 -0.1929  0.6774
 7283TIP3   OH243263   3.384   4.168  15.862 -0.4261 -0.3536 -0.6169
 7283TIP3    H143264   3.328   4.245  15.859  0.8315  0.5774 -1.3590
 7283TIP3    H243265   3.400   4.146  15.770  1.1487 -0.0062 -0.4558
 7284TIP3   OH243266   5.329   4.280   1.902 -0.2480  0.0994 -0.4827
 7284TIP3    H143267   5.269   4.339   1.948 -2.0058 -2.3266  0.6145
 7284TIP3    H243268   5.287   4.265   1.817  0.8771  1.3678 -1.3058
 7285TIP3   OH243269   2.833   4.484  11.738 -0.4430  0.3105  0.4989
 7285TIP3    H143270   2.868   4.395  11.747 -0.4511  0.4035  1.7335
 7285TIP3    H243271   2.896   4.529  11.682 -0.4688 -0.4803 -0.1849
 7286TIP3   OH243272   3.365   6.046  11.204  0.1377  0.5930 -0.4835
 7286TIP3    H143273   3.386   5.967  11.154  0.2335  0.8095 -0.7925
 7286TIP3    H243274   3.390   6.118  11.146 -0.6215  0.8553 -0.4979
 7287TIP3   OH243275   0.735   5.487  13.837  0.4116  0.5544 -0.4581
 7287TIP3    H143276   0.663   5.424  13.831  2.2308 -1.8134  0.8712
 7287TIP3    H243277   0.700   5.558  13.891 -1.0768 -0.2683 -0.2653
 7288TIP3   OH243278   0.230   0.263   2.241 -0.1491 -0.4758  0.0689
 7288TIP3    H143279   0.287   0.201   2.285  0.2140  0.6332  1.2416
 7288TIP3    H243280   0.263   0.349   2.268 -2.5735  0.2250  1.1517
 7289TIP3   OH243281   0.462   2.027   4.143 -0.2341  0.8873 -0.2760
 7289TIP3    H143282   0.515   1.997   4.216 -1.7609  0.9769  0.9095
 7289TIP3    H243283   0.479   2.122   4.139  1.7280  0.5315 -1.6532
 7290TIP3   OH243284   5.135   2.052  13.522 -0.4591 -0.0707 -0.5248
 7290TIP3    H143285   5.062   2.002  13.485 -0.8027  0.8283 -1.0740
 7290TIP3    H243286   5.102   2.081  13.607 -0.3161 -0.6323 -0.2719
 7291TIP3   OH243287   5.182   4.586  10.786  0.0711  0.2727 -0.5912
 7291TIP3    H143288   5.160   4.515  10.846  1.0369 -0.4679 -1.0832
 7291TIP3    H243289   5.143   4.560  10.702 -1.1424  1.2275 -0.3445
 7292TIP3   OH243290   1.773   6.511   3.818  0.1126 -0.6617 -0.3177
 7292TIP3    H143291   1.717   6.468   3.883 -0.8572  1.8929  0.6570
 7292TIP3    H243292   1.729   6.593   3.798  1.8329 -0.0979 -2.1315
 7293TIP3   OH243293   0.121   6.263   5.612  0.6707 -0.0271  0.0757
 7293TIP3    H143294   0.149   6.220   5.531 -0.7064  0.3705 -0.6401
 7293TIP3    H243295   0.140   6.199   5.681  1.2203 -0.6539 -0.6431
 7294TIP3   OH243296   2.975   4.964  13.570  0.2105 -0.4657  0.1292
 7294TIP3    H143297   2.895   5.014  13.555  0.0385 -1.3472 -2.3019
 7294TIP3    H243298   3.041   5.030  13.594 -1.0602  0.3173  1.6939
 7295TIP3   OH243299   0.663   2.792   3.743  0.3002 -0.5457  0.2038
 7295TIP3    H143300   0.608   2.870   3.731 -0.2502 -0.8111  0.9681
 7295TIP3    H243301   0.689   2.768   3.654  0.6918  0.6519 -0.0317
 7296TIP3   OH243302   0.517   6.459  14.229 -0.5029  0.2279  0.4161
 7296TIP3    H143303   0.440   6.407  14.252 -0.7832  0.5314  0.1632
 7296TIP3    H243304   0.580   6.440  14.298 -0.4572 -0.7625  0.1192
 7297TIP3   OH243305   5.262   2.069   3.911  0.1484  0.3290  0.0355
 7297TIP3    H143306   5.309   2.012   3.973  0.6385 -0.2444 -0.8470
 7297TIP3    H243307   5.304   2.052   3.827 -0.0135  1.6635 -0.3310
 7298TIP3   OH243308   1.263   3.989  12.846  0.8698 -0.6882  0.3086
 7298TIP3    H143309   1.239   4.031  12.929  0.1698  0.4900 -0.4573
 7298TIP3    H243310   1.180   3.972  12.802  1.2497 -0.8772 -0.3535
 7299TIP3   OH243311   0.095   3.387  12.784  0.0596 -0.0926 -0.1750
 7299TIP3    H143312   0.117   3.477  12.809 -1.5603 -0.2175  1.9737
 7299TIP3    H243313   0.008   3.372  12.821 -0.7821 -1.7812 -2.5526
 7300TIP3   OH243314   0.922   1.623   0.678 -0.3903  0.2314 -0.1511
 7300TIP3    H143315   1.011   1.593   0.696 -0.5691 -0.0985  0.1897
 7300TIP3    H243316   0.915   1.706   0.725 -0.2314  0.3004 -0.2501
 7301TIP3   OH243317   2.833   0.225   5.560  0.0402 -0.2949 -0.0516
 7301TIP3    H143318   2.906   0.171   5.591 -0.8921 -1.4330  0.2194
 7301TIP3    H243319   2.760   0.200   5.616 -0.9349 -0.2403 -1.2665
 7302TIP3   OH243320   1.420   6.678  14.122  0.0399 -0.1377 -0.0903
 7302TIP3    H143321   1.470   6.630  14.056  1.3900  1.1918 -0.0795
 7302TIP3    H243322   1.482   6.690  14.194 -0.3686  1.3104  0.0380
 7303TIP3   OH243323   2.724   5.692  11.993  0.0468  0.1562 -0.1993
 7303TIP3    H143324   2.782   5.753  11.947  1.9387 -0.5321  1.1386
 7303TIP3    H243325   2.724   5.723  12.083 -1.4668 -0.0546 -0.1099
 7304TIP3   OH243326   2.524   2.137  11.007 -0.1667  0.3558  0.1163
 7304TIP3    H143327   2.591   2.103  11.067  0.3259  0.7902 -0.1822
 7304TIP3    H243328   2.571   2.199  10.951 -0.3618 -0.8686 -1.4728
 7305TIP3   OH243329   1.303   4.840   3.592 -0.1929  0.4444  0.2972
 7305TIP3    H143330   1.329   4.927   3.622  0.1866  0.5803 -0.3835
 7305TIP3    H243331   1.279   4.854   3.500  0.5583 -0.2907 -0.0264
 7306TIP3   OH243332   2.862   2.993   1.720 -0.0633 -0.5299 -0.0415
 7306TIP3    H143333   2.876   2.910   1.675  0.3592 -1.3408  1.5341
 7306TIP3    H243334   2.946   3.039   1.710  0.4495 -1.2258  0.9427
 7307TIP3   OH243335   2.514   2.850   5.647  0.6469 -0.3621  0.4863
 7307TIP3    H143336   2.550   2.938   5.657 -1.1189  0.3996  0.4177
 7307TIP3    H243337   2.494   2.842   5.554  1.5251 -1.1604  0.3458
 7308TIP3   OH243338   6.700   5.264   4.043 -0.0260  0.2270 -0.4702
 7308TIP3    H143339   6.709   5.352   4.081 -1.1965  0.8913 -1.6198
 7308TIP3    H243340   6.730   5.274   3.953  0.3528 -0.6950 -0.4471
 7309TIP3   OH243341   0.989   3.177   2.003  0.1678 -0.2369 -0.4986
 7309TIP3    H143342   0.958   3.224   2.080  1.2344  0.0558 -0.2362
 7309TIP3    H243343   0.924   3.196   1.936  0.6180  1.7336 -0.4303
 7310TIP3   OH243344   6.197   1.708  12.227 -0.5960  0.4021 -0.3790
 7310TIP3    H143345   6.132   1.754  12.174 -0.6294  1.1327  0.2759
 7310TIP3    H243346   6.219   1.770  12.296  0.4637 -0.0082 -0.3301
 7311TIP3   OH243347   2.550   2.596   0.991  0.3371 -0.4130 -0.7759
 7311TIP3    H143348   2.642   2.598   0.964  0.7954 -2.8821  0.3138
 7311TIP3    H243349   2.510   2.528   0.937  0.3313 -2.6113  1.7880
 7312TIP3   OH243350   0.982   0.644  14.492  0.1040 -0.0552 -0.1091
 7312TIP3    H143351   1.077   0.636  14.499  0.3214  1.6454 -0.5985
 7312TIP3    H243352   0.948   0.611  14.575  0.9244 -2.8963 -0.7843
 7313TIP3   OH243353   5.736   5.211   6.128 -0.2617 -0.3967 -0.4342
 7313TIP3    H143354   5.783   5.240   6.050 -0.7262  0.2401 -0.4918
 7313TIP3    H243355   5.738   5.287   6.186 -0.2202 -0.7514  0.0314
 7314TIP3   OH243356   6.422   4.194   0.102  0.0154 -0.0886  0.2709
 7314TIP3    H143357   6.392   4.212   0.013  1.5680 -0.5005 -0.3787
 7314TIP3    H243358   6.515   4.174   0.092  0.1178 -0.6086  1.9340
 7315TIP3   OH243359   3.837   2.188  12.327 -0.0706  0.3992 -0.8715
 7315TIP3    H143360   3.819   2.125  12.397 -0.5369  0.1279 -1.2300
 7315TIP3    H243361   3.791   2.267  12.355  1.9175  1.1695  0.4294
 7316TIP3   OH243362   0.430   5.214   5.096 -0.1573 -0.7119  0.9190
 7316TIP3    H143363   0.414   5.231   5.189 -1.0626 -0.2478  0.6852
 7316TIP3    H243364   0.358   5.258   5.051  1.3176  0.7364 -0.1401
 7317TIP3   OH243365   4.602   3.884   2.161 -0.1906  0.4348  0.1221
 7317TIP3    H143366   4.564   3.846   2.240  0.2601  0.0267  0.1490
 7317TIP3    H243367   4.592   3.979   2.173 -0.9241  0.3435  0.2525
 7318TIP3   OH243368   3.783   1.503   2.619 -0.0118 -0.7291 -0.9636
 7318TIP3    H143369   3.860   1.552   2.591  1.2008 -0.9465  1.6648
 7318TIP3    H243370   3.812   1.456   2.697 -2.9177 -0.5989  0.3086
 7319TIP3   OH243371   4.040   5.890   6.322  0.0866  0.1487 -0.6754
 7319TIP3    H143372   4.005   5.955   6.384 -1.9172 -0.3886 -1.1853
 7319TIP3    H243373   4.024   5.806   6.364  0.1951 -0.1467 -1.2187
 7320TIP3   OH243374   3.986   3.411   4.335  0.1129 -0.1410 -0.6654
 7320TIP3    H143375   4.049   3.482   4.332  0.8020 -0.6796  0.4317
 7320TIP3    H243376   3.919   3.440   4.397  0.2891 -0.3564 -0.3709
 7321TIP3   OH243377   6.722   6.473  13.960  0.1910 -0.3797  0.0720
 7321TIP3    H143378   6.727   6.400  13.899  1.8181 -0.7996  0.6566
 7321TIP3    H243379   6.800   6.464  14.015 -1.6294 -0.5225  2.8151
 7322TIP3   OH243380   5.470   0.879   2.791 -0.1175  0.0015 -0.3197
 7322TIP3    H143381   5.409   0.860   2.719  0.3721 -0.2072 -0.6852
 7322TIP3    H243382   5.435   0.828   2.865 -1.8067  1.8091  0.2176
 7323TIP3   OH243383   3.992   4.076   0.932  0.4922  0.1980 -0.4067
 7323TIP3    H143384   3.986   4.168   0.904  0.3629  0.4866  0.5586
 7323TIP3    H243385   3.914   4.061   0.984  0.0481 -0.7440 -1.3020
 7324TIP3   OH243386   1.327   3.430   3.615  0.0442  0.4224 -0.2297
 7324TIP3    H143387   1.314   3.409   3.708  1.6751 -0.0990 -0.0882
 7324TIP3    H243388   1.307   3.524   3.609 -0.3772  0.3919  0.5879
 7325TIP3   OH243389   0.250   6.094   5.450 -0.1445 -0.4680 -0.9569
 7325TIP3    H143390   0.283   6.016   5.496  3.1248  0.9361 -0.6218
 7325TIP3    H243391   0.313   6.108   5.380 -0.4671  2.0307 -0.8206
 7326TIP3   OH243392   3.781   6.392   3.185 -0.1552  0.4221  0.7735
 7326TIP3    H143393   3.834   6.463   3.149  0.0938  0.4517  1.1908
 7326TIP3    H243394   3.757   6.422   3.273 -1.0425  0.5003  0.5188
 7327TIP3   OH243395   1.777   2.331  13.456  0.1137 -0.3320 -0.0731
 7327TIP3    H143396   1.791   2.236  13.456 -1.0737 -0.5563 -2.1052
 7327TIP3    H243397   1.733   2.349  13.373  2.8669  2.3935 -1.1395
 7328TIP3   OH243398   4.907   0.595  16.848 -0.1220  1.0175  0.1471
 7328TIP3    H143399   4.948   0.566  16.767 -1.8769  2.0482 -1.1598
 7328TIP3    H243400   4.952   0.676  16.870  0.2408  0.8253  0.1268
 7329TIP3   OH243401   0.872   3.974   1.227  0.3182 -0.1780 -0.3783
 7329TIP3    H143402   0.929   4.043   1.193  0.3976 -0.2945 -0.4813
 7329TIP3    H243403   0.879   3.903   1.163  2.0210 -1.2001  0.8646
 7330TIP3   OH243404   2.917   2.720  12.949 -0.0445  0.0311  0.8777
 7330TIP3    H143405   2.861   2.677  13.013  0.3341  0.1365  1.2783
 7330TIP3    H243406   2.997   2.741  12.996  0.1658  0.2761  0.4207
 7331TIP3   OH243407   0.475   0.175   2.788  0.0577 -0.1545 -0.3181
 7331TIP3    H143408   0.553   0.134   2.750  0.6482 -1.3416  1.9990
 7331TIP3    H243409   0.509   0.247   2.840 -0.6046  0.5417 -0.8278
 7332TIP3   OH243410   6.371   5.578  15.760  0.2944  0.2671  0.0640
 7332TIP3    H143411   6.388   5.585  15.854  0.6373 -0.0912  0.0333
 7332TIP3    H243412   6.368   5.668  15.729  0.5315  0.3787  0.3634
 7333TIP3   OH243413   2.890   1.796  14.349 -0.2707 -0.0995  0.0317
 7333TIP3    H143414   2.895   1.718  14.293  0.2156  0.1580 -0.2939
 7333TIP3    H243415   2.798   1.823  14.343  0.0464  0.7567 -1.8235
 7334TIP3   OH243416   1.358   3.328   0.654 -0.0107 -0.1316  0.2687
 7334TIP3    H143417   1.372   3.262   0.722 -0.1322 -0.1894  0.2373
 7334TIP3    H243418   1.445   3.366   0.640 -0.0100 -0.0198  0.5591
 7335TIP3   OH243419   2.158   0.271   5.191 -0.0823  0.4027  0.1513
 7335TIP3    H143420   2.190   0.309   5.109 -1.1289  1.4568  0.2106
 7335TIP3    H243421   2.234   0.274   5.250  0.3807  0.6160 -0.4494
 7336TIP3   OH243422   4.360   3.880  14.490  0.4055 -0.1653 -0.1521
 7336TIP3    H143423   4.283   3.853  14.541 -0.4191  0.9307 -0.7609
 7336TIP3    H243424   4.325   3.943  14.427  1.7460  0.0124 -0.7394
 7337TIP3   OH243425   0.084   2.597  11.855 -0.0364 -0.7369  0.3615
 7337TIP3    H143426   0.141   2.575  11.929 -1.4736 -0.2219  1.7003
 7337TIP3    H243427   0.009   2.537  11.865 -0.5498 -0.2173 -0.3030
 7338TIP3   OH243428   0.317   6.680   4.754 -0.0171  0.2686  0.1991
 7338TIP3    H143429   0.400   6.633   4.758 -0.4149 -0.4193  0.5239
 7338TIP3    H243430   0.257   6.620   4.709 -0.0349  1.2245 -1.0902
 7339TIP3   OH243431   2.247   2.516   1.213 -0.7704 -0.1876 -0.8788
 7339TIP3    H143432   2.249   2.610   1.232  1.3360 -0.0182 -1.6544
 7339TIP3    H243433   2.165   2.502   1.167 -1.0398  1.3030 -0.8804
 7340TIP3   OH243434   1.752   4.814  12.632  0.1618  0.1720  0.1242
 7340TIP3    H143435   1.728   4.903  12.608  1.7255  0.0834 -2.1759
 7340TIP3    H243436   1.806   4.823  12.710  0.6151  1.3176 -0.2992
 7341TIP3   OH243437   4.590   0.296   6.027  0.0421 -0.1356 -0.6535
 7341TIP3    H143438   4.587   0.204   6.051 -0.3404 -0.0083 -0.1821
 7341TIP3    H243439   4.637   0.338   6.100 -1.9853  0.4019  0.4323
 7342TIP3   OH243440   3.317   1.322  16.668  0.2365 -0.7661  0.1902
 7342TIP3    H143441   3.253   1.376  16.622  1.3387 -0.5530 -1.1731
 7342TIP3    H243442   3.281   1.311  16.756 -1.9219 -1.1273 -0.6871
 7343TIP3   OH243443   4.068   5.052   2.169  0.3814  0.1373 -0.1696
 7343TIP3    H143444   4.110   4.993   2.106  0.3176 -2.3764  1.9529
 7343TIP3    H243445   4.129   5.055   2.243 -0.5893  1.0871  0.6203
 7344TIP3   OH243446   6.576   6.455  14.956 -0.1528  0.7784  0.1681
 7344TIP3    H143447   6.542   6.521  15.017 -0.0539  0.2637  0.7815
 7344TIP3    H243448   6.671   6.463  14.963 -0.0983  1.9840 -1.2964
 7345TIP3   OH243449   2.855   3.343   0.912 -0.1488 -0.2349 -0.0157
 7345TIP3    H143450   2.932   3.391   0.883  0.3833 -1.0052  0.0813
 7345TIP3    H243451   2.795   3.345   0.837  0.6966 -1.1401 -0.7366
 7346TIP3   OH243452   2.886   3.495   1.801  0.3537  0.1929 -0.1113
 7346TIP3    H143453   2.864   3.466   1.890  0.7758 -0.9091 -0.3460
 7346TIP3    H243454   2.939   3.573   1.813 -0.1112  0.4108  0.5847
 7347TIP3   OH243455   4.782   5.308   0.561 -0.2920 -0.5971  0.0935
 7347TIP3    H143456   4.726   5.296   0.638  0.7998  0.1620  1.0458
 7347TIP3    H243457   4.735   5.372   0.507  0.9445  2.4703  2.3482
 7348TIP3   OH243458   3.023   6.443   5.362 -0.3992 -0.0730  0.3241
 7348TIP3    H143459   2.965   6.519   5.373 -0.2219  0.1720 -0.4137
 7348TIP3    H243460   3.111   6.479   5.376 -0.4141 -0.4910  1.6881
 7349TIP3   OH243461   5.132   0.263  15.519  0.5234 -0.4503 -0.4689
 7349TIP3    H143462   5.160   0.171  15.514  1.2759 -0.1905 -1.3335
 7349TIP3    H243463   5.138   0.294  15.429  0.5655  0.5349 -0.1342
 7350TIP3   OH243464   3.727   5.251   2.380  0.7931  0.4259  0.0255
 7350TIP3    H143465   3.654   5.310   2.366  0.7366  0.2370 -0.5023
 7350TIP3    H243466   3.746   5.215   2.293  0.8625 -0.2830  0.3260
 7351TIP3   OH243467   3.839   0.617  15.545  0.2287 -0.5658 -0.2165
 7351TIP3    H143468   3.836   0.689  15.482  0.4428 -0.2091  0.1727
 7351TIP3    H243469   3.873   0.657  15.625 -3.5402 -0.1043  1.3537
 7352TIP3   OH243470   1.328   6.188   3.647 -0.1003  0.4550 -0.3067
 7352TIP3    H143471   1.386   6.252   3.606 -1.3752  1.9860  0.1792
 7352TIP3    H243472   1.245   6.198   3.601 -0.7887  0.3327  0.8562
 7353TIP3   OH243473   0.651   2.364   2.771  0.3700 -0.2074 -0.2046
 7353TIP3    H143474   0.653   2.269   2.759  1.1978 -0.3697  0.9642
 7353TIP3    H243475   0.723   2.396   2.717  0.5462 -0.3331 -0.0480
 7354TIP3   OH243476   1.857   0.831  14.882  0.5710 -0.0618 -0.6413
 7354TIP3    H143477   1.868   0.827  14.978  0.1181  1.4206 -0.4989
 7354TIP3    H243478   1.829   0.743  14.857 -0.6088 -0.1280  0.7748
 7355TIP3   OH243479   0.841   3.200  14.499 -0.0187 -0.3326  0.0282
 7355TIP3    H143480   0.771   3.138  14.481  1.2253 -1.5992 -0.6627
 7355TIP3    H243481   0.843   3.207  14.594 -0.6360 -0.8056  0.0850
 7356TIP3   OH243482   0.713   3.334  10.796  0.3759 -0.4530  0.0468
 7356TIP3    H143483   0.741   3.249  10.760 -0.7253  0.2167 -2.6683
 7356TIP3    H243484   0.795   3.380  10.816  0.9945 -1.8944  1.0136
 7357TIP3   OH243485   3.894   0.388   4.784 -0.2109  0.2467  0.5688
 7357TIP3    H143486   3.965   0.443   4.751  1.0826 -2.1640 -0.9503
 7357TIP3    H243487   3.830   0.385   4.714 -0.1028 -0.4371  0.4905
 7358TIP3   OH243488   6.718   3.688  15.861  0.0195 -0.1158 -0.1815
 7358TIP3    H143489   6.646   3.735  15.820  0.2674  0.8442  0.4395
 7358TIP3    H243490   6.764   3.645  15.788  0.0163  0.9385 -0.8241
 7359TIP3   OH243491   4.741   5.438  11.027  1.0156  0.3263 -0.0065
 7359TIP3    H143492   4.679   5.413  11.095 -1.0048  1.2069 -1.3839
 7359TIP3    H243493   4.716   5.385  10.951  1.3548  1.3234 -0.8429
 7360TIP3   OH243494   1.874   3.247   3.736  0.0947 -0.2630  0.1178
 7360TIP3    H143495   1.794   3.238   3.789 -0.1238 -0.2358 -0.2076
 7360TIP3    H243496   1.903   3.337   3.752  1.3650 -0.9376  2.0718
 7361TIP3   OH243497   1.302   2.229  12.265  0.2363 -0.3504  0.8296
 7361TIP3    H143498   1.219   2.267  12.296 -0.6436  1.2121 -2.8935
 7361TIP3    H243499   1.349   2.303  12.227  1.8903 -1.7664 -0.0026
 7362TIP3   OH243500   4.765   2.154  16.556  0.0019  0.0876  0.1007
 7362TIP3    H143501   4.748   2.223  16.492 -2.8564  0.5188  1.1336
 7362TIP3    H243502   4.715   2.182  16.633 -0.1177 -2.4665  1.0268
 7363TIP3   OH243503   1.919   6.333   0.686 -0.1484  0.0540  0.2938
 7363TIP3    H143504   1.940   6.259   0.742  2.2971  0.0324 -0.5324
 7363TIP3    H243505   1.991   6.395   0.699 -1.3675  1.6465 -0.1545
 7364TIP3   OH243506   4.426   2.004  16.436 -0.2372 -0.4926 -0.2287
 7364TIP3    H143507   4.368   2.027  16.509  0.6781  0.1486  0.3216
 7364TIP3    H243508   4.470   2.086  16.414 -0.0005 -0.8312 -1.0588
 7365TIP3   OH243509   1.898   0.771   5.475 -0.3463  0.1184  0.2430
 7365TIP3    H143510   1.876   0.736   5.388 -1.1778  1.2163 -0.0134
 7365TIP3    H243511   1.922   0.863   5.459  1.1849 -0.1169  0.9743
 7366TIP3   OH243512   2.236   5.747  15.176  0.2965 -0.4406 -0.2075
 7366TIP3    H143513   2.192   5.767  15.093 -0.0810  0.5253  0.2120
 7366TIP3    H243514   2.185   5.793  15.242  0.8182 -0.8900  0.5258
 7367TIP3   OH243515   6.394   2.235   0.833  0.0702  0.0542 -0.1884
 7367TIP3    H143516   6.388   2.327   0.858  1.0179  0.2420 -0.6009
 7367TIP3    H243517   6.412   2.237   0.739  0.5123 -0.5390 -0.1251
 7368TIP3   OH243518   6.341   3.816   0.013 -0.3605  0.2133  0.5404
 7368TIP3    H143519   6.332   3.735  -0.037  1.5851  0.1798  0.1609
 7368TIP3    H243520   6.307   3.884  -0.046 -2.2552 -0.3048  0.9639
 7369TIP3   OH243521   0.979   4.081   0.725 -0.2979 -0.5225 -0.1721
 7369TIP3    H143522   1.015   4.109   0.641 -0.1226 -0.0536  0.0529
 7369TIP3    H243523   1.048   4.027   0.763  0.4174  0.8050  0.4892
 7370TIP3   OH243524   2.180   2.152   1.835 -0.1295 -0.3368  0.1240
 7370TIP3    H143525   2.096   2.147   1.789 -0.2525  0.2549  0.2725
 7370TIP3    H243526   2.158   2.133   1.926  0.0781 -1.2825 -0.0203
 7371TIP3   OH243527   0.491   2.979  12.440 -0.3517  0.6286 -0.0494
 7371TIP3    H143528   0.482   2.904  12.381 -0.0834  0.3163  0.2989
 7371TIP3    H243529   0.447   3.050  12.395 -1.1357  0.1156 -0.1215
 7372TIP3   OH243530   2.111   1.699  12.653  0.0564 -0.1383 -0.2200
 7372TIP3    H143531   2.115   1.760  12.579  1.5051 -2.3193 -2.0692
 7372TIP3    H243532   2.189   1.720  12.705 -0.5766  0.9205  0.3404
 7373TIP3   OH243533   0.359   5.013   1.786 -0.1993 -0.7060 -0.0336
 7373TIP3    H143534   0.411   4.943   1.825 -0.5638 -1.0061 -0.0735
 7373TIP3    H243535   0.413   5.047   1.715  0.1446 -0.6816  0.2413
 7374TIP3   OH243536   0.352   1.011  15.436 -0.2147  0.2523  0.0070
 7374TIP3    H143537   0.396   0.982  15.515  0.4597 -0.3733 -0.5902
 7374TIP3    H243538   0.259   0.996  15.453 -0.1668  1.0127  1.0334
 7375TIP3   OH243539   6.702   5.916   1.477 -0.0907  0.2192  0.1478
 7375TIP3    H143540   6.769   5.852   1.454  0.3245  0.4107  0.7889
 7375TIP3    H243541   6.620   5.868   1.470  0.0760  0.0845 -1.0114
 7376TIP3   OH243542   0.406   2.401   3.306  0.3086  0.2722 -0.5354
 7376TIP3    H143543   0.443   2.382   3.391  0.9842 -0.1825 -0.9265
 7376TIP3    H243544   0.432   2.328   3.251 -0.8479  0.1362 -0.9197
 7377TIP3   OH243545   0.337   0.724   2.552 -0.0965 -0.5190 -0.0294
 7377TIP3    H143546   0.338   0.818   2.569  0.3308 -0.3364 -1.0048
 7377TIP3    H243547   0.387   0.714   2.471 -0.5262 -1.5387 -0.1800
 7378TIP3   OH243548   5.840   3.245   5.446 -0.1190 -0.3861 -0.3560
 7378TIP3    H143549   5.779   3.307   5.406  0.1174  0.0123 -0.1133
 7378TIP3    H243550   5.793   3.162   5.447  0.4721 -0.8444 -3.0258
 7379TIP3   OH243551   1.606   3.962  14.230 -0.9126  0.3824  0.6055
 7379TIP3    H143552   1.533   4.020  14.254 -1.3440 -0.0660  0.3961
 7379TIP3    H243553   1.602   3.892  14.296 -0.2011  0.7475  1.0444
 7380TIP3   OH243554   3.021   3.016  13.297  0.0950 -0.0212 -0.0068
 7380TIP3    H143555   3.048   3.087  13.354  0.8819  0.0846 -0.5012
 7380TIP3    H243556   3.096   2.957  13.293 -0.3261 -0.5696 -0.0975
 7381TIP3   OH243557   4.586   3.470  11.926 -0.2792 -0.0235  0.1926
 7381TIP3    H143558   4.504   3.422  11.942 -0.4238  0.0528 -0.3086
 7381TIP3    H243559   4.655   3.407  11.946 -0.4537 -0.9924 -1.9846
 7382TIP3   OH243560   4.663   6.334  17.186 -0.3445 -0.0880 -0.2384
 7382TIP3    H143561   4.722   6.277  17.236 -1.2460 -0.3436  0.5633
 7382TIP3    H243562   4.696   6.329  17.096 -0.1362 -1.5286 -0.1117
 7383TIP3   OH243563   2.436   0.685   3.038  0.2579  0.1543 -0.1636
 7383TIP3    H143564   2.371   0.716   3.101  1.1048 -0.1677  0.9054
 7383TIP3    H243565   2.518   0.682   3.087  0.9514 -0.1122 -1.2895
 7384TIP3   OH243566   5.781   3.027  14.852 -0.3235 -0.0159 -0.1596
 7384TIP3    H143567   5.752   3.098  14.910 -2.0175 -0.0262 -0.9443
 7384TIP3    H243568   5.766   2.947  14.903  0.9396  0.1193  0.4635
 7385TIP3   OH243569   3.747   5.510   4.407  0.1250 -0.4589 -0.3925
 7385TIP3    H143570   3.759   5.601   4.434 -4.2996  0.1354  0.3103
 7385TIP3    H243571   3.833   5.470   4.418  1.5260  2.8472  2.4218
 7386TIP3   OH243572   5.895   2.852  12.088  0.6349  0.2041 -0.8182
 7386TIP3    H143573   5.854   2.910  12.023 -1.8377 -1.3030 -0.7136
 7386TIP3    H243574   5.928   2.778  12.037  1.1055  0.2638 -0.6117
 7387TIP3   OH243575   3.187   0.442   0.378 -0.0193  0.9911 -0.9746
 7387TIP3    H143576   3.231   0.406   0.454  0.8409  2.1986 -0.8644
 7387TIP3    H243577   3.094   0.438   0.399  0.1770  0.7232 -0.1338
 7388TIP3   OH243578   3.584   6.726  16.321  0.0010  0.3818  0.5969
 7388TIP3    H143579   3.550   6.800  16.372 -1.1475  2.0752 -2.4032
 7388TIP3    H243580   3.508   6.670  16.306  0.4604 -0.4305  1.1807
 7389TIP3   OH243581   6.176   1.333   4.868  0.2358 -0.3895 -0.2826
 7389TIP3    H143582   6.136   1.316   4.783 -1.7998  0.0492  0.5187
 7389TIP3    H243583   6.128   1.276   4.929 -0.6499  1.6681  1.0572
 7390TIP3   OH243584   1.472   3.993   3.471 -1.1008  0.1193 -0.0491
 7390TIP3    H143585   1.499   3.962   3.384 -1.0024 -2.1308  0.7241
 7390TIP3    H243586   1.522   4.074   3.484  1.0585 -0.9931 -0.9390
 7391TIP3   OH243587   3.303   1.524  12.337  0.5516 -0.1169 -0.6008
 7391TIP3    H143588   3.272   1.478  12.259 -0.4665  0.6511 -0.6709
 7391TIP3    H243589   3.232   1.584  12.359  0.9307 -0.1552  0.7897
 7392TIP3   OH243590   5.750   1.864  16.375 -0.4472 -0.1444 -0.3945
 7392TIP3    H143591   5.806   1.807  16.428 -1.7894 -0.0275  1.2129
 7392TIP3    H243592   5.749   1.948  16.422  1.4234  1.2963 -2.6638
 7393TIP3   OH243593   2.350   2.680  11.827 -0.1230  0.2759  0.5138
 7393TIP3    H143594   2.284   2.679  11.758 -0.6010 -1.6255  0.9441
 7393TIP3    H243595   2.346   2.769  11.862  0.0896  1.2730 -1.8083
 7394TIP3   OH243596   2.709   1.539  13.625  0.4386  0.2623  0.1482
 7394TIP3    H143597   2.778   1.591  13.665  0.7553 -0.9304  1.2525
 7394TIP3    H243598   2.742   1.449  13.627  0.3485  0.0869 -2.6430
 7395TIP3   OH243599   4.170   5.947   2.214  0.3896 -0.3737  0.7809
 7395TIP3    H143600   4.119   6.020   2.247  0.7836 -0.5390  1.8227
 7395TIP3    H243601   4.260   5.979   2.213  0.3385 -0.1968 -0.6987
 7396TIP3   OH243602   2.072   0.862  13.109  0.6505  0.1354 -0.5625
 7396TIP3    H143603   1.982   0.892  13.117  0.8835  0.6724  0.1281
 7396TIP3    H243604   2.120   0.909  13.178  1.2800 -0.8304 -0.3134
 7397TIP3   OH243605   6.096   0.815   2.108 -0.0860  0.1850  0.2000
 7397TIP3    H143606   6.058   0.805   2.020 -1.9448 -1.0476  1.0658
 7397TIP3    H243607   6.104   0.909   2.121 -0.4813  0.3990 -1.0097
 7398TIP3   OH243608   6.003   3.964  12.863  0.6999  0.2130 -0.1958
 7398TIP3    H143609   5.973   4.055  12.874 -0.1316  0.0075 -0.6235
 7398TIP3    H243610   6.002   3.928  12.951  1.1157  0.6435 -0.0115
 7399TIP3   OH243611   0.598   3.150  15.045  0.2382 -0.0280 -0.0182
 7399TIP3    H143612   0.627   3.136  15.135 -0.6933 -2.0132  0.0273
 7399TIP3    H243613   0.505   3.128  15.046 -0.7082  3.4863 -0.7458
 7400TIP3   OH243614   2.041   2.863  12.473  0.0012 -0.0398 -0.2249
 7400TIP3    H143615   2.075   2.906  12.552 -1.7401  2.4662 -0.7230
 7400TIP3    H243616   1.973   2.805  12.505 -0.1825  0.3978  0.2000
 7401TIP3   OH243617   0.735   5.573   3.418 -0.1124 -0.7144  0.7607
 7401TIP3    H143618   0.647   5.556   3.450  0.1912 -0.9725  1.4704
 7401TIP3    H243619   0.768   5.643   3.473  0.2085 -0.7659  0.6390
 7402TIP3   OH243620   0.659   2.778  13.233  0.1969 -0.0753 -0.0186
 7402TIP3    H143621   0.736   2.828  13.259 -0.5845  1.3914 -0.4303
 7402TIP3    H243622   0.666   2.770  13.137 -0.3801  0.4711 -0.1148
 7403TIP3   OH243623   5.650   5.812  15.526  1.0487 -0.7001 -0.1788
 7403TIP3    H143624   5.740   5.845  15.534  0.8425 -0.4457  1.2850
 7403TIP3    H243625   5.610   5.869  15.460  1.8020 -0.4669 -0.4463
 7404TIP3   OH243626   3.275   6.635   3.526  0.3537 -0.5736  0.0704
 7404TIP3    H143627   3.294   6.597   3.440 -1.0490  2.0813 -1.5466
 7404TIP3    H243628   3.361   6.648   3.566  1.0345 -1.8038 -0.9159
 7405TIP3   OH243629   6.656   2.359   5.105  0.5853  0.1099 -0.0773
 7405TIP3    H143630   6.615   2.316   5.180  1.4145  1.3024  1.1120
 7405TIP3    H243631   6.583   2.400   5.058  0.1825  0.5502  0.8950
 7406TIP3   OH243632   5.522   1.897  12.236 -0.0034  0.3483  0.0376
 7406TIP3    H143633   5.459   1.969  12.239 -0.3752  0.0165  0.2534
 7406TIP3    H243634   5.561   1.895  12.323 -0.8460 -0.4609  0.4051
 7407TIP3   OH243635   0.927   0.808   5.058 -0.0273 -0.6926  0.2793
 7407TIP3    H143636   0.914   0.738   5.122 -1.3699 -0.7451 -0.0256
 7407TIP3    H243637   1.000   0.777   5.004 -0.0167 -1.4458  0.7159
 7408TIP3   OH243638   3.518   0.223  16.472  0.1839  0.1418  0.7636
 7408TIP3    H143639   3.434   0.197  16.433  0.7830  0.4250 -0.7813
 7408TIP3    H243640   3.519   0.180  16.557 -2.4986  1.8709  1.8157
 7409TIP3   OH243641   5.028   3.181   0.104  0.5344  0.1978 -0.3486
 7409TIP3    H143642   4.971   3.257   0.119  1.0763  0.3382  1.1857
 7409TIP3    H243643   5.055   3.189   0.013 -0.3605  1.1906 -0.5496
 7410TIP3   OH243644   4.372   4.842  17.118  0.8333 -0.2649  0.4501
 7410TIP3    H143645   4.446   4.852  17.057  0.8790  1.0441  0.6869
 7410TIP3    H243646   4.308   4.790  17.069  1.0432  0.3950 -0.5682
 7411TIP3   OH243647   5.005   0.651  14.379  0.6427 -0.2374  0.3519
 7411TIP3    H143648   5.097   0.633  14.397  0.3351 -1.0685  1.1767
 7411TIP3    H243649   4.958   0.584  14.428 -0.3080 -1.9677 -2.6398
 7412TIP3   OH243650   1.083   3.114   3.088 -0.4145  0.4717 -0.0611
 7412TIP3    H143651   1.109   3.201   3.061  1.4003  0.7439  2.2904
 7412TIP3    H243652   1.015   3.128   3.154 -0.6775  0.0661 -0.2377
 7413TIP3   OH243653   2.508   4.939   2.234  0.0174 -0.2193 -0.4104
 7413TIP3    H143654   2.464   4.936   2.319 -0.8737  1.0462 -0.7883
 7413TIP3    H243655   2.508   4.849   2.203  0.0871 -0.6529  0.7925
 7414TIP3   OH243656   2.036   0.012   1.046  0.3239  0.4558 -0.1049
 7414TIP3    H143657   2.019  -0.070   1.092  0.8536 -0.4948 -1.5661
 7414TIP3    H243658   2.103   0.055   1.099 -1.6154  1.1402  2.0024
 7415TIP3   OH243659   2.689   5.878   0.105 -0.0937  0.2835  0.4963
 7415TIP3    H143660   2.597   5.853   0.112 -0.2576  1.2102  2.8265
 7415TIP3    H243661   2.687   5.973   0.094  0.5894  0.0862 -1.6292
 7416TIP3   OH243662   6.375   1.601   3.773 -0.2583  0.1341  0.2231
 7416TIP3    H143663   6.390   1.587   3.866  0.1144 -1.0889 -0.0085
 7416TIP3    H243664   6.455   1.572   3.731 -0.8038 -0.2762 -0.5557
 7417TIP3   OH243665   4.630   5.533   0.828 -0.0889  0.5663  0.1227
 7417TIP3    H143666   4.649   5.444   0.856  0.4446  0.6408 -0.0004
 7417TIP3    H243667   4.550   5.526   0.776 -0.3495  0.2399  0.5606
 7418TIP3   OH243668   4.175   1.649  15.452 -0.2858 -0.0416 -0.1975
 7418TIP3    H143669   4.227   1.655  15.372 -0.1195  0.8488 -0.0379
 7418TIP3    H243670   4.216   1.579  15.502 -1.2498 -1.5811 -1.4773
 7419TIP3   OH243671   3.755   6.445   1.937  0.0850 -0.4762 -0.3180
 7419TIP3    H143672   3.674   6.493   1.953  0.1549 -0.0950 -1.0864
 7419TIP3    H243673   3.727   6.355   1.919 -0.1641 -0.3528 -0.5520
 7420TIP3   OH243674   0.819   4.589   4.562 -0.4017 -0.1036  0.5099
 7420TIP3    H143675   0.872   4.591   4.642  0.6697 -2.2778 -0.0593
 7420TIP3    H243676   0.832   4.675   4.523  1.3304  0.0427  1.3060
 7421TIP3   OH243677   6.760   2.037  15.700 -0.0112 -0.6153 -0.3437
 7421TIP3    H143678   6.711   2.111  15.736 -1.0394 -1.7030  0.5692
 7421TIP3    H243679   6.693   1.982  15.659  0.7568 -0.9817 -1.1356
 7422TIP3   OH243680   4.597   4.762   6.279  0.0411 -0.2881  0.1267
 7422TIP3    H143681   4.624   4.842   6.233 -0.3482 -0.1399  0.1502
 7422TIP3    H243682   4.651   4.693   6.241  0.9010  0.0997  0.6213
 7423TIP3   OH243683   1.355   0.650   1.656  0.3327  0.1295 -0.4978
 7423TIP3    H143684   1.424   0.640   1.722 -0.4471  0.9215  0.4699
 7423TIP3    H243685   1.344   0.562   1.620  0.3752 -0.4523  0.8477
 7424TIP3   OH243686   3.271   5.248   3.544  0.4010  0.0523 -0.3112
 7424TIP3    H143687   3.239   5.225   3.631 -1.0443  0.1247 -0.7870
 7424TIP3    H243688   3.209   5.314   3.512  0.0781 -0.9698 -1.9263
 7425TIP3   OH243689   0.527   4.428   1.634  0.0202 -0.2813  0.6327
 7425TIP3    H143690   0.490   4.515   1.649 -0.0647 -0.5146  1.9116
 7425TIP3    H243691   0.466   4.386   1.573  0.4429  0.7812 -0.5582
 7426TIP3   OH243692   6.735   0.861   2.818 -0.0738  0.2995  0.1476
 7426TIP3    H143693   6.666   0.816   2.867  0.5664 -1.4090 -0.4531
 7426TIP3    H243694   6.712   0.848   2.726 -0.3132  1.9709 -0.0683
 7427TIP3   OH243695   2.021   5.213  14.356 -0.0347 -0.0374  1.0300
 7427TIP3    H143696   1.927   5.227  14.349  0.3507  2.7147 -0.0335
 7427TIP3    H243697   2.053   5.290  14.404  1.8048 -0.2163  0.1693
 7428TIP3   OH243698   2.523   6.511   6.005 -0.2291  0.0871 -0.2380
 7428TIP3    H143699   2.590   6.550   5.948 -0.6991 -1.6053 -2.0446
 7428TIP3    H243700   2.560   6.518   6.093  1.7790  0.3314 -1.0486
 7429TIP3   OH243701   1.481   0.531   0.573 -0.1829 -0.0479  0.0185
 7429TIP3    H143702   1.515   0.606   0.621  0.4844  0.0407 -0.5725
 7429TIP3    H243703   1.557   0.495   0.528 -0.4766 -1.1407  0.3684
 7430TIP3   OH243704   3.500   2.158  16.225  0.1551  0.9063  0.3416
 7430TIP3    H143705   3.456   2.116  16.298 -0.2825  2.1172  0.8114
 7430TIP3    H243706   3.592   2.134  16.236 -0.1478 -0.3249  0.2870
 7431TIP3   OH243707   0.961   2.082   2.693  0.0829  0.2805  0.2690
 7431TIP3    H143708   0.969   2.109   2.785  0.9341 -0.0213  0.2899
 7431TIP3    H243709   0.994   2.157   2.643 -0.0593  0.3103  0.2192
 7432TIP3   OH243710   5.899   5.661   5.443  0.1083  0.3205  0.1022
 7432TIP3    H143711   5.898   5.711   5.361  2.7269 -0.7502 -0.7117
 7432TIP3    H243712   5.976   5.693   5.490  0.4375 -1.2102  0.6863
 7433TIP3   OH243713   1.176   2.591  16.303 -0.0146 -0.0429  0.1118
 7433TIP3    H143714   1.101   2.567  16.249 -0.2346  0.7172  0.0609
 7433TIP3    H243715   1.166   2.686  16.316 -0.2522 -0.2861  1.9298
 7434TIP3   OH243716   5.576   0.744  17.135 -0.3291  0.2538 -0.2257
 7434TIP3    H143717   5.625   0.746  17.217 -0.2970 -0.4904 -0.2221
 7434TIP3    H243718   5.595   0.828  17.093 -1.6655  1.3698  1.2807
 7435TIP3   OH243719   0.606   5.056   2.785  0.7682  0.4402 -0.0396
 7435TIP3    H143720   0.585   5.077   2.876  1.6681  2.6212 -0.2797
 7435TIP3    H243721   0.648   4.969   2.790 -0.4899 -0.1326  1.4116
 7436TIP3   OH243722   4.928   6.381  15.862 -0.2969  0.2110  0.3085
 7436TIP3    H143723   4.910   6.303  15.809  0.9685  0.3296 -0.3350
 7436TIP3    H243724   4.928   6.350  15.952 -1.4821 -0.1913  0.1880
 7437TIP3   OH243725   3.280   5.682  12.175  0.1010  0.5042  0.7655
 7437TIP3    H143726   3.325   5.598  12.169  2.5253  1.8156 -1.7727
 7437TIP3    H243727   3.345   5.743  12.209 -0.5836  1.9453 -0.3665
 7438TIP3   OH243728   4.499   1.428  12.296 -0.5172  0.2259 -0.5365
 7438TIP3    H143729   4.519   1.431  12.389  0.2713  1.0598 -0.7139
 7438TIP3    H243730   4.423   1.485  12.286 -1.2564 -0.6858 -0.2717
 7439TIP3   OH243731   1.496   0.894  11.735  0.3693 -0.4377  0.4819
 7439TIP3    H143732   1.501   0.812  11.784 -1.3321 -0.9447 -0.1186
 7439TIP3    H243733   1.508   0.962  11.801 -2.0166 -1.0897  1.7241
 7440TIP3   OH243734   2.201   3.672  12.518  0.1023  0.2266  0.0238
 7440TIP3    H143735   2.257   3.609  12.562  1.0804  1.5651  0.7771
 7440TIP3    H243736   2.166   3.727  12.589 -0.7269  0.5340 -0.6013
 7441TIP3   OH243737   5.660   0.280  16.710 -0.1883  0.0752 -0.1439
 7441TIP3    H143738   5.669   0.344  16.780 -0.6882 -0.6693  0.6310
 7441TIP3    H243739   5.668   0.330  16.629 -1.8991  1.3410  0.4178
 7442TIP3   OH243740   1.701   0.814   2.723  0.6895 -0.4579  0.1169
 7442TIP3    H143741   1.710   0.822   2.818  1.6044  0.3730 -0.0237
 7442TIP3    H243742   1.761   0.744   2.699  0.4038 -0.7186  0.1459
 7443TIP3   OH243743   0.152   0.759   3.560 -0.4453  0.1289  0.6749
 7443TIP3    H143744   0.076   0.743   3.505  2.3495 -0.5760 -3.4666
 7443TIP3    H243745   0.180   0.848   3.538  0.0561  0.3119  1.9558
 7444TIP3   OH243746   3.112   3.371   4.856 -0.1555  0.5948  0.2022
 7444TIP3    H143747   3.100   3.276   4.851  0.5008  0.4133  1.4555
 7444TIP3    H243748   3.191   3.388   4.805 -0.0620  0.4002  0.2782
 7445TIP3   OH243749   4.391   0.535  11.343 -0.3283 -0.3604  0.2967
 7445TIP3    H143750   4.402   0.497  11.256  1.2092 -1.0908  0.7667
 7445TIP3    H243751   4.471   0.512  11.389 -0.8230  0.5927  1.7024
 7446TIP3   OH243752   5.166   6.163  13.171  0.1700 -0.5862 -0.6996
 7446TIP3    H143753   5.099   6.130  13.111  0.4449 -1.2776 -0.6392
 7446TIP3    H243754   5.175   6.094  13.237  1.7359 -1.0481 -1.3303
 7447TIP3   OH243755   4.500   2.424   2.319  0.0346 -0.0984 -0.0054
 7447TIP3    H143756   4.559   2.350   2.301 -0.8738 -0.7307 -0.4861
 7447TIP3    H243757   4.557   2.491   2.356  1.1309 -0.5349 -0.8314
 7448TIP3   OH243758   0.599   2.711   4.002 -0.3119 -0.2365  0.2621
 7448TIP3    H143759   0.665   2.650   4.033 -0.3098 -0.1667  0.3935
 7448TIP3    H243760   0.618   2.722   3.908 -1.4940 -1.9675 -0.2270
 7449TIP3   OH243761   4.696   6.012   5.495 -0.5344 -0.1225  0.1899
 7449TIP3    H143762   4.721   5.965   5.416  1.0950  1.3595 -0.2483
 7449TIP3    H243763   4.606   6.041   5.479 -0.3606 -0.1879 -0.9503
 7450TIP3   OH243764   2.404   3.428   4.668 -0.2259 -0.1689  0.2888
 7450TIP3    H143765   2.489   3.428   4.712 -0.5404  2.9471  1.1239
 7450TIP3    H243766   2.341   3.448   4.738 -1.5354 -1.0993 -0.5658
 7451TIP3   OH243767   4.580   6.658   4.084  0.5385 -0.3215  0.5234
 7451TIP3    H143768   4.562   6.608   4.005 -0.2619  0.0702  0.4514
 7451TIP3    H243769   4.618   6.741   4.053 -1.9164  0.8241  0.3643
 7452TIP3   OH243770   0.495   5.504  17.094 -0.3700  0.3150 -0.2193
 7452TIP3    H143771   0.441   5.433  17.128  2.5510 -1.7125  0.4931
 7452TIP3    H243772   0.550   5.464  17.027 -1.3326  2.8366 -2.7365
 7453TIP3   OH243773   6.446   5.773  15.379  0.2550  0.2851  0.5860
 7453TIP3    H143774   6.373   5.712  15.369 -1.0193  1.8198  0.0195
 7453TIP3    H243775   6.499   5.762  15.300 -0.5540  0.6335 -0.0164
 7454TIP3   OH243776   4.206   2.299  12.827 -0.2046  0.1782  0.3184
 7454TIP3    H143777   4.198   2.230  12.893  1.4402 -0.4713 -0.0916
 7454TIP3    H243778   4.121   2.342  12.825 -1.1834 -1.6605  0.8017
 7455TIP3   OH243779   4.042   3.600  15.669  0.1720  0.4170 -0.1488
 7455TIP3    H143780   4.067   3.690  15.691  1.8301  0.4012 -1.6744
 7455TIP3    H243781   4.085   3.546  15.735 -0.8225  0.7276  0.7679
 7456TIP3   OH243782   5.618   0.532   2.196  0.1504  0.2926 -0.1419
 7456TIP3    H143783   5.678   0.521   2.122 -0.9545  0.3774 -1.0892
 7456TIP3    H243784   5.637   0.459   2.254  0.8796  0.0868 -0.6274
 7457TIP3   OH243785   3.684   6.210  14.023 -1.0233  0.2455  0.2515
 7457TIP3    H143786   3.643   6.167  14.097  0.9549 -0.1637  1.1616
 7457TIP3    H243787   3.689   6.142  13.955 -0.4510 -0.1409  0.6816
 7458TIP3   OH243788   0.674   4.927   3.228 -0.5284 -0.2189  0.1638
 7458TIP3    H143789   0.633   4.874   3.297 -0.3342  0.3034  0.6865
 7458TIP3    H243790   0.683   5.014   3.267 -1.1819  0.3088 -0.8084
 7459TIP3   OH243791   6.536   5.326   1.629  0.0940  0.3521 -0.0390
 7459TIP3    H143792   6.446   5.297   1.648  0.1328  0.6098  0.5710
 7459TIP3    H243793   6.525   5.409   1.583  0.0055 -0.1088 -0.8737
 7460TIP3   OH243794   4.849   1.230  11.523 -0.2128 -0.5591 -0.3550
 7460TIP3    H143795   4.764   1.193  11.547  0.1215  0.2794  2.6162
 7460TIP3    H243796   4.827   1.310  11.474 -1.0512 -1.3031 -1.2339
 7461TIP3   OH243797   5.795   2.983  16.964  0.2143  0.6589  0.4435
 7461TIP3    H143798   5.873   2.941  17.000  0.1008  0.5170  0.5276
 7461TIP3    H243799   5.821   3.074  16.950  0.4277  0.5865  0.3686
 7462TIP3   OH243800   1.681   0.372  11.251 -0.4951  0.2141 -0.2158
 7462TIP3    H143801   1.646   0.359  11.163  0.7336  0.0213 -0.7040
 7462TIP3    H243802   1.694   0.283  11.285  0.2261  0.2594 -0.3513
 7463TIP3   OH243803   0.349   5.852  13.459 -0.2553  0.0022 -0.1131
 7463TIP3    H143804   0.340   5.937  13.504  0.3889  0.0409 -0.0511
 7463TIP3    H243805   0.351   5.874  13.366 -1.0322 -0.0315 -0.1484
 7464TIP3   OH243806   2.311   5.785   2.681 -0.1386  0.3870  0.3131
 7464TIP3    H143807   2.285   5.701   2.718 -2.8750  1.1059  0.2229
 7464TIP3    H243808   2.358   5.829   2.752 -0.7373 -0.2915  1.1451
 7465TIP3   OH243809   3.944   6.053   2.939  0.1340 -0.2819  0.1816
 7465TIP3    H143810   4.002   6.123   2.969 -0.3287 -0.4825  1.6187
 7465TIP3    H243811   3.939   6.065   2.844  0.4436  1.3278  0.3385
 7466TIP3   OH243812   2.557   4.322   3.081  0.4423 -0.5836 -0.0328
 7466TIP3    H143813   2.483   4.334   3.142  0.5028 -2.1164  0.3683
 7466TIP3    H243814   2.607   4.403   3.089 -1.2072  0.5234 -0.3460
 7467TIP3   OH243815   4.052   6.375  11.259 -0.0397  0.4069 -0.3032
 7467TIP3    H143816   4.076   6.371  11.166 -0.0309 -0.5968 -0.2686
 7467TIP3    H243817   3.957   6.363  11.259 -0.0323  0.3521 -0.1781
 7468TIP3   OH243818   0.397   0.936  10.301  0.0782 -0.5708 -0.4484
 7468TIP3    H143819   0.302   0.935  10.291  0.1087 -0.9871 -0.7144
 7468TIP3    H243820   0.420   0.846  10.325  0.5067 -0.7093 -1.3487
 7469TIP3   OH243821   4.555   5.724  11.834  0.6054  0.3693  0.1663
 7469TIP3    H143822   4.536   5.737  11.927 -2.0326  0.6966 -0.3334
 7469TIP3    H243823   4.644   5.689  11.832  0.6447  0.1298  2.8131
 7470TIP3   OH243824   3.776   5.389   5.887 -0.1611  0.3169 -0.7452
 7470TIP3    H143825   3.702   5.330   5.900  0.2394  0.1558  1.1262
 7470TIP3    H243826   3.771   5.450   5.961  3.0525 -1.3636  1.0921
 7471TIP3   OH243827   5.509   1.453  15.689  0.4259 -1.4374 -0.4650
 7471TIP3    H143828   5.530   1.545  15.709 -1.7513 -0.9183 -0.3171
 7471TIP3    H243829   5.543   1.440  15.600 -0.0636 -0.1778 -0.8651
 7472TIP3   OH243830   2.506   4.404   5.709  0.9702 -0.2689  0.1054
 7472TIP3    H143831   2.506   4.432   5.618 -0.2573 -0.5112  0.0113
 7472TIP3    H243832   2.520   4.485   5.759  1.1428 -0.0600 -0.2772
 7473TIP3   OH243833   5.831   1.514   6.278  0.2220 -0.0400  0.1760
 7473TIP3    H143834   5.809   1.514   6.371 -0.7139  0.5028 -0.0329
 7473TIP3    H243835   5.752   1.481   6.234 -0.0311  1.4314 -0.5550
 7474TIP3   OH243836   2.707   5.075   4.479  0.2787  0.1811 -0.0546
 7474TIP3    H143837   2.771   5.084   4.550  0.3907 -0.6521 -0.0317
 7474TIP3    H243838   2.643   5.144   4.495 -0.1553 -0.5017  1.3548
 7475TIP3   OH243839   4.842   6.674  14.674  0.3676 -0.4325  0.2655
 7475TIP3    H143840   4.768   6.690  14.733  0.8724  3.0538  0.1778
 7475TIP3    H243841   4.902   6.618  14.724 -0.2482  0.5732  2.1946
 7476TIP3   OH243842   0.739   2.439  15.805 -0.3498 -0.7754  0.0350
 7476TIP3    H143843   0.806   2.463  15.741 -0.9706  3.3862  0.6570
 7476TIP3    H243844   0.759   2.493  15.882 -3.6795 -0.2338  0.6607
 7477TIP3   OH243845   5.702   5.155  13.861 -0.4662  0.4971 -0.0548
 7477TIP3    H143846   5.678   5.073  13.903  1.5352 -0.9249 -1.4660
 7477TIP3    H243847   5.709   5.219  13.932 -0.7402 -0.8945  1.2513
 7478TIP3   OH243848   2.142   5.965  11.412 -0.0593 -0.2875  0.2156
 7478TIP3    H143849   2.133   5.878  11.452 -0.9711 -0.9543 -1.3635
 7478TIP3    H243850   2.075   5.967  11.344  0.4175  1.4025 -0.2469
 7479TIP3   OH243851   0.656   1.450   4.617  0.0516  0.2930 -0.1871
 7479TIP3    H143852   0.740   1.405   4.615 -0.3603 -0.5651  1.0293
 7479TIP3    H243853   0.623   1.436   4.706 -1.5656  0.2684 -0.7679
 7480TIP3   OH243854   1.584   4.225   3.610 -0.0540  0.0989 -0.4372
 7480TIP3    H143855   1.671   4.245   3.577  0.0886  0.6717  0.2660
 7480TIP3    H243856   1.558   4.303   3.659 -0.0244 -0.9262  1.2993
 7481TIP3   OH243857   3.792   0.459  11.637 -0.1545 -0.1127 -0.1557
 7481TIP3    H143858   3.842   0.450  11.718 -2.5467  0.9606  1.5727
 7481TIP3    H243859   3.834   0.531  11.590  2.1121 -1.6512 -0.6234
 7482TIP3   OH243860   4.889   2.210  13.169 -0.2642  0.2066  0.3536
 7482TIP3    H143861   4.850   2.127  13.141 -0.0246 -0.7154  2.5860
 7482TIP3    H243862   4.976   2.186  13.201  1.0111  1.7904 -1.6641
 7483TIP3   OH243863   2.136   6.345   3.014  0.3754 -0.0519  0.6962
 7483TIP3    H143864   2.215   6.313   2.970 -0.5726 -0.3993 -0.8256
 7483TIP3    H243865   2.086   6.266   3.034 -1.0879  0.2583 -1.3578
 7484TIP3   OH243866   5.764   0.834   3.480 -0.3359 -0.1692  0.1210
 7484TIP3    H143867   5.850   0.875   3.487  0.1121 -1.2158  0.9522
 7484TIP3    H243868   5.721   0.882   3.409  0.6134  0.9099  0.2353
 7485TIP3   OH243869   3.166   1.229  12.043  0.3971  0.0748  0.2395
 7485TIP3    H143870   3.246   1.197  12.001 -0.3844  1.2569 -2.4209
 7485TIP3    H243871   3.158   1.319  12.012 -2.3155 -0.2314 -0.2303
 7486TIP3   OH243872   0.647   2.641   5.622  0.1291 -0.0351 -0.4019
 7486TIP3    H143873   0.735   2.608   5.640  0.7285  0.8704 -1.5081
 7486TIP3    H243874   0.660   2.734   5.602 -1.3949  0.7419  1.8530
 7487TIP3   OH243875   0.121   5.913  14.007  0.0542 -0.3845  0.3987
 7487TIP3    H143876   0.132   5.941  14.098 -1.2815 -0.9375  0.7423
 7487TIP3    H243877   0.192   5.958  13.960  0.1347  0.7235  1.5233
 7488TIP3   OH243878   6.506   2.545   1.899 -0.4495  0.4660 -0.2651
 7488TIP3    H143879   6.433   2.599   1.928 -0.4075  0.5168 -0.2543
 7488TIP3    H243880   6.537   2.502   1.979 -2.3966 -1.9377 -0.6731
 7489TIP3   OH243881   3.557   4.659  11.258  0.7877 -0.2334 -0.0376
 7489TIP3    H143882   3.502   4.710  11.318  0.2264 -0.0448 -0.6947
 7489TIP3    H243883   3.632   4.633  11.310  0.4755  0.2195  0.6511
 7490TIP3   OH243884   1.373   6.454  16.196 -0.6714 -0.6903  0.4625
 7490TIP3    H143885   1.371   6.547  16.174  1.3000 -0.7373 -0.0866
 7490TIP3    H243886   1.443   6.417  16.142  0.9407 -1.8180  3.0893
 7491TIP3   OH243887   0.768   1.745  13.548  0.0329  0.6090 -0.4190
 7491TIP3    H143888   0.706   1.773  13.615  0.0898  0.5472 -0.3408
 7491TIP3    H243889   0.818   1.674  13.589  2.3324  2.7034  0.6800
 7492TIP3   OH243890   5.428   0.299   1.640 -0.2563 -0.6115 -0.0403
 7492TIP3    H143891   5.462   0.282   1.552 -0.6625 -0.8804 -0.1500
 7492TIP3    H243892   5.430   0.395   1.648  1.5917 -0.6427  0.3938
 7493TIP3   OH243893   2.638   5.329   5.062 -0.2300 -0.5625 -0.8744
 7493TIP3    H143894   2.729   5.336   5.088 -0.5835  0.5996  0.1441
 7493TIP3    H243895   2.602   5.258   5.115  0.1031 -1.1164 -1.3800
 7494TIP3   OH243896   2.176   2.330   4.987  0.6142  0.3101  0.4746
 7494TIP3    H143897   2.226   2.271   4.931 -0.6412 -0.9078  0.5968
 7494TIP3    H243898   2.167   2.410   4.935  0.1222 -0.5338 -0.7910
 7495TIP3   OH243899   4.079   2.195  11.782  0.2016 -0.0288 -0.5571
 7495TIP3    H143900   4.016   2.251  11.737 -0.1467 -0.2980 -0.4064
 7495TIP3    H243901   4.134   2.255  11.832  1.7229  0.4495 -2.6949
 7496TIP3   OH243902   3.704   1.787  14.435 -0.1846  0.3945  0.0374
 7496TIP3    H143903   3.639   1.780  14.365 -1.4024 -0.6625  1.1948
 7496TIP3    H243904   3.746   1.701  14.438  2.1677  1.4171 -1.4529
 7497TIP3   OH243905   1.793   6.668   4.971 -0.0055  0.0897  0.1064
 7497TIP3    H143906   1.751   6.663   5.056  0.9992  1.6025  0.7389
 7497TIP3    H243907   1.854   6.594   4.969 -3.0913 -2.6864 -1.1748
 7498TIP3   OH243908   6.280   0.407  15.897  0.3982 -0.0247  0.0032
 7498TIP3    H143909   6.285   0.314  15.919 -4.5115 -0.4226  0.4457
 7498TIP3    H243910   6.293   0.410  15.802  0.2157 -1.2274 -0.0717
 7499TIP3   OH243911   6.089   0.134   1.826  0.0372  0.2310 -0.7415
 7499TIP3    H143912   6.115   0.201   1.763 -1.9971  2.7308  0.8913
 7499TIP3    H243913   6.050   0.065   1.773 -1.1074  1.9960 -2.3180
 7500TIP3   OH243914   5.274   5.332  16.336  0.2520  0.1792 -0.4935
 7500TIP3    H143915   5.339   5.285  16.284  0.6909 -0.4951  0.6406
 7500TIP3    H243916   5.322   5.406  16.373 -0.1184  0.7951 -1.2056
 7501TIP3   OH243917   6.618   6.601   2.929  0.1887  0.0056  0.0686
 7501TIP3    H143918   6.704   6.590   2.889  1.2207  1.1953  1.7685
 7501TIP3    H243919   6.585   6.512   2.942 -0.0615 -0.4290 -2.9655
 7502TIP3   OH243920   6.048   6.585  11.946  0.1081  0.2145 -0.1951
 7502TIP3    H143921   6.076   6.643  11.876 -1.6275  1.5129  0.1127
 7502TIP3    H243922   5.988   6.523  11.903  0.8915 -0.5042 -0.2713
 7503TIP3   OH243923   4.373   1.371  15.171  0.8369 -0.0750  0.0987
 7503TIP3    H143924   4.399   1.318  15.247 -0.1203 -3.4100 -1.6909
 7503TIP3    H243925   4.451   1.372  15.115  0.8070  0.3174  0.0623
 7504TIP3   OH243926   3.236   2.935   2.309  1.0550  0.4132 -0.0250
 7504TIP3    H143927   3.258   2.956   2.400 -0.8943  0.6388  0.4398
 7504TIP3    H243928   3.157   2.986   2.291  0.3556 -1.0064 -1.2327
 7505TIP3   OH243929   6.632   6.524   0.683  0.7280 -0.8246 -0.1770
 7505TIP3    H143930   6.562   6.458   0.690  0.3557 -0.6463 -1.7065
 7505TIP3    H243931   6.632   6.548   0.590  2.6032 -0.5543 -0.1405
 7506TIP3   OH243932   0.616   4.275  13.455  0.0451 -0.1691  0.1950
 7506TIP3    H143933   0.577   4.270  13.368  0.0467  4.3873 -0.2676
 7506TIP3    H243934   0.705   4.307  13.440  0.0915  0.5920  1.8544
 7507TIP3   OH243935   4.676   3.164   0.597  0.0657 -0.5076 -0.6074
 7507TIP3    H143936   4.609   3.124   0.653 -0.7886  0.7016 -0.7120
 7507TIP3    H243937   4.742   3.196   0.658  0.8978 -2.2569 -0.5380
 7508TIP3   OH243938   4.937   4.997   3.576  0.1019  0.5872 -0.1791
 7508TIP3    H143939   4.944   5.040   3.491 -3.1883  0.0899 -0.8473
 7508TIP3    H243940   4.903   5.064   3.635 -0.7843  0.1022 -0.1168
 7509TIP3   OH243941   0.029   4.015  13.050  0.2127  0.0046  0.5345
 7509TIP3    H143942   0.097   4.050  13.108 -0.3850 -0.1093  1.3222
 7509TIP3    H243943  -0.047   4.005  13.106 -0.4151 -0.0211 -0.3028
 7510TIP3   OH243944   3.203   2.877  15.619 -0.0880  0.5978  0.1965
 7510TIP3    H143945   3.241   2.840  15.699  0.6177 -0.3451 -0.5420
 7510TIP3    H243946   3.117   2.836  15.611  0.3472 -0.2827 -0.1667
 7511TIP3   OH243947   4.542   3.299   5.013  0.1760 -0.0122  0.0158
 7511TIP3    H143948   4.558   3.309   4.919 -1.2518 -2.3536 -0.5617
 7511TIP3    H243949   4.465   3.242   5.018  0.8543 -0.8230  2.6071
 7512TIP3   OH243950   4.346   2.519  13.524  0.1349 -0.0396 -0.4209
 7512TIP3    H143951   4.273   2.543  13.582 -1.4330  0.8463 -2.6443
 7512TIP3    H243952   4.378   2.602  13.490  1.2285 -0.5298 -0.6482
 7513TIP3   OH243953   2.967   4.996   4.919 -0.3208  0.3804 -0.2474
 7513TIP3    H143954   3.060   4.976   4.930 -0.4120 -0.7781 -1.2452
 7513TIP3    H243955   2.965   5.066   4.854 -0.1587 -1.0215 -1.8535
 7514TIP3   OH243956   1.546   1.286   1.856 -0.0697 -0.4695 -0.3609
 7514TIP3    H143957   1.630   1.306   1.815 -0.3979 -0.4821 -1.0528
 7514TIP3    H243958   1.483   1.287   1.783 -0.7021 -0.2455  0.1791
 7515TIP3   OH243959   3.193   3.992  10.676 -0.9136  0.0989 -0.0830
 7515TIP3    H143960   3.175   3.908  10.633 -2.3060 -0.8240  2.1523
 7515TIP3    H243961   3.114   4.044  10.661  0.0926  1.2414 -1.7971
 7516TIP3   OH243962   2.731   5.964   1.011 -0.2111 -0.0141 -0.1908
 7516TIP3    H143963   2.644   5.947   1.048  0.7751 -0.5084  2.0695
 7516TIP3    H243964   2.746   5.891   0.951 -0.3762 -1.3368  1.3127
 7517TIP3   OH243965   0.376   3.539   6.259 -0.0832 -0.2932  0.8334
 7517TIP3    H143966   0.316   3.613   6.269  1.4462  0.8337  2.1960
 7517TIP3    H243967   0.361   3.485   6.336 -0.3749 -0.7675  0.4401
 7518TIP3   OH243968   3.463   3.615   5.631  0.4026 -0.6060  0.5860
 7518TIP3    H143969   3.445   3.615   5.537 -0.7107 -0.2230  0.7816
 7518TIP3    H243970   3.485   3.524   5.651 -0.5059 -0.9393  0.1463
 7519TIP3   OH243971   0.738   5.340   5.251  0.0841 -0.2716  0.3736
 7519TIP3    H143972   0.721   5.346   5.157 -0.6279 -2.1554  0.3316
 7519TIP3    H243973   0.811   5.278   5.258 -2.4783 -3.5020  1.1310
 7520TIP3   OH243974   2.081   5.174  12.461  0.0538 -0.6984  0.1089
 7520TIP3    H143975   2.041   5.156  12.546  0.6577  0.1069  0.5895
 7520TIP3    H243976   2.008   5.183  12.401 -0.4301 -0.3558  0.7354
 7521TIP3   OH243977   5.271   4.912   0.259 -0.3314 -0.0746  0.2603
 7521TIP3    H143978   5.322   4.877   0.186 -2.4123 -0.8934 -0.8791
 7521TIP3    H243979   5.298   5.003   0.267  1.1483 -0.4360 -0.4108
 7522TIP3   OH243980   4.846   3.319   2.091 -0.4161  0.5085 -0.0287
 7522TIP3    H143981   4.856   3.414   2.097 -1.4840  0.5667  1.3892
 7522TIP3    H243982   4.771   3.307   2.033 -0.8472  0.5930  0.4930
 7523TIP3   OH243983   3.503   0.193  10.938  0.5450  0.2356 -0.1419
 7523TIP3    H143984   3.434   0.144  10.893  0.8908  0.2812 -0.7340
 7523TIP3    H243985   3.520   0.268  10.881  0.2931  0.8355  0.5680
 7524TIP3   OH243986   0.655   0.437  11.192  0.2179 -0.0165  0.8294
 7524TIP3    H143987   0.574   0.468  11.151 -1.2006 -1.2710  2.5185
 7524TIP3    H243988   0.675   0.356  11.145  0.7581  0.5201  0.1209
 7525TIP3   OH243989   1.814   5.119  14.096  0.5865  0.4149  0.3988
 7525TIP3    H143990   1.739   5.080  14.142 -1.1418  0.9184 -1.7991
 7525TIP3    H243991   1.882   5.052  14.099 -0.8460 -1.1260  0.2853
 7526TIP3   OH243992   3.631   0.013  16.671  0.1747  0.1283 -0.0352
 7526TIP3    H143993   3.653  -0.079  16.658  0.7281 -0.2140  2.6974
 7526TIP3    H243994   3.535   0.015  16.676  0.2091 -0.6699  1.7595
 7527TIP3   OH243995   4.049   4.896  11.997 -0.2913 -0.2047 -1.1269
 7527TIP3    H143996   3.967   4.881  11.950 -2.4788 -0.8528  2.5011
 7527TIP3    H243997   4.023   4.943  12.076  3.0320  0.5276 -0.3305
 7528TIP3   OH243998   5.411   5.260  14.816  0.2251  0.5491 -0.2936
 7528TIP3    H143999   5.448   5.281  14.730  0.4594  1.4057 -0.0001
 7528TIP3    H244000   5.317   5.248  14.800  0.0958  1.7136 -0.5315
 7529TIP3   OH244001   1.995   1.707  11.607 -0.0231  0.2020  0.2666
 7529TIP3    H144002   1.954   1.752  11.681 -1.7492  0.2635 -0.6959
 7529TIP3    H244003   1.937   1.634  11.587  0.9663 -0.4312 -0.3957
 7530TIP3   OH244004   3.142   4.635   1.608  0.4723 -0.1277 -0.1969
 7530TIP3    H144005   3.090   4.711   1.583  0.7509  0.7565  1.7613
 7530TIP3    H244006   3.131   4.574   1.535 -0.9863  1.1678 -1.1278
 7531TIP3   OH244007   0.266   6.530  13.946  0.1333 -0.0874  0.0723
 7531TIP3    H144008   0.234   6.576  14.024  0.1544  0.0641 -0.0067
 7531TIP3    H244009   0.248   6.590  13.874  0.4599 -0.0604  0.0084
 7532TIP3   OH244010   5.983   1.009   3.945 -0.3137  0.1125  0.9029
 7532TIP3    H144011   6.008   1.084   3.998 -0.1464  0.9660 -0.3462
 7532TIP3    H244012   6.059   0.992   3.889 -1.2231  0.5870 -0.5435
 7533TIP3   OH244013   4.298   1.125  16.322  0.2871  0.4124 -0.6704
 7533TIP3    H144014   4.288   1.036  16.286 -1.1059 -0.0459  0.7465
 7533TIP3    H244015   4.225   1.174  16.283  1.0522  0.9557 -1.4459
 7534TIP3   OH244016   3.836   1.807   4.007  0.9871 -0.1437 -0.2394
 7534TIP3    H144017   3.779   1.751   3.954  0.2109  1.9983 -1.8448
 7534TIP3    H244018   3.876   1.748   4.071 -0.7399 -2.2538 -0.9854
 7535TIP3   OH244019   2.455   5.953   5.460 -0.4141 -0.3570 -0.1657
 7535TIP3    H144020   2.465   5.962   5.554  0.5759  1.9561 -0.4322
 7535TIP3    H244021   2.537   5.913   5.430 -0.2365 -0.0026 -0.1594
 7536TIP3   OH244022   1.712   0.857   3.005 -0.2338  0.0727  0.3991
 7536TIP3    H144023   1.781   0.908   3.047  0.0884 -0.6959  0.8096
 7536TIP3    H244024   1.631   0.892   3.041 -0.0971  1.2573 -0.3923
 7537TIP3   OH244025   5.053   5.054   0.063 -0.1191  0.1162 -0.1925
 7537TIP3    H144026   5.031   4.962   0.080 -1.4007  0.4790  0.2589
 7537TIP3    H244027   4.968   5.096   0.049  0.2823  1.5556  1.3303
 7538TIP3   OH244028   0.841   1.148   3.829  0.4459  0.4463 -0.0574
 7538TIP3    H144029   0.798   1.102   3.756  0.0130  0.5249  0.1468
 7538TIP3    H244030   0.769   1.184   3.880  0.7124 -0.3213  0.8850
 7539TIP3   OH244031   1.076   4.927  12.987 -0.9057 -0.3444  0.0063
 7539TIP3    H144032   1.055   4.942  12.894 -2.2285  0.7106  0.4453
 7539TIP3    H244033   0.991   4.918  13.029 -0.3429  0.1336  1.2715
 7540TIP3   OH244034   3.679   5.867  15.749  0.5366  0.5784  0.0337
 7540TIP3    H144035   3.681   5.873  15.844 -0.3075 -1.0398  0.1913
 7540TIP3    H244036   3.589   5.889  15.726  0.5972  0.4436 -0.3374
 7541TIP3   OH244037   4.601   6.676  13.788 -0.4119  0.5220  0.3118
 7541TIP3    H144038   4.679   6.727  13.765 -0.3492 -0.7534 -2.8213
 7541TIP3    H244039   4.535   6.703  13.724 -2.1890  0.6088  2.0758
 7542TIP3   OH244040   0.980   1.778   2.234  0.2247 -0.3814 -0.2600
 7542TIP3    H144041   1.026   1.771   2.151 -2.1888 -1.9232 -1.5979
 7542TIP3    H244042   0.947   1.689   2.250 -3.9396  0.9078 -0.5371
 7543TIP3   OH244043   1.688   5.112  16.074 -0.1161 -0.1540 -0.2946
 7543TIP3    H144044   1.611   5.090  16.127  0.0226 -0.3125 -0.1624
 7543TIP3    H244045   1.655   5.178  16.012 -0.3765 -0.2724 -0.2851
 7544TIP3   OH244046   4.325   5.746   4.108 -0.0693 -0.2047  0.3188
 7544TIP3    H144047   4.410   5.785   4.131  0.2952 -1.6650  1.6251
 7544TIP3    H244048   4.337   5.652   4.121 -1.8613 -0.4636  0.3993
 7545TIP3   OH244049   3.116   3.760   3.616  0.2501 -0.8605  0.3717
 7545TIP3    H144050   3.140   3.840   3.662  0.6368 -0.3975 -0.6148
 7545TIP3    H244051   3.023   3.747   3.635 -0.2256  0.6859 -0.7180
 7546TIP3   OH244052   5.122   3.927   3.938 -0.1306  0.8561 -0.0228
 7546TIP3    H144053   5.184   3.905   3.869  0.5749  2.7748 -0.0438
 7546TIP3    H244054   5.153   4.010   3.974 -0.4305 -0.0700  2.6579
 7547TIP3   OH244055   1.342   3.815   5.368 -0.7647  0.2607 -0.4171
 7547TIP3    H144056   1.335   3.780   5.458  1.7123  0.2332 -0.1764
 7547TIP3    H244057   1.434   3.805   5.346 -0.6200  3.4823 -1.6787
 7548TIP3   OH244058   2.520   1.782  11.050  0.3285  0.4770  0.3066
 7548TIP3    H144059   2.528   1.692  11.020  1.1441  0.7056 -0.1870
 7548TIP3    H244060   2.609   1.817  11.047  0.1932  0.9785  1.5403
 7549TIP3   OH244061   1.760   5.666  14.063 -0.0453 -0.4435  0.8031
 7549TIP3    H144062   1.776   5.613  13.985 -0.8732 -0.4678  0.6405
 7549TIP3    H244063   1.704   5.611  14.118  0.2382 -0.2841  1.2510
 7550TIP3   OH244064   1.715   1.636  13.391 -0.0266  0.3301 -0.0049
 7550TIP3    H144065   1.689   1.552  13.354  2.3092  0.2103 -1.5949
 7550TIP3    H244066   1.664   1.644  13.472  0.1422 -2.8990  0.5403
 7551TIP3   OH244067   6.102   1.468  11.512 -0.2675  0.1541  0.1581
 7551TIP3    H144068   6.122   1.495  11.601  1.4411  2.2485 -0.7579
 7551TIP3    H244069   6.007   1.460  11.509 -0.5180  2.0781  1.6456
 7552TIP3   OH244070   5.500   2.602  10.267 -0.3984 -0.2260 -0.7263
 7552TIP3    H144071   5.489   2.622  10.360 -0.8387  1.1584 -1.0455
 7552TIP3    H244072   5.582   2.646  10.242 -0.0026 -1.0339 -0.8866
 7553TIP3   OH244073   5.623   4.358  15.630  0.0902 -0.2487 -0.2981
 7553TIP3    H144074   5.684   4.422  15.667 -0.4949  0.1083  0.0514
 7553TIP3    H244075   5.678   4.282  15.608  0.8741  0.5476 -1.1745
 7554TIP3   OH244076   0.933   1.126  11.183  0.0298 -0.1022  0.1447
 7554TIP3    H144077   0.909   1.204  11.232 -0.2493  0.3302 -0.6626
 7554TIP3    H244078   0.983   1.073  11.245 -1.0336  0.0375  1.1611
 7555TIP3   OH244079   4.684   0.248  13.747 -0.1247 -0.2850  0.6088
 7555TIP3    H144080   4.758   0.193  13.771 -0.0823 -0.1070  0.8932
 7555TIP3    H244081   4.650   0.209  13.666  0.6443 -0.0152  0.1469
 7556TIP3   OH244082   3.794   5.171   5.106 -0.0389  0.2417  0.3454
 7556TIP3    H144083   3.874   5.119   5.115 -0.0721  0.1292  0.0125
 7556TIP3    H244084   3.791   5.224   5.185  1.4326  1.7500 -0.5493
 7557TIP3   OH244085   1.483   0.506  15.243  0.4087  0.3733  0.2657
 7557TIP3    H144086   1.521   0.445  15.179 -1.7714 -0.8282  0.0330
 7557TIP3    H244087   1.513   0.472  15.328  1.9211  0.9766  0.0033
 7558TIP3   OH244088   4.376   2.036   2.213 -1.0504 -0.5189 -0.2531
 7558TIP3    H144089   4.282   2.055   2.207 -1.0544 -0.5886 -0.4066
 7558TIP3    H244090   4.408   2.040   2.123 -0.6344  0.8613 -0.0663
 7559TIP3   OH244091   2.005   2.186  16.629 -0.1050 -0.1739 -0.8282
 7559TIP3    H144092   1.923   2.138  16.645 -1.5023  1.9983 -1.1316
 7559TIP3    H244093   2.041   2.146  16.550 -1.2152 -0.7665 -1.0625
 7560TIP3   OH244094   6.039   5.653   0.169  0.4019  0.5918  0.8545
 7560TIP3    H144095   6.019   5.649   0.263  0.9403 -0.0326  0.9520
 7560TIP3    H244096   5.998   5.575   0.133 -1.9405  2.0516  0.1104
 7561TIP3   OH244097   6.056   1.915   3.548  0.1766 -0.0934 -0.5231
 7561TIP3    H144098   5.975   1.887   3.592  1.0138 -1.3849  0.2555
 7561TIP3    H244099   6.035   1.909   3.455 -0.7522  0.0251 -0.3399
 7562TIP3   OH244100   3.350   3.301   0.273 -0.1337  0.1818 -0.1485
 7562TIP3    H144101   3.369   3.360   0.346 -0.2350  0.7703 -0.5886
 7562TIP3    H244102   3.257   3.313   0.256 -0.4858 -1.1858  0.6839
 7563TIP3   OH244103   0.318   6.566  12.861  0.5450 -0.1785  0.2070
 7563TIP3    H144104   0.279   6.621  12.931 -1.9533  1.2812 -2.1143
 7563TIP3    H244105   0.296   6.477  12.886 -0.2173  0.2990  1.3407
 7564TIP3   OH244106   5.202   3.396   1.468 -0.0324 -0.4069 -0.2292
 7564TIP3    H144107   5.118   3.355   1.450 -1.5065  2.1282  0.3373
 7564TIP3    H244108   5.204   3.474   1.412  0.3611  1.4075  2.1247
 7565TIP3   OH244109   3.647   2.931   3.567 -0.2742  0.1852  0.6137
 7565TIP3    H144110   3.581   2.907   3.632 -2.4010  0.3040 -1.3627
 7565TIP3    H244111   3.671   3.021   3.590 -0.6376  0.0723  1.4806
 7566TIP3   OH244112   2.108   2.114   5.447 -0.4089 -0.3345  0.1582
 7566TIP3    H144113   2.104   2.023   5.419 -2.1910 -0.1510 -0.3425
 7566TIP3    H244114   2.057   2.116   5.529  0.8809 -0.0339  0.9878
 7567TIP3   OH244115   3.863   2.523  14.722  0.1525 -0.0038 -0.5210
 7567TIP3    H144116   3.905   2.503  14.806  2.0777 -1.2687 -1.7215
 7567TIP3    H244117   3.771   2.539  14.745  0.1750 -2.3389  1.5962
 7568TIP3   OH244118   5.640   2.118  13.653 -0.2020 -0.5068 -0.1205
 7568TIP3    H144119   5.549   2.101  13.627 -0.8026 -0.9065  2.0592
 7568TIP3    H244120   5.665   2.040  13.703  1.2099 -0.2106 -0.3295
 7569TIP3   OH244121   4.935   5.558  15.911  0.3634 -0.1276 -0.3802
 7569TIP3    H144122   4.996   5.559  15.985 -1.5892  1.3933  1.3043
 7569TIP3    H244123   4.976   5.615  15.846  1.3467 -0.1666  0.1852
 7570TIP3   OH244124   6.198   6.774   5.591  0.1793  0.1316  0.3808
 7570TIP3    H144125   6.260   6.839   5.625  0.0632  0.6613 -0.4062
 7570TIP3    H244126   6.228   6.757   5.502 -0.1924 -0.4003  0.3545
 7571TIP3   OH244127   6.638   3.123  15.295  0.7149 -0.2382 -0.6753
 7571TIP3    H144128   6.552   3.082  15.308  0.8644 -0.6186 -0.8748
 7571TIP3    H244129   6.632   3.206  15.341 -0.2845  0.4180 -1.9190
 7572TIP3   OH244130   3.225   5.128  15.761 -0.3511 -0.3515  0.0964
 7572TIP3    H144131   3.189   5.174  15.836  0.9400  3.0076 -1.1592
 7572TIP3    H244132   3.298   5.077  15.797  0.5069  1.5112  1.1206
 7573TIP3   OH244133   1.689   2.582  12.200 -0.3397 -0.4236 -0.2673
 7573TIP3    H144134   1.755   2.514  12.188 -0.4917 -0.5060 -0.6479
 7573TIP3    H244135   1.704   2.614  12.289 -0.1154 -0.7912 -0.1696
 7574TIP3   OH244136   2.438   2.039   2.087  0.2856 -0.0544  0.6703
 7574TIP3    H144137   2.529   2.037   2.057  1.0047  0.6021  2.6402
 7574TIP3    H244138   2.419   1.949   2.112 -0.4427 -0.6921 -1.8706
 7575TIP3   OH244139   3.936   3.983   4.183  0.1481  0.3536 -1.0163
 7575TIP3    H144140   3.874   3.954   4.250  0.6495  1.6440  0.0548
 7575TIP3    H244141   3.881   4.016   4.112 -0.3861 -0.4194 -0.9808
 7576TIP3   OH244142   1.998   4.790  12.381 -0.6367  0.8087 -0.1816
 7576TIP3    H144143   1.925   4.851  12.385 -1.1735  0.2575 -1.1464
 7576TIP3    H244144   1.960   4.706  12.406  0.4932  1.1129  3.1031
 7577TIP3   OH244145   5.540   1.068   5.306  0.9733 -0.4566 -0.2726
 7577TIP3    H144146   5.568   1.007   5.238  1.7519 -0.1636 -0.2236
 7577TIP3    H244147   5.461   1.109   5.271  0.4893 -1.4165 -0.3392
 7578TIP3   OH244148   4.990   3.115  16.523  0.0086 -0.2711 -0.3909
 7578TIP3    H144149   5.079   3.141  16.497  0.5015  0.9012  2.1631
 7578TIP3    H244150   4.939   3.124  16.443  1.8499  0.6909 -1.5410
 7579TIP3   OH244151   0.488   6.017   5.886 -0.6405 -0.7182  0.0171
 7579TIP3    H144152   0.499   5.939   5.940  2.3243 -0.0116  0.6248
 7579TIP3    H244153   0.420   6.068   5.930 -0.3929 -1.5336  1.3876
 7580TIP3   OH244154   1.468   4.527  11.358 -0.3546  0.3387 -0.1149
 7580TIP3    H144155   1.513   4.488  11.433 -1.0242 -2.9402 -1.2234
 7580TIP3    H244156   1.539   4.548  11.297 -0.0369 -1.4122 -0.4060
 7581TIP3   OH244157   3.157   3.244   4.262  0.5572  0.2991 -0.3072
 7581TIP3    H144158   3.099   3.297   4.207 -0.4947 -1.1630 -0.6584
 7581TIP3    H244159   3.118   3.250   4.350  1.7562  1.9362  0.1740
 7582TIP3   OH244160   5.302   2.350  10.998  0.1196  0.1896  0.4506
 7582TIP3    H144161   5.274   2.355  10.906  0.0011 -0.4531  0.4466
 7582TIP3    H244162   5.220   2.346  11.047  0.1457  2.0533  0.6996
 7583TIP3   OH244163   3.888   0.408   3.439  0.0988 -0.3944  0.4924
 7583TIP3    H144164   3.799   0.374   3.436  0.8952 -2.6161 -0.5744
 7583TIP3    H244165   3.877   0.502   3.448 -2.4767 -0.1988 -2.6710
 7584TIP3   OH244166   4.656   5.041  11.524 -0.5172  0.0923 -0.3842
 7584TIP3    H144167   4.697   5.115  11.478 -3.3510  0.5353 -2.4473
 7584TIP3    H244168   4.637   5.075  11.611  1.5986  0.4898 -0.0209
 7585TIP3   OH244169   1.001   2.951  12.599 -0.2089  0.1785  0.8218
 7585TIP3    H144170   0.930   2.936  12.536  0.4139 -1.2291  0.4161
 7585TIP3    H244171   1.014   3.046  12.599 -0.5927  0.2462 -0.7546
 7586TIP3   OH244172   1.891   3.018  16.224  0.0037 -0.3489 -0.4736
 7586TIP3    H144173   1.975   3.062  16.207  0.1147 -0.0876  0.6355
 7586TIP3    H244174   1.902   2.981  16.311 -1.0953 -0.1720 -0.2524
 7587TIP3   OH244175   0.069   6.390   2.198 -0.2807 -0.2347  0.3930
 7587TIP3    H144176   0.003   6.322   2.211 -1.1122  0.2638 -0.9806
 7587TIP3    H244177   0.151   6.342   2.187 -0.5846 -0.9203  1.0351
 7588TIP3   OH244178   0.190   2.874  16.234  0.5677 -0.8174  0.5281
 7588TIP3    H144179   0.166   2.886  16.326  1.4717  0.1520  0.6612
 7588TIP3    H244180   0.268   2.929  16.222  1.8043 -2.6464 -0.2574
 7589TIP3   OH244181   4.617   4.655   1.426  0.3628 -0.3728 -0.0490
 7589TIP3    H144182   4.637   4.561   1.422 -1.1711 -0.8134  1.3783
 7589TIP3    H244183   4.703   4.697   1.437  1.0035 -1.6868  0.2530
 7590TIP3   OH244184   1.781   4.289   4.170  0.3025  0.0105  0.1139
 7590TIP3    H144185   1.728   4.369   4.159  1.4721  0.7713 -0.2082
 7590TIP3    H244186   1.801   4.261   4.081  0.7755 -0.0284  0.2288
 7591TIP3   OH244187   6.017   6.078  12.638  0.0044 -0.0646  0.0793
 7591TIP3    H144188   5.941   6.121  12.598  0.0178  0.9656  1.0812
 7591TIP3    H244189   6.092   6.127  12.605 -0.0251  1.2714  1.8149
 7592TIP3   OH244190   5.964   3.908  15.971 -0.2834  0.3672 -0.6542
 7592TIP3    H144191   5.907   3.853  16.024 -0.1782  0.4356 -0.4703
 7592TIP3    H244192   5.964   3.993  16.014  1.4726 -0.1500  0.4583
 7593TIP3   OH244193   2.110   5.988  13.321 -1.1833 -0.4953  0.1491
 7593TIP3    H144194   2.160   6.012  13.399 -0.6246 -1.0576 -0.0273
 7593TIP3    H244195   2.033   5.943  13.356 -1.2335 -0.2155  0.3988
 7594TIP3   OH244196   2.647   1.647   1.073  0.7128  0.1776 -0.1382
 7594TIP3    H144197   2.584   1.719   1.061  0.8193  0.1373 -1.0280
 7594TIP3    H244198   2.710   1.681   1.135  0.0919  0.4073  0.3819
 7595TIP3   OH244199   4.870   4.207   4.755  0.0373  0.2325  0.5046
 7595TIP3    H144200   4.946   4.264   4.748  0.2831 -0.2062 -0.8292
 7595TIP3    H244201   4.893   4.143   4.823  0.5489  0.5552  0.6354
 7596TIP3   OH244202   2.872   3.020   5.338 -0.7618  0.1476 -0.5153
 7596TIP3    H144203   2.938   3.000   5.272  0.5424  1.9130  0.1773
 7596TIP3    H244204   2.899   2.970   5.415 -0.1016  1.0101 -0.1757
 7597TIP3   OH244205   2.940   5.418   2.320  0.2071  0.1265 -0.1372
 7597TIP3    H144206   2.863   5.457   2.363 -0.5164 -0.3772 -0.9254
 7597TIP3    H244207   2.917   5.419   2.227  1.8179  1.3775 -0.5552
 7598TIP3   OH244208   1.128   0.418  16.800 -0.3210  0.0034  0.4183
 7598TIP3    H144209   1.051   0.470  16.823 -0.2153  1.4935 -2.1956
 7598TIP3    H244210   1.194   0.444  16.864 -1.2357  0.6338  1.1359
 7599TIP3   OH244211   2.610   2.577  16.703  0.0358  0.3429  0.1941
 7599TIP3    H144212   2.619   2.664  16.743 -0.6495  1.2143 -1.4888
 7599TIP3    H244213   2.700   2.548  16.690  0.2727  0.7453  0.8736
 7600TIP3   OH244214   1.515   2.689  15.586  0.6335  0.0369  0.1766
 7600TIP3    H144215   1.445   2.633  15.619 -1.0349  0.5171 -2.2675
 7600TIP3    H244216   1.593   2.633  15.587 -0.1225 -1.0389  1.4433
 7601TIP3   OH244217   0.145   4.228   2.129  0.3441  0.1786  0.3098
 7601TIP3    H144218   0.101   4.302   2.087 -0.2022 -1.4275 -2.1217
 7601TIP3    H244219   0.226   4.217   2.080  0.8949 -0.2299  1.2880
 7602TIP3   OH244220   4.106   2.926  16.578 -0.3096 -0.5327 -0.4573
 7602TIP3    H144221   4.169   2.941  16.648 -1.7321  0.2736  0.7324
 7602TIP3    H244222   4.095   3.012  16.536 -1.3585 -0.3838  0.0633
 7603TIP3   OH244223   1.581   2.317   2.918 -0.1188  0.2286  0.1666
 7603TIP3    H144224   1.493   2.314   2.954 -0.9298  2.3095 -1.4557
 7603TIP3    H244225   1.605   2.410   2.920  1.5588 -0.1524 -0.5047
 7604TIP3   OH244226   5.033   1.984   6.032 -0.6040 -0.2180 -0.4098
 7604TIP3    H144227   5.014   2.011   5.942  2.5252  2.3781 -0.4899
 7604TIP3    H244228   5.119   1.943   6.028  1.4235  3.2447  1.6125
 7605TIP3   OH244229   3.401   6.237   1.726 -0.5355  0.0249  0.2655
 7605TIP3    H144230   3.469   6.278   1.672  0.6476 -0.7618  1.1138
 7605TIP3    H244231   3.414   6.143   1.714 -2.7822 -0.1898 -1.1218
 7606TIP3   OH244232   0.917   1.493   2.460 -0.2133  0.3929  0.1702
 7606TIP3    H144233   0.838   1.454   2.423 -0.8451 -0.8203  2.5797
 7606TIP3    H244234   0.884   1.563   2.517  0.3848 -0.3352  1.4517
 7607TIP3   OH244235   1.866   5.271   4.442 -0.1141  0.1872  0.4764
 7607TIP3    H144236   1.871   5.302   4.351  0.1368  2.8351  1.3142
 7607TIP3    H244237   1.935   5.319   4.488  0.0274 -1.3919  2.0328
 7608TIP3   OH244238   5.498   3.365   4.809  0.1727  0.3029 -0.2189
 7608TIP3    H144239   5.556   3.330   4.876  1.3099  1.3315 -0.6287
 7608TIP3    H244240   5.531   3.329   4.727  1.0321  1.8559 -0.5888
 7609TIP3   OH244241   3.255   6.063   2.689 -0.1686 -0.1919  0.2528
 7609TIP3    H144242   3.269   6.014   2.608 -2.3320 -0.1243 -0.2240
 7609TIP3    H244243   3.310   6.018   2.754 -0.5395 -1.9957 -0.6165
 7610TIP3   OH244244   0.465   0.092   4.509 -0.0345 -0.3510 -0.1034
 7610TIP3    H144245   0.456   0.075   4.602  1.4679 -2.3975 -0.2712
 7610TIP3    H244246   0.389   0.049   4.469 -0.1355 -0.3442  0.0806
 7611TIP3   OH244247   1.966   3.723   5.766 -0.4733  0.0200  0.9445
 7611TIP3    H144248   2.009   3.715   5.851 -0.6669  3.1174  1.4348
 7611TIP3    H244249   1.873   3.718   5.785 -0.4977 -0.2095  0.7737
 7612TIP3   OH244250   0.621   1.425  13.092  0.1739  0.6021  0.0263
 7612TIP3    H144251   0.530   1.402  13.075  0.4707  0.3873 -1.3805
 7612TIP3    H244252   0.649   1.364  13.160 -0.8472  0.9863  0.8235
 7613TIP3   OH244253   0.641   2.063  11.965  0.0049  0.2258  0.0502
 7613TIP3    H144254   0.620   2.005  11.891 -3.0524  2.2623 -0.8643
 7613TIP3    H244255   0.682   2.139  11.924  0.5355  0.3477  0.7927
 7614TIP3   OH244256   6.109   4.733   2.626  0.3813  0.5923  0.1086
 7614TIP3    H144257   6.138   4.675   2.555  1.3209  0.5851  0.4851
 7614TIP3    H244258   6.172   4.804   2.626 -1.9069  2.8429 -1.7488
 7615TIP3   OH244259   6.433   3.073  14.494  0.2273  0.3498 -0.3586
 7615TIP3    H144260   6.462   3.042  14.580  3.4665  0.3688 -1.3316
 7615TIP3    H244261   6.428   2.994  14.440 -0.5751  0.4845 -0.4943
 7616TIP3   OH244262   5.427   4.020  11.383 -0.9366  0.2988  0.1651
 7616TIP3    H144263   5.469   3.939  11.352 -1.0888 -0.5414  2.0091
 7616TIP3    H244264   5.491   4.060  11.441 -0.8683  1.5534 -0.7214
 7617TIP3   OH244265   6.295   2.855   6.294  0.7999  0.3733  0.2596
 7617TIP3    H144266   6.356   2.782   6.301 -0.9491 -1.0302  2.9545
 7617TIP3    H244267   6.250   2.841   6.211  0.6681 -1.5480  0.6099
 7618TIP3   OH244268   0.560   6.491  16.185 -0.5646  0.1952  0.0704
 7618TIP3    H144269   0.622   6.551  16.227  0.1100 -0.3727 -0.0936
 7618TIP3    H244270   0.615   6.423  16.146 -1.3439 -1.2241  1.3089
 7619TIP3   OH244271   0.699   1.910  11.290 -0.4768 -0.2887 -0.2186
 7619TIP3    H144272   0.734   1.974  11.228 -0.6095 -1.2060 -1.2599
 7619TIP3    H244273   0.629   1.866  11.243 -1.0783 -0.5071  0.8452
 7620TIP3   OH244274   3.445   4.764  12.370  0.1339 -0.2247  0.7257
 7620TIP3    H144275   3.512   4.737  12.433  0.0743  0.3787  1.0584
 7620TIP3    H244276   3.394   4.830  12.417 -0.2913 -0.2111  0.2489
 7621TIP3   OH244277   6.049   1.084  15.041  0.1555  0.1367  0.0373
 7621TIP3    H144278   6.002   1.055  14.962  0.2326 -0.9093  0.3597
 7621TIP3    H244279   5.981   1.125  15.095 -0.3522 -1.0298  0.3327
 7622TIP3   OH244280   2.661   3.660   2.145 -0.0453  0.1099  0.3094
 7622TIP3    H144281   2.570   3.676   2.170 -0.2390 -0.5647  0.0891
 7622TIP3    H244282   2.713   3.706   2.210 -0.5425  1.9794 -0.5673
 7623TIP3   OH244283   4.002   4.394  15.953  0.3270  0.4808 -0.5887
 7623TIP3    H144284   3.909   4.403  15.932 -0.6719 -5.0938  0.0997
 7623TIP3    H244285   4.004   4.354  16.040  3.4769  0.9372 -0.3203
 7624TIP3   OH244286   5.883   6.710   2.478 -0.7013  0.3189 -0.3159
 7624TIP3    H144287   5.888   6.643   2.409  0.9153 -0.3314  0.3694
 7624TIP3    H244288   5.808   6.764   2.453 -0.8750 -0.5831 -1.9499
 7625TIP3   OH244289   0.664   5.534   2.277  0.2256  0.0073 -0.5576
 7625TIP3    H144290   0.736   5.498   2.224  0.0914 -0.3100 -0.5248
 7625TIP3    H244291   0.610   5.458   2.298  1.0076 -0.1050  1.2026
 7626TIP3   OH244292   4.331   3.034  14.486 -0.9867  0.3960  0.7460
 7626TIP3    H144293   4.421   3.054  14.511 -0.3468 -1.2653 -0.0512
 7626TIP3    H244294   4.325   3.059  14.394 -1.7117  1.5536  1.0869
 7627TIP3   OH244295   0.964   2.174  11.249 -0.6041  0.1230  0.2502
 7627TIP3    H144296   0.895   2.167  11.183  1.4524  0.1171 -2.0795
 7627TIP3    H244297   1.029   2.109  11.223  0.6471  0.6457  1.8680
 7628TIP3   OH244298   5.554   0.891   4.401 -0.5231 -0.4156  0.0623
 7628TIP3    H144299   5.588   0.930   4.321  0.9845 -1.4946  0.1215
 7628TIP3    H244300   5.548   0.963   4.463 -2.3635  0.5660 -1.1735
 7629TIP3   OH244301   6.286   2.717  16.759 -0.0602  0.6387  0.1284
 7629TIP3    H144302   6.278   2.666  16.678  1.7952  1.0051 -0.3145
 7629TIP3    H244303   6.214   2.684  16.814 -0.8949 -0.1538 -1.3527
 7630TIP3   OH244304   1.326   1.543   3.210  0.7007 -0.1063 -0.0955
 7630TIP3    H144305   1.238   1.506   3.198  0.3073  0.5194  0.7803
 7630TIP3    H244306   1.348   1.580   3.125 -0.0890  0.1493 -0.1991
 7631TIP3   OH244307   2.979   2.111  13.955 -0.2969 -0.0951 -0.1526
 7631TIP3    H144308   3.037   2.187  13.948 -0.9544  0.5434  1.0063
 7631TIP3    H244309   2.996   2.061  13.875  1.0168  0.6478 -0.3792
 7632TIP3   OH244310   4.992   3.253   3.301  0.3945  0.1204  0.4710
 7632TIP3    H144311   5.018   3.164   3.324 -0.1967 -0.1427  0.1384
 7632TIP3    H244312   4.911   3.243   3.251  1.9364  0.6021 -2.3377
 7633TIP3   OH244313   1.866   0.509   1.606  0.9111 -0.4468 -0.1308
 7633TIP3    H144314   1.959   0.533   1.609  0.2713  2.5334 -0.4970
 7633TIP3    H244315   1.845   0.486   1.696  2.2600 -2.6593 -0.2958
 7634TIP3   OH244316   3.252   1.312  13.593  0.0460 -0.0020 -0.1283
 7634TIP3    H144317   3.274   1.305  13.686 -3.1204 -3.8315  0.6142
 7634TIP3    H244318   3.169   1.360  13.592 -0.5585 -1.0297 -0.8159
 7635TIP3   OH244319   3.886   2.507  13.617 -0.5923 -0.1399 -0.2009
 7635TIP3    H144320   3.826   2.449  13.664 -0.2063 -0.7413 -0.4314
 7635TIP3    H244321   3.915   2.570  13.683 -1.4770  0.1693 -0.0883
 7636TIP3   OH244322   2.606   5.704  16.772 -0.4479  0.3724 -0.3358
 7636TIP3    H144323   2.691   5.684  16.811 -0.6344 -0.6098 -0.3987
 7636TIP3    H244324   2.547   5.639  16.809 -1.1507  0.9629 -0.3942
 7637TIP3   OH244325   6.713   2.537  16.534 -0.2338 -0.7923  0.7009
 7637TIP3    H144326   6.669   2.490  16.605  1.2444  0.3495  2.4751
 7637TIP3    H244327   6.659   2.615  16.520 -0.7537 -1.2219  0.2347
 7638TIP3   OH244328   2.242   3.419   4.918 -0.0807 -0.3648  0.0467
 7638TIP3    H144329   2.150   3.447   4.921  0.3496  1.1023  1.3486
 7638TIP3    H244330   2.254   3.368   4.998 -0.3523 -2.7517 -1.3583
 7639TIP3   OH244331   3.119   5.489   4.901  0.4501 -0.4035  0.0404
 7639TIP3    H144332   3.157   5.501   4.988 -0.8879  1.8344  0.3888
 7639TIP3    H244333   3.110   5.577   4.866 -1.0591 -1.1029 -1.4781
 7640TIP3   OH244334   5.071   6.550  10.716 -0.0492 -0.3271  0.2109
 7640TIP3    H144335   5.062   6.511  10.629  2.5424 -1.6766  0.4352
 7640TIP3    H244336   5.084   6.476  10.775 -1.0580  0.6045  1.6746
 7641TIP3   OH244337   5.734   6.773  13.991  0.0843 -0.6989 -0.0423
 7641TIP3    H144338   5.728   6.805  14.081 -0.1966  1.9577 -0.9161
 7641TIP3    H244339   5.661   6.814  13.946  0.9645 -0.9330 -1.7741
 7642TIP3   OH244340   3.103   1.313  16.432  0.0046  0.2248  0.8425
 7642TIP3    H144341   3.041   1.341  16.499 -1.9400 -1.3605 -0.1749
 7642TIP3    H244342   3.129   1.224  16.458  0.5025  0.2207  0.3614
 7643TIP3   OH244343   1.567   5.521  15.646 -0.1488  0.7427  0.0831
 7643TIP3    H144344   1.631   5.494  15.711 -1.2363  0.1214  0.9377
 7643TIP3    H244345   1.489   5.545  15.697 -0.1702  2.8364 -0.8223
 7644TIP3   OH244346   1.528   3.303   0.135 -0.1931  0.0843  0.3877
 7644TIP3    H144347   1.487   3.302   0.221  0.7179  0.5467  0.8304
 7644TIP3    H244348   1.607   3.355   0.145  0.5040 -0.7574 -0.4596
 7645TIP3   OH244349   4.772   3.199   2.355 -0.6461  0.8007 -0.6077
 7645TIP3    H144350   4.797   3.107   2.341  0.7670  0.8212  1.3871
 7645TIP3    H244351   4.799   3.243   2.275  0.4590 -0.2170 -0.8286
 7646TIP3   OH244352   4.424   3.621   4.212 -0.1419  0.0464  0.1028
 7646TIP3    H144353   4.466   3.648   4.131 -2.0080 -0.6570 -1.1841
 7646TIP3    H244354   4.493   3.578   4.262  0.9466  0.0361 -1.3511
 7647TIP3   OH244355   3.044   0.674   4.213 -0.4170 -0.9397 -0.7081
 7647TIP3    H144356   3.022   0.711   4.298 -1.2124  1.9504 -2.0539
 7647TIP3    H244357   3.132   0.638   4.224 -0.4832 -0.5924  1.2940
 7648TIP3   OH244358   4.923   4.107  14.882  0.2894  0.0294 -0.9635
 7648TIP3    H144359   4.835   4.086  14.914  0.6724  0.8111  0.6672
 7648TIP3    H244360   4.973   4.128  14.960  1.5334  1.0967 -2.0042
 7649TIP3   OH244361   2.473   3.079  11.420  0.0035 -0.0589  0.4460
 7649TIP3    H144362   2.535   3.140  11.461 -1.4510  1.2852  0.7609
 7649TIP3    H244363   2.523   2.998  11.410  1.1618  0.2608  2.7052
 7650TIP3   OH244364   4.974   2.969   1.413 -0.0288  0.1050  0.7293
 7650TIP3    H144365   5.015   3.037   1.360 -0.3252  0.8003  1.3790
 7650TIP3    H244366   5.040   2.948   1.480  1.0179 -1.9356 -0.8197
 7651TIP3   OH244367   1.160   4.446  13.986 -0.1922  0.1370  0.4874
 7651TIP3    H144368   1.158   4.425  13.893 -0.6328  1.6453  0.1346
 7651TIP3    H244369   1.200   4.369  14.027  2.4977  0.5025 -1.2261
 7652TIP3   OH244370   2.196   4.351   1.147 -0.1737 -0.6830  0.3857
 7652TIP3    H144371   2.118   4.340   1.201 -1.0295  0.4630 -0.5514
 7652TIP3    H244372   2.167   4.332   1.058  0.6732 -0.4692  0.0498
 7653TIP3   OH244373   2.912   2.127  14.232  0.3700  0.6735 -0.4280
 7653TIP3    H144374   2.882   2.218  14.238 -0.9370  0.2389  0.0663
 7653TIP3    H244375   2.934   2.115  14.140  0.4838  1.4599 -0.5151
 7654TIP3   OH244376   2.601   1.797   2.802  0.5896 -0.4518  0.9041
 7654TIP3    H144377   2.643   1.874   2.764 -0.7116 -0.8511 -1.5678
 7654TIP3    H244378   2.661   1.725   2.784  0.7539 -0.3745  1.1435
 7655TIP3   OH244379   6.471   5.871  16.658 -0.2275 -0.4169 -0.0620
 7655TIP3    H144380   6.540   5.937  16.657 -0.1711 -0.4717 -1.8442
 7655TIP3    H244381   6.390   5.922  16.673  0.1885 -0.4210  2.6967
 7656TIP3   OH244382   2.826   5.736  11.077 -0.3894 -0.2588 -0.2644
 7656TIP3    H144383   2.736   5.735  11.108 -0.4096  1.2497 -0.2359
 7656TIP3    H244384   2.869   5.665  11.126 -1.8669 -1.9898 -1.3528
 7657TIP3   OH244385   5.672   3.494   2.019  0.1806 -0.3316 -0.0206
 7657TIP3    H144386   5.631   3.463   1.939 -0.8196 -0.0430  0.3711
 7657TIP3    H244387   5.641   3.583   2.030  0.9030 -0.1084  0.3019
 7658TIP3   OH244388   1.412   3.336  15.959  0.4167  0.0699  0.7943
 7658TIP3    H144389   1.502   3.315  15.934 -0.1969 -1.4301 -0.2837
 7658TIP3    H244390   1.421   3.386  16.040  2.1947 -0.3888  0.9245
 7659TIP3   OH244391   1.064   4.957  13.801  0.1261 -0.1081 -0.2537
 7659TIP3    H144392   1.099   4.897  13.867  0.6169 -1.5120 -1.7263
 7659TIP3    H244393   1.023   4.900  13.736 -0.2561  1.2232 -1.2235
 7660TIP3   OH244394   4.116   3.624  11.111  0.2791 -0.2963 -0.2041
 7660TIP3    H144395   4.098   3.718  11.119  0.4068 -0.2822 -0.0860
 7660TIP3    H244396   4.212   3.617  11.115  0.2618 -0.4484 -0.0374
 7661TIP3   OH244397   4.806   6.088   1.151  0.1240 -0.1063  0.1696
 7661TIP3    H144398   4.866   6.119   1.218  0.2880 -0.2194  0.0767
 7661TIP3    H244399   4.757   6.017   1.192 -0.1273  0.1550  0.3261
 7662TIP3   OH244400   2.874   0.884  11.313  0.2981 -0.2176  0.5143
 7662TIP3    H144401   2.906   0.955  11.370  0.2598  0.9677 -0.8760
 7662TIP3    H244402   2.941   0.876  11.245 -0.3375 -0.6155 -0.0733
 7663TIP3   OH244403   2.575   6.736   1.225  0.0986 -0.0661 -0.2738
 7663TIP3    H144404   2.573   6.775   1.312  0.2608  0.3132 -0.4351
 7663TIP3    H244405   2.639   6.666   1.231 -0.0222 -0.1554 -0.0402
 7664TIP3   OH244406   6.513   2.389  16.678  0.0577 -0.6236  0.1200
 7664TIP3    H144407   6.460   2.365  16.754 -0.5533  0.4813  0.0644
 7664TIP3    H244408   6.450   2.402  16.608  0.3452  1.0309  0.1339
 7665TIP3   OH244409   0.399   6.070   0.890 -0.2562  0.0313  0.4746
 7665TIP3    H144410   0.397   5.976   0.907  0.9497 -0.1755 -0.3533
 7665TIP3    H244411   0.395   6.078   0.795  0.2386  0.7812  0.5029
 7666TIP3   OH244412   3.446   0.903  16.024  0.1510  0.5986  0.1646
 7666TIP3    H144413   3.498   0.845  16.078  1.4508 -0.5194 -2.1417
 7666TIP3    H244414   3.477   0.991  16.045  2.0764  0.0435 -0.1777
 7667TIP3   OH244415   4.717   1.031   0.533  0.2550 -0.0511 -0.1357
 7667TIP3    H144416   4.665   0.952   0.519 -0.2249 -0.1302  1.7275
 7667TIP3    H244417   4.653   1.096   0.563  0.8891  0.5306 -0.0137
 7668TIP3   OH244418   4.613   0.469   5.274 -0.6111  0.0676 -0.3601
 7668TIP3    H144419   4.569   0.384   5.275  0.7893 -0.6776  0.3309
 7668TIP3    H244420   4.612   0.498   5.365  1.2243 -0.4647 -0.1368
 7669TIP3   OH244421   2.616   5.178   1.595 -0.6520 -0.3654  0.1022
 7669TIP3    H144422   2.590   5.269   1.606 -2.0559 -0.6340 -0.7539
 7669TIP3    H244423   2.700   5.182   1.549  0.2607  0.4960  1.7296
 7670TIP3   OH244424   0.357   1.357  15.123 -0.6083 -0.5956 -0.0876
 7670TIP3    H144425   0.312   1.348  15.039 -0.8083  1.4941 -0.2670
 7670TIP3    H244426   0.450   1.367  15.099 -0.7603  0.8541 -0.1640
 7671TIP3   OH244427   5.453   1.627  13.812  0.1599  0.4883 -0.0258
 7671TIP3    H144428   5.383   1.599  13.871  0.4184  0.4579  0.2709
 7671TIP3    H244429   5.466   1.720  13.833  0.3082  0.4566  0.0274
 7672TIP3   OH244430   3.031   5.977  10.551  0.3575  0.3346  0.3492
 7672TIP3    H144431   3.094   5.957  10.620  0.0619 -0.0928  0.4957
 7672TIP3    H244432   3.084   6.017  10.482  1.0308 -1.2738 -0.1036
 7673TIP3   OH244433   0.098   4.422  12.171  0.2397 -0.0092  0.5081
 7673TIP3    H144434   0.053   4.338  12.182  0.9947 -0.4655  0.2671
 7673TIP3    H244435   0.182   4.398  12.131  0.7469  0.7959  1.0653
 7674TIP3   OH244436   1.583   0.527   6.531  0.4584  0.4506  0.3927
 7674TIP3    H144437   1.494   0.519   6.566  0.3579  0.2172  0.0803
 7674TIP3    H244438   1.635   0.468   6.586  0.7169  1.7089  1.5686
 7675TIP3   OH244439   6.535   1.493   4.922 -0.0264 -0.1961 -0.3406
 7675TIP3    H144440   6.611   1.549   4.907 -0.2242 -0.2963 -1.9279
 7675TIP3    H244441   6.460   1.550   4.906 -0.2482 -0.5972 -0.7468
 7676TIP3   OH244442   1.180   2.626   2.979 -0.4107  0.2804 -0.3234
 7676TIP3    H144443   1.176   2.693   3.046  0.4423 -1.1477  1.2355
 7676TIP3    H244444   1.258   2.647   2.928 -0.4403  0.7422 -0.1813
 7677TIP3   OH244445   2.873   0.361   3.185  0.2311 -0.3052 -0.5911
 7677TIP3    H144446   2.951   0.415   3.201  0.5266 -0.2722 -1.9961
 7677TIP3    H244447   2.818   0.375   3.262  1.6518 -0.4069  0.4800
 7678TIP3   OH244448   1.274   5.399  12.755  0.0725 -0.0432  0.0156
 7678TIP3    H144449   1.191   5.411  12.709  0.1330  0.2542 -0.0195
 7678TIP3    H244450   1.248   5.366  12.842 -0.1402  0.9046  0.3205
 7679TIP3   OH244451   6.462   3.898   4.755  0.4186  0.2767  0.3984
 7679TIP3    H144452   6.455   3.982   4.801 -0.6189  0.3576  0.1277
 7679TIP3    H244453   6.456   3.832   4.823  1.5121  0.4123  0.6440
 7680TIP3   OH244454   4.419   5.899  14.994 -0.0102  0.6058 -1.0598
 7680TIP3    H144455   4.345   5.844  15.019  0.4585  0.5850  0.3625
 7680TIP3    H244456   4.393   5.938  14.910 -0.7770 -0.9449 -1.5720
 7681TIP3   OH244457   5.724   5.836   5.988 -0.4629 -0.2269 -0.3066
 7681TIP3    H144458   5.752   5.843   5.896  0.0681 -1.8107 -0.2934
 7681TIP3    H244459   5.639   5.881   5.990 -0.8521 -0.8256 -1.7526
 7682TIP3   OH244460   0.954   4.343   0.864 -0.3322  0.1459  0.0312
 7682TIP3    H144461   0.923   4.392   0.789 -2.4142  0.6037  1.1094
 7682TIP3    H244462   0.966   4.254   0.831  0.0743  0.6088 -1.1186
 7683TIP3   OH244463   1.454   6.263   2.558  1.0752 -0.3732 -0.4902
 7683TIP3    H144464   1.506   6.196   2.514 -1.0845 -2.0041 -0.7301
 7683TIP3    H244465   1.485   6.346   2.521  2.5948 -1.3460 -1.5027
 7684TIP3   OH244466   3.453   2.899  14.931 -0.3017  0.1488 -0.2116
 7684TIP3    H144467   3.388   2.882  15.000  0.9716  2.7633  1.8012
 7684TIP3    H244468   3.411   2.867  14.851 -4.1746  1.7483  0.9144
 7685TIP3   OH244469   2.323   3.927   5.353  0.5584  0.0261  0.5752
 7685TIP3    H144470   2.326   3.990   5.425 -1.6832  1.7244 -0.6896
 7685TIP3    H244471   2.336   3.980   5.274  0.0729 -1.3381 -0.4519
 7686TIP3   OH244472   2.708   5.076  13.524 -0.1064 -0.3174 -0.0206
 7686TIP3    H144473   2.722   5.148  13.586 -0.1442  0.5033 -0.9463
 7686TIP3    H244474   2.633   5.029  13.558  0.1380 -0.1341  0.7911
 7687TIP3   OH244475   1.373   3.478  14.692  0.1845 -0.3031 -0.1264
 7687TIP3    H144476   1.430   3.517  14.758  1.6063  0.0264 -1.5033
 7687TIP3    H244477   1.284   3.494  14.726  0.8512 -1.5649  2.4592
 7688TIP3   OH244478   0.419   2.068  15.761  0.5048  0.0769 -0.4402
 7688TIP3    H144479   0.359   2.059  15.688  1.1381 -0.2872 -0.9212
 7688TIP3    H244480   0.438   1.978  15.788  0.1930  0.2063  0.2533
 7689TIP3   OH244481   4.066   0.485  15.428 -0.0240  0.5091 -0.1693
 7689TIP3    H144482   4.139   0.482  15.490  0.0755  1.6105 -0.2174
 7689TIP3    H244483   3.993   0.520  15.479 -0.1442  0.7157 -0.4806
 7690TIP3   OH244484   4.444   2.456  11.768 -0.0441  0.8472 -0.3622
 7690TIP3    H144485   4.423   2.370  11.732 -0.1546  0.8083 -0.2100
 7690TIP3    H244486   4.539   2.456  11.779 -0.1129  0.4642  0.3243
 7691TIP3   OH244487   5.252   2.569  11.837  0.3421 -0.9405  0.0957
 7691TIP3    H144488   5.275   2.477  11.822  1.8713 -0.7432  0.9799
 7691TIP3    H244489   5.329   2.618  11.808 -0.8939  0.1826 -1.4409
 7692TIP3   OH244490   2.337   1.952   5.212 -0.0738  0.6456 -0.1317
 7692TIP3    H144491   2.251   1.991   5.228 -0.6426 -0.4744 -0.3429
 7692TIP3    H244492   2.326   1.859   5.234  0.6866  0.1972 -1.4578
 7693TIP3   OH244493   1.714   0.939   3.492  0.2550 -0.1108 -0.5788
 7693TIP3    H144494   1.619   0.933   3.479  0.4377 -0.9415 -1.6310
 7693TIP3    H244495   1.742   1.006   3.429  0.1139  1.7861  1.2613
 7694TIP3   OH244496   3.574   0.637  16.121  0.2079  0.3494  0.0548
 7694TIP3    H144497   3.655   0.617  16.075  0.6278 -0.1434  0.9806
 7694TIP3    H244498   3.571   0.575  16.194 -0.2547  1.3305  0.8993
 7695TIP3   OH244499   0.467   0.971   2.495  0.0389  0.6377 -0.0402
 7695TIP3    H144500   0.500   1.061   2.501  0.4364  0.4313  1.4832
 7695TIP3    H244501   0.536   0.924   2.448  0.3377  0.9132  0.1132
 7696TIP3   OH244502   2.226   6.342   6.596 -0.3599 -0.3886  0.3145
 7696TIP3    H144503   2.198   6.346   6.687 -1.5918  0.1039 -0.0532
 7696TIP3    H244504   2.153   6.382   6.547 -0.0151 -1.2267 -0.9368
 7697TIP3   OH244505   5.246   1.123   2.695  0.0741 -0.3674 -0.5048
 7697TIP3    H144506   5.294   1.189   2.645 -2.1135  0.7023 -1.3547
 7697TIP3    H244507   5.249   1.044   2.640  2.1900 -0.8466  0.2354
 7698TIP3   OH244508   2.913   2.864  15.957  0.0828  0.2230  0.5509
 7698TIP3    H144509   2.949   2.799  15.896 -0.8026  0.2748 -0.0482
 7698TIP3    H244510   2.849   2.912  15.905 -2.4713 -1.2984  2.1144
 7699TIP3   OH244511   2.201   5.609  13.989 -0.9543 -0.6134  0.4056
 7699TIP3    H144512   2.228   5.623  14.079 -3.8138  1.8766  1.0313
 7699TIP3    H244513   2.123   5.553  13.996 -2.1563  0.8948 -0.2816
 7700TIP3   OH244514   0.117   3.286  15.659  0.4776  0.4093  0.1696
 7700TIP3    H144515   0.083   3.197  15.662  2.7053 -0.4737  1.3848
 7700TIP3    H244516   0.130   3.304  15.566 -0.4827 -0.3045 -0.1196
 7701TIP3   OH244517   4.035   4.686  12.336 -0.2269  0.3582  0.4413
 7701TIP3    H144518   3.997   4.764  12.376 -2.3105 -0.2841 -0.1306
 7701TIP3    H244519   4.001   4.613  12.388 -0.9423 -0.3312 -0.9161
 7702TIP3   OH244520   3.098   4.541  11.588  0.3595 -0.2413  0.1748
 7702TIP3    H144521   3.159   4.557  11.659 -0.8762 -0.8884  1.4313
 7702TIP3    H244522   3.123   4.456  11.553  0.5643 -0.2208  0.2741
 7703TIP3   OH244523   5.852   2.843   3.530 -0.2516 -0.0228  0.5762
 7703TIP3    H144524   5.926   2.903   3.520 -0.4366 -0.1811 -3.1131
 7703TIP3    H244525   5.890   2.756   3.522 -0.6348 -0.1523  0.0998
 7704TIP3   OH244526   6.325   0.471  11.027 -0.3593 -0.1876  0.1941
 7704TIP3    H144527   6.266   0.547  11.026 -0.0783  0.0302  0.1709
 7704TIP3    H244528   6.291   0.413  10.959 -0.9235 -0.3518  0.6028
 7705TIP3   OH244529   0.401   5.572  15.199 -0.0746 -0.8818 -0.5692
 7705TIP3    H144530   0.494   5.561  15.178 -0.0963 -0.8823 -0.6652
 7705TIP3    H244531   0.375   5.650  15.149  0.0443 -0.4777 -0.0167
 7706TIP3   OH244532   1.050   1.247  12.858 -0.0598  0.5498  0.3052
 7706TIP3    H144533   1.090   1.161  12.848  1.0047  1.2637 -2.1501
 7706TIP3    H244534   1.122   1.309  12.847 -1.1257  1.7990  0.0102
 7707TIP3   OH244535   4.632   1.440  14.639  0.0619 -0.2203  0.5109
 7707TIP3    H144536   4.681   1.522  14.630 -0.1675  0.0447  1.5861
 7707TIP3    H244537   4.540   1.466  14.636 -0.0150 -0.3782  1.3037
 7708TIP3   OH244538   1.449   1.945  12.162  0.0387  0.5330  0.0840
 7708TIP3    H144539   1.369   1.980  12.201 -0.8265 -0.9219 -0.2699
 7708TIP3    H244540   1.421   1.863  12.121  1.6951  0.0520 -0.1646
 7709TIP3   OH244541   1.988   3.430  13.935  0.1556  0.3713 -0.2251
 7709TIP3    H144542   1.943   3.379  14.002  0.5289 -0.9497 -0.9485
 7709TIP3    H244543   1.966   3.521  13.955 -0.1124 -0.0222  1.4068
 7710TIP3   OH244544   3.857   0.301  13.642  0.4174 -0.2743  0.0692
 7710TIP3    H144545   3.840   0.290  13.549 -1.1343  1.5083  0.0899
 7710TIP3    H244546   3.908   0.382  13.648 -0.7504  0.4333  0.8345
 7711TIP3   OH244547   5.119   0.392   5.415  0.3478  0.2808 -0.4840
 7711TIP3    H144548   5.163   0.431   5.490 -0.1357 -1.4110  0.7335
 7711TIP3    H244549   5.175   0.320   5.389  0.3271  0.6283 -1.5404
 7712TIP3   OH244550   2.364   0.525  15.031 -0.2496 -0.1247 -0.0181
 7712TIP3    H144551   2.411   0.443  15.012  1.9260  0.7238  1.2625
 7712TIP3    H244552   2.430   0.580  15.073 -2.1459  1.6365  0.7998
 7713TIP3   OH244553   1.852   2.351  14.861 -0.3972 -0.8653  0.5336
 7713TIP3    H144554   1.872   2.260  14.885  0.9986  0.0151  3.1739
 7713TIP3    H244555   1.886   2.402  14.934 -2.5409  1.7041 -0.1170
 7714TIP3   OH244556   4.524   2.221  14.562 -0.0631  0.3595  0.1695
 7714TIP3    H144557   4.584   2.170  14.508 -0.0450  0.7290 -0.1659
 7714TIP3    H244558   4.541   2.312  14.537 -2.1711  0.3912 -1.4315
 7715TIP3   OH244559   0.210   5.034   1.426  0.3685 -0.6851 -0.4538
 7715TIP3    H144560   0.266   5.077   1.490  0.8190 -0.7261 -0.8081
 7715TIP3    H244561   0.151   5.103   1.395  0.7190 -0.4513 -0.6149
 7716TIP3   OH244562   1.529   4.540   2.980 -1.1236  0.6449 -0.3740
 7716TIP3    H144563   1.562   4.545   2.891 -4.1220  1.1013 -1.5744
 7716TIP3    H244564   1.438   4.510   2.971 -0.9070 -1.3858  2.7046
 7717TIP3   OH244565   0.440   0.611  12.679 -0.1013  0.4366 -0.3399
 7717TIP3    H144566   0.531   0.583  12.684 -0.5639 -1.0352  0.3414
 7717TIP3    H244567   0.399   0.575  12.757 -1.4737  0.2977 -1.0898
 7718TIP3   OH244568   4.268   0.768  15.509  0.2369 -0.0802 -0.5438
 7718TIP3    H144569   4.352   0.727  15.528  0.3407 -0.7518 -2.2724
 7718TIP3    H244570   4.248   0.819  15.588  2.2227  0.0565 -0.0666
 7719TIP3   OH244571   6.329   1.249  11.648  0.3986  0.2577  0.2078
 7719TIP3    H144572   6.421   1.258  11.673  0.1091  0.1575  1.3681
 7719TIP3    H244573   6.332   1.228  11.555  1.7539 -3.0575  0.8428
 7720TIP3   OH244574   3.948   1.962   6.358  0.1607  0.1242 -0.2893
 7720TIP3    H144575   3.999   1.992   6.283  0.0797 -1.2941 -0.9514
 7720TIP3    H244576   3.903   1.883   6.327 -1.7886  0.8485  0.5414
 7721TIP3   OH244577   0.439   1.531   1.359 -0.1110  0.0952 -0.3298
 7721TIP3    H144578   0.353   1.533   1.317 -1.1123 -2.1804  1.4060
 7721TIP3    H244579   0.502   1.532   1.286 -1.7159 -2.2479 -1.8749
 7722TIP3   OH244580   3.644   0.701   5.629 -0.2963  0.0488 -0.0872
 7722TIP3    H144581   3.560   0.655   5.628 -0.6924  0.7786 -0.2338
 7722TIP3    H244582   3.706   0.635   5.661 -1.0078 -0.3470  0.5007
 7723TIP3   OH244583   1.999   5.743   4.284  0.2511  0.5586 -0.2220
 7723TIP3    H144584   1.932   5.703   4.228  0.1104 -0.4722  0.6481
 7723TIP3    H244585   1.952   5.810   4.333 -0.0124  0.2557 -0.0578
 7724TIP3   OH244586   0.352   0.175  15.658  0.3453  0.6851 -0.6485
 7724TIP3    H144587   0.338   0.158  15.751  0.8793 -2.4175 -1.0341
 7724TIP3    H244588   0.436   0.221  15.655  0.4882  0.5165  0.3696
 7725TIP3   OH244589   1.823   6.217  10.622  0.2734  0.2667  0.4788
 7725TIP3    H144590   1.870   6.287  10.667 -0.3855  0.9494  0.1171
 7725TIP3    H244591   1.878   6.140  10.635  0.3693  0.5512  2.0129
 7726TIP3   OH244592   6.358   1.606  13.206 -0.3018 -0.0312 -0.3050
 7726TIP3    H144593   6.340   1.525  13.158 -2.1235 -0.2603  0.6803
 7726TIP3    H244594   6.320   1.675  13.152 -0.9549 -0.1235  0.0216
 7727TIP3   OH244595   0.659   4.412   3.298 -0.0891 -0.3036 -0.5127
 7727TIP3    H144596   0.674   4.455   3.214 -1.4991 -0.1081 -0.6856
 7727TIP3    H244597   0.607   4.475   3.348 -0.6953 -1.1001 -0.1274
 7728TIP3   OH244598   6.172   5.590   2.877 -0.0085  0.1988  0.2897
 7728TIP3    H144599   6.251   5.600   2.824 -0.4586 -0.0085 -0.4336
 7728TIP3    H244600   6.188   5.643   2.954  1.7635 -1.5476  1.2167
 7729TIP3   OH244601   1.481   2.773  16.847  0.1353 -0.0925  0.6184
 7729TIP3    H144602   1.447   2.809  16.766 -1.8052 -1.8328  0.5910
 7729TIP3    H244603   1.422   2.806  16.915 -0.9964 -2.1716  0.7215
 7730TIP3   OH244604   4.210   4.463  14.230 -0.2811  0.2091 -0.5830
 7730TIP3    H144605   4.282   4.424  14.180 -0.4355 -1.0309  0.1121
 7730TIP3    H244606   4.253   4.523  14.291  0.1310 -0.1769 -0.4877
 7731TIP3   OH244607   2.039   0.594   0.983  0.0990  0.3678 -0.5611
 7731TIP3    H144608   2.012   0.502   0.979 -1.2540  0.7784 -1.4866
 7731TIP3    H244609   2.017   0.622   1.072 -1.0230  0.2249 -0.7794
 7732TIP3   OH244610   2.325   1.337   1.422  0.5152 -0.5135 -0.5770
 7732TIP3    H144611   2.371   1.261   1.386  1.1373 -1.5487  2.1321
 7732TIP3    H244612   2.268   1.300   1.489 -0.8419  1.2400 -0.6917
 7733TIP3   OH244613   3.354   3.521  12.488 -0.4375 -0.0990 -0.4420
 7733TIP3    H144614   3.293   3.453  12.460  1.2969 -1.6837 -0.5385
 7733TIP3    H244615   3.321   3.601  12.448 -3.0074 -0.6758  0.3476
 7734TIP3   OH244616   0.274   5.907  16.056 -0.1567 -0.0180  0.2150
 7734TIP3    H144617   0.332   5.848  16.103  0.6653  0.7522  0.1923
 7734TIP3    H244618   0.188   5.865  16.061  0.4051 -1.2120  0.1771
 7735TIP3   OH244619   2.105   2.822  16.771  0.4133  0.1456  0.0085
 7735TIP3    H144620   2.091   2.737  16.814  3.6264 -1.4913 -1.7303
 7735TIP3    H244621   2.068   2.811  16.684 -0.0167  0.8882  0.0970
 7736TIP3   OH244622   2.731   4.536   1.272 -0.1133 -0.0662 -0.5391
 7736TIP3    H144623   2.707   4.585   1.351 -0.8017 -2.4712  0.8402
 7736TIP3    H244624   2.700   4.591   1.200 -1.9424  0.9631  0.9331
 7737TIP3   OH244625   5.747   3.994  11.182 -0.6152  0.0732  0.1930
 7737TIP3    H144626   5.696   4.018  11.105 -1.1318  0.6832  0.7088
 7737TIP3    H244627   5.837   4.018  11.159 -0.7336  0.0751 -0.2853
 7738TIP3   OH244628   5.131   3.298   0.909 -0.6931  0.2642 -0.5485
 7738TIP3    H144629   5.218   3.258   0.904  0.2585  2.1499  0.2030
 7738TIP3    H244630   5.079   3.250   0.844  0.3368 -2.2064  0.3296
 7739TIP3   OH244631   3.529   5.361   3.602 -0.1489  0.8616  0.2249
 7739TIP3    H144632   3.548   5.399   3.688  1.3475 -0.1053  0.3665
 7739TIP3    H244633   3.444   5.317   3.614 -0.0652  0.9241  1.1396
 7740TIP3   OH244634   1.949   6.333  11.563 -0.2217  0.3170  0.5553
 7740TIP3    H144635   1.913   6.269  11.502  0.4598 -0.4640  0.9461
 7740TIP3    H244636   1.912   6.417  11.535  1.1466  0.2195 -1.8245
 7741TIP3   OH244637   0.977   3.834  16.461 -0.4935 -0.2966  0.3516
 7741TIP3    H144638   0.972   3.745  16.495  0.0435 -0.2596  0.5247
 7741TIP3    H244639   1.024   3.883  16.527 -0.7258  0.1042  0.2229
 7742TIP3   OH244640   0.892   3.013  15.557  0.2351  0.4873 -0.5253
 7742TIP3    H144641   0.848   3.078  15.502 -1.7930 -0.7679 -0.4909
 7742TIP3    H244642   0.891   3.051  15.645  0.4182  1.0254 -0.7491
 7743TIP3   OH244643   1.396   5.912   3.705  0.5235 -0.0412  0.1305
 7743TIP3    H144644   1.418   5.996   3.665  1.1379  0.0479  0.6351
 7743TIP3    H244645   1.316   5.884   3.661  0.7890  0.3974 -0.6408
 7744TIP3   OH244646   4.978   1.842  15.258 -0.1427  0.2914  0.1377
 7744TIP3    H144647   4.949   1.810  15.173 -0.4620 -1.1320  0.7555
 7744TIP3    H244648   4.936   1.784  15.321 -0.0318  1.4106  1.2882
 7745TIP3   OH244649   3.744   4.710   1.642  0.1494  0.4257  0.2789
 7745TIP3    H144650   3.732   4.786   1.700  2.4130  1.7617 -0.8819
 7745TIP3    H244651   3.838   4.693   1.644 -0.2736 -2.3058  0.3679
 7746TIP3   OH244652   1.103   1.423   3.115 -0.3775  0.3735 -0.4724
 7746TIP3    H144653   1.110   1.413   3.020 -0.6256  1.1408 -0.5768
 7746TIP3    H244654   1.009   1.424   3.132 -0.3303  0.0200 -0.1925
 7747TIP3   OH244655   4.077   2.111  16.252  0.0481 -0.4239 -0.6142
 7747TIP3    H144656   4.048   2.134  16.341 -0.5224 -1.3135 -0.5658
 7747TIP3    H244657   3.996   2.092  16.204  0.4491 -1.5869 -0.8606
 7748TIP3   OH244658   2.330   2.013  12.943  0.0636  0.2577  0.1255
 7748TIP3    H144659   2.305   1.960  13.019  1.0070  0.6941  0.7566
 7748TIP3    H244660   2.366   2.093  12.981 -1.1270  1.2855 -0.8022
 7749TIP3   OH244661   0.241   2.667   5.635  0.5544  0.2319 -0.1104
 7749TIP3    H144662   0.226   2.599   5.569  0.4940  0.2164 -0.0806
 7749TIP3    H244663   0.220   2.749   5.591  1.9995  0.3716 -0.6039
 7750TIP3   OH244664   5.119   4.353   2.058  0.8818 -0.3919 -0.1935
 7750TIP3    H144665   5.029   4.382   2.045  1.3845  1.0521 -0.6761
 7750TIP3    H244666   5.118   4.308   2.143 -0.3363 -0.6160 -0.3144
 7751TIP3   OH244667   5.638   6.004   2.050  1.0277  0.2026  0.2710
 7751TIP3    H144668   5.707   6.001   2.116 -0.1328  0.7843  1.5698
 7751TIP3    H244669   5.583   5.928   2.070 -0.1823  1.2267  0.9957
 7752TIP3   OH244670   4.330   3.859  16.225  0.4386 -0.1360  0.2221
 7752TIP3    H144671   4.276   3.867  16.147 -0.1837 -0.7425  0.5758
 7752TIP3    H244672   4.335   3.947  16.261 -2.2845 -0.3866  1.4660
 7753TIP3   OH244673   4.899   4.582   2.124  0.5429 -0.4518 -1.2056
 7753TIP3    H144674   4.925   4.617   2.039  1.9941  0.6369 -0.3619
 7753TIP3    H244675   4.804   4.581   2.122  0.5470 -0.5936 -2.8841
 7754TIP3   OH244676   5.798   6.029   0.184 -1.0246 -0.1472 -0.0925
 7754TIP3    H144677   5.731   6.067   0.129 -1.4769 -0.6696  0.0837
 7754TIP3    H244678   5.750   5.983   0.253 -0.4734  0.4924  0.7421
 7755TIP3   OH244679   5.906   0.871   2.974 -0.6310  0.4602  0.1003
 7755TIP3    H144680   5.921   0.877   3.068 -0.2721  0.8417  0.0179
 7755TIP3    H244681   5.846   0.797   2.965 -0.5565  0.3299  0.6158
 7756TIP3   OH244682   2.365   4.280  12.632  0.2319  0.0201 -0.5841
 7756TIP3    H144683   2.290   4.318  12.677  0.4062 -0.8302  0.4732
 7756TIP3    H244684   2.406   4.223  12.697  0.5476 -1.1916 -1.7892
 7757TIP3   OH244685   6.715   3.408   6.082  0.0508 -0.6668 -0.1881
 7757TIP3    H144686   6.655   3.369   6.146 -2.9352  1.8339 -1.2214
 7757TIP3    H244687   6.754   3.482   6.127 -1.1568  0.3854 -0.7892
 7758TIP3   OH244688   1.380   2.754  13.165 -0.2989  0.3447 -0.4763
 7758TIP3    H144689   1.323   2.781  13.237  1.0601 -0.3412  0.9144
 7758TIP3    H244690   1.468   2.778  13.193  0.5585 -2.1005 -0.7681
 7759TIP3   OH244691   2.205   2.925   4.983 -0.1112  0.2259 -0.4356
 7759TIP3    H144692   2.212   2.905   5.076 -1.4575  1.8989  0.0855
 7759TIP3    H244693   2.110   2.927   4.966  0.0873 -1.4521 -2.2140
 7760TIP3   OH244694   4.076   0.807  14.223  0.2203 -0.0584 -0.3096
 7760TIP3    H144695   4.096   0.744  14.153  1.3924  0.2756 -0.3028
 7760TIP3    H244696   4.066   0.753  14.301  0.5093 -0.3024 -0.4382
 7761TIP3   OH244697   5.412   4.163   3.100  0.5407 -0.3152 -0.9138
 7761TIP3    H144698   5.329   4.146   3.145 -0.4883  1.1731 -2.1286
 7761TIP3    H244699   5.386   4.194   3.013  2.4110 -0.8434 -1.7196
 7762TIP3   OH244700   1.469   2.085  11.918 -0.9597  0.3089 -0.0142
 7762TIP3    H144701   1.497   2.058  12.006  0.1342 -0.6143 -0.6257
 7762TIP3    H244702   1.488   2.009  11.863  0.0413  1.5091 -1.3798
 7763TIP3   OH244703   4.413   5.621   6.576 -0.3921  0.1090  0.0067
 7763TIP3    H144704   4.418   5.543   6.520 -1.6159 -0.1736  0.2555
 7763TIP3    H244705   4.445   5.591   6.661 -0.7604 -0.0982  0.0741
 7764TIP3   OH244706   2.173   4.254  13.215 -0.2476 -0.7675 -0.2517
 7764TIP3    H144707   2.131   4.190  13.158 -0.1320 -0.8401 -0.2543
 7764TIP3    H244708   2.101   4.310  13.245  0.0350  1.1534 -2.8305
 7765TIP3   OH244709   1.850   6.202   0.090 -0.2492  0.5896  0.1967
 7765TIP3    H144710   1.846   6.116   0.131  1.6290  1.3117  2.0450
 7765TIP3    H244711   1.795   6.258   0.145 -0.0142  0.9655  0.0536
 7766TIP3   OH244712   4.646   4.785  15.150  0.0152 -0.4306 -0.2500
 7766TIP3    H144713   4.652   4.732  15.070 -0.1829  0.7950 -1.1023
 7766TIP3    H244714   4.560   4.764  15.186 -0.2061 -0.4425 -0.7719
 7767TIP3   OH244715   4.043   6.396  15.505 -0.4420  0.4527  0.0131
 7767TIP3    H144716   4.062   6.338  15.579 -0.7421  1.4704  0.8965
 7767TIP3    H244717   3.950   6.414  15.512 -0.7283 -0.3737 -1.3124
 7768TIP3   OH244718   3.235   0.320   4.170  0.6472 -0.1864  0.4874
 7768TIP3    H144719   3.142   0.328   4.190  0.6019 -1.6408  0.9532
 7768TIP3    H244720   3.239   0.263   4.093  1.0888  1.4259 -0.7577
 7769TIP3   OH244721   0.004   4.497  15.980 -1.1816  0.2007  0.5285
 7769TIP3    H144722   0.001   4.570  15.918 -1.6009 -1.5315 -1.6034
 7769TIP3    H244723   0.086   4.510  16.028 -0.5950  1.3476 -0.7128
 7770TIP3   OH244724   1.017   1.534   6.413 -0.3896 -0.0348  0.3904
 7770TIP3    H144725   1.059   1.517   6.497  0.3239  0.0923  0.0689
 7770TIP3    H244726   1.065   1.478   6.351  0.1711  1.0757 -0.2042
 7771TIP3   OH244727   4.812   5.767  12.328 -0.0020 -0.1964  0.1938
 7771TIP3    H144728   4.852   5.698  12.275 -0.5075 -0.7483  0.5221
 7771TIP3    H244729   4.764   5.821  12.265  1.2818  0.5135 -0.2159
 7772TIP3   OH244730   2.511   3.288  17.223  0.0203  0.3540  0.0465
 7772TIP3    H144731   2.477   3.207  17.186 -0.4369 -0.7835  2.7325
 7772TIP3    H244732   2.606   3.282  17.211 -0.0111 -0.6057  0.2516
 7773TIP3   OH244733   6.634   3.133   2.592 -0.1748 -0.4120 -0.2765
 7773TIP3    H144734   6.693   3.117   2.665 -0.8432 -0.1261  0.3368
 7773TIP3    H244735   6.660   3.069   2.525 -0.8905 -2.0928  0.9894
 7774TIP3   OH244736   4.409   5.057  16.490  0.0486 -0.6930  0.4986
 7774TIP3    H144737   4.453   5.121  16.544  1.2576 -1.5452  0.5657
 7774TIP3    H244738   4.335   5.104  16.451  1.6535  1.0842 -0.5021
 7775TIP3   OH244739   0.304   5.695  17.078  0.2734 -0.3044 -0.5924
 7775TIP3    H144740   0.347   5.756  17.018  0.3198  0.9066  0.6393
 7775TIP3    H244741   0.370   5.628  17.096 -0.2528 -1.6683 -3.1408
 7776TIP3   OH244742   2.245   1.423  14.095 -0.6375  0.5017 -0.1211
 7776TIP3    H144743   2.154   1.402  14.115 -0.6193 -0.4179 -0.9618
 7776TIP3    H244744   2.290   1.339  14.098 -0.1113  0.7352 -1.2253
 7777TIP3   OH244745   4.454   2.893  13.930 -0.6909  0.1344  0.0314
 7777TIP3    H144746   4.452   2.830  13.857  1.4637  0.0837 -0.0585
 7777TIP3    H244747   4.379   2.950  13.915 -1.7868 -1.4651 -0.7609
 7778TIP3   OH244748   5.580   2.637  12.529  0.3189  0.0643  0.4099
 7778TIP3    H144749   5.587   2.722  12.572  0.3437 -0.0975  0.7308
 7778TIP3    H244750   5.560   2.576  12.600 -3.4839  0.3247 -0.2376
 7779TIP3   OH244751   4.298   2.252  12.463  0.2352 -1.3587  0.5411
 7779TIP3    H144752   4.208   2.259  12.496  0.3385 -1.2692  0.8016
 7779TIP3    H244753   4.353   2.255  12.541  0.4054 -2.7554  0.4926
 7780TIP3   OH244754   4.107   3.455   2.756 -0.0917 -0.4259 -1.0972
 7780TIP3    H144755   4.049   3.390   2.797 -2.0622  0.7023 -1.9902
 7780TIP3    H244756   4.182   3.459   2.815 -1.5692 -0.8719  0.9407
 7781TIP3   OH244757   3.583   3.338   4.778 -0.1188  0.1180  0.1286
 7781TIP3    H144758   3.674   3.358   4.799  0.0711 -0.2380 -0.3173
 7781TIP3    H244759   3.551   3.288   4.853 -0.8864  2.7866  1.6931
 7782TIP3   OH244760   3.781   6.196  10.636  0.9165  0.0386 -0.1873
 7782TIP3    H144761   3.868   6.173  10.604  0.0563 -1.6781 -1.4704
 7782TIP3    H244762   3.728   6.117  10.621 -0.7083  0.7978  1.1721
 7783TIP3   OH244763   0.836   0.969  15.283  0.1578 -0.1541  0.1487
 7783TIP3    H144764   0.861   0.935  15.369  0.5424 -0.2935 -0.0158
 7783TIP3    H244765   0.740   0.963  15.281 -0.0718  2.0487  1.4853
 7784TIP3   OH244766   4.948   1.616   0.598  0.6883 -0.2068 -0.7840
 7784TIP3    H144767   4.865   1.654   0.626  0.4692 -1.8649  1.0152
 7784TIP3    H244768   4.928   1.576   0.513 -0.4849 -0.9081 -0.2015
 7785TIP3   OH244769   2.247   6.785   5.073  0.4798 -0.1422 -0.0374
 7785TIP3    H144770   2.171   6.836   5.102  1.5406  0.2699  2.2307
 7785TIP3    H244771   2.319   6.816   5.127  1.8219 -2.0101 -0.6515
 7786TIP3   OH244772   5.930   3.543   1.025 -0.1983 -0.0187  0.2067
 7786TIP3    H144773   5.989   3.495   0.967  0.5094  1.6918 -0.5527
 7786TIP3    H244774   5.864   3.580   0.966 -0.1093  0.8198  0.6158
 7787TIP3   OH244775   2.165   2.069  14.698  0.7206 -0.0176 -0.3213
 7787TIP3    H144776   2.242   2.095  14.749  0.8958  0.3041 -0.7375
 7787TIP3    H244777   2.201   2.034  14.616  0.4679 -1.3099  0.1082
 7788TIP3   OH244778   5.762   4.306  11.028 -0.1032 -0.4686 -0.2946
 7788TIP3    H144779   5.847   4.279  11.062  0.7871 -0.5447 -2.4264
 7788TIP3    H244780   5.727   4.228  10.985 -1.0631 -0.3096  0.1694
 7789TIP3   OH244781   2.806   3.440  15.568  0.4174 -0.2340 -0.2286
 7789TIP3    H144782   2.770   3.508  15.625 -0.6518 -1.5275  0.7295
 7789TIP3    H244783   2.798   3.359  15.620  0.9767 -1.1999 -1.5873
 7790TIP3   OH244784   6.713   2.781  17.205  0.0922 -0.4128 -0.2681
 7790TIP3    H144785   6.782   2.756  17.266  2.0673 -1.3009 -2.7035
 7790TIP3    H244786   6.693   2.872  17.227  2.8028  0.2187 -0.1117
 7791TIP3   OH244787   4.881   1.129   3.853 -0.1453  0.4931  0.5754
 7791TIP3    H144788   4.845   1.204   3.900  1.1754  0.5451  1.5622
 7791TIP3    H244789   4.910   1.164   3.769 -1.6780  0.5842  0.0547
 7792TIP3   OH244790   1.116   2.376   3.060 -0.5047  0.5539 -0.4410
 7792TIP3    H144791   1.136   2.470   3.052  0.6881  0.8403  3.7487
 7792TIP3    H244792   1.196   2.337   3.097 -1.1746 -2.0681 -1.5288
 7793TIP3   OH244793   1.273   1.739  15.318  0.5831 -0.3709  0.5816
 7793TIP3    H144794   1.364   1.739  15.350  0.5092  1.4772  0.9169
 7793TIP3    H244795   1.220   1.724  15.396  0.5157  1.3862  0.9088
 7794TIP3   OH244796   5.665   3.977   3.470 -0.1550 -0.1787  0.6515
 7794TIP3    H144797   5.712   3.963   3.553 -0.0050 -1.4205  0.3819
 7794TIP3    H244798   5.608   4.052   3.486  1.8161  1.3156  1.0438
 7795TIP3   OH244799   5.343   1.265   0.581  0.1519  0.0745 -0.0231
 7795TIP3    H144800   5.332   1.350   0.622 -0.1769  0.1251 -0.2148
 7795TIP3    H244801   5.279   1.263   0.510  0.3721 -0.2073 -0.2219
 7796TIP3   OH244802   6.521   5.626   1.875  0.2458  0.0463  0.0255
 7796TIP3    H144803   6.573   5.692   1.920  0.7229 -0.1085 -0.2890
 7796TIP3    H244804   6.543   5.637   1.782  0.1299 -0.3723 -0.0557
 7797TIP3   OH244805   3.328   4.788  11.433  0.0935 -0.2555 -0.1651
 7797TIP3    H144806   3.337   4.748  11.520 -0.9934  0.2602  0.2087
 7797TIP3    H244807   3.369   4.874  11.443 -0.6228  0.0684  0.0428
 7798TIP3   OH244808   2.727   5.024   1.095 -0.3995  0.2181  0.3589
 7798TIP3    H144809   2.803   4.971   1.072 -0.7234 -0.0399 -0.1267
 7798TIP3    H244810   2.731   5.098   1.035  0.7380  1.4188  1.8239
 7799TIP3   OH244811   4.624   3.600   0.059 -0.1667 -0.2164  0.4046
 7799TIP3    H144812   4.555   3.537   0.039  0.0579 -0.5442  0.6490
 7799TIP3    H244813   4.693   3.581  -0.004 -1.1277  1.4983 -1.2438
 7800TIP3   OH244814   4.740   1.810   5.605 -0.6361  0.1453 -0.3688
 7800TIP3    H144815   4.813   1.828   5.545 -0.0945  0.0619  0.2534
 7800TIP3    H244816   4.662   1.818   5.550 -0.2902  2.1058 -0.6482
 7801TIP3   OH244817   6.359   6.025  13.216  0.0767  0.3800 -0.4503
 7801TIP3    H144818   6.273   6.068  13.213 -0.0525  0.0968 -0.9021
 7801TIP3    H244819   6.369   5.996  13.306 -0.1231  0.7712 -0.2977
 7802TIP3   OH244820   4.974   5.005  14.445  0.7854  0.3098 -0.2657
 7802TIP3    H144821   4.961   4.936  14.511  0.4528  1.2321  0.6525
 7802TIP3    H244822   5.061   5.040  14.463  0.1690  1.4718  0.5739
 7803TIP3   OH244823   3.327   4.642  10.713  0.6719  0.0012  0.4027
 7803TIP3    H144824   3.355   4.606  10.629 -1.7112 -1.4482  0.1241
 7803TIP3    H244825   3.314   4.735  10.695 -1.4096 -0.5282 -1.4300
 7804TIP3   OH244826   3.260   3.181  14.699 -0.4253  0.7997 -1.0821
 7804TIP3    H144827   3.319   3.153  14.629  0.7195 -0.4623  0.3178
 7804TIP3    H244828   3.261   3.277  14.695  1.2959  0.7969 -1.4686
 7805TIP3   OH244829   3.373   6.134   3.730  0.6343 -0.1554  0.5500
 7805TIP3    H144830   3.350   6.211   3.783  1.4282 -0.0652  0.7749
 7805TIP3    H244831   3.289   6.103   3.696  0.3134  0.8895  0.3459
 7806TIP3   OH244832   5.006   4.495   2.689  0.3885  0.0975  0.3966
 7806TIP3    H144833   5.029   4.512   2.780 -0.7977 -1.2656  1.0029
 7806TIP3    H244834   5.090   4.476   2.646  0.8693 -0.2989  1.4663
 7807TIP3   OH244835   3.352   4.189   2.513 -0.2160 -0.1998 -0.0595
 7807TIP3    H144836   3.294   4.265   2.503  1.2126  1.3193  2.3005
 7807TIP3    H244837   3.418   4.200   2.445 -1.1230 -0.4206 -0.9882
 7808TIP3   OH244838   5.703   1.089   6.347 -0.5328 -0.5179  0.5961
 7808TIP3    H144839   5.749   1.103   6.430  1.9483 -1.6071 -0.5151
 7808TIP3    H244840   5.717   1.170   6.298 -3.1547  0.6876  1.6350
 7809TIP3   OH244841   0.251   5.446   5.170  0.0364 -0.2858  0.0425
 7809TIP3    H144842   0.175   5.412   5.218  0.2626 -0.1951  0.4723
 7809TIP3    H244843   0.220   5.457   5.081 -0.4996 -0.1109  0.2462
 7810TIP3   OH244844   2.080   6.397   3.296 -0.1258 -0.2356  0.7626
 7810TIP3    H144845   2.104   6.489   3.311  1.5313 -0.6953  1.0670
 7810TIP3    H244846   2.072   6.390   3.201  2.0357 -0.2632  0.5273
 7811TIP3   OH244847   3.105   4.005   4.504  0.1979 -0.2311  0.1130
 7811TIP3    H144848   3.191   4.020   4.543 -0.8474  0.3315  2.3755
 7811TIP3    H244849   3.101   4.066   4.430  1.6918 -0.2151  0.0179
 7812TIP3   OH244850   2.714   3.126  13.023 -0.1564  0.4027  0.1700
 7812TIP3    H144851   2.797   3.083  13.003 -0.1906 -0.0726  1.0414
 7812TIP3    H244852   2.739   3.214  13.052  0.0389  0.2749  0.3927
 7813TIP3   OH244853   5.225   3.656   1.791 -0.5017  0.0916  0.7764
 7813TIP3    H144854   5.210   3.664   1.697 -1.3045 -1.9661  0.6849
 7813TIP3    H244855   5.137   3.656   1.830 -0.2470 -0.6129  1.3706
 7814TIP3   OH244856   1.707   6.578   1.512  0.1132  0.2825 -0.3089
 7814TIP3    H144857   1.641   6.591   1.580  1.4984 -1.0060  1.3923
 7814TIP3    H244858   1.670   6.510   1.456 -0.7988  0.9454 -0.5442
 7815TIP3   OH244859   6.442   1.467  16.089 -0.1161  0.5493  0.0039
 7815TIP3    H144860   6.415   1.376  16.095 -1.4174  0.9051 -0.1340
 7815TIP3    H244861   6.371   1.516  16.131 -0.1862  1.6183 -1.3017
 7816TIP3   OH244862   4.054   1.101   4.360 -0.0224 -0.0135 -0.1820
 7816TIP3    H144863   4.018   1.150   4.287 -0.1255 -0.6689 -0.5798
 7816TIP3    H244864   4.017   1.144   4.438 -0.6375  0.1290 -0.5413
 7817TIP3   OH244865   1.015   6.338   0.392  0.0443  0.7756 -0.0077
 7817TIP3    H144866   0.978   6.425   0.402  0.6526  1.0416 -0.0051
 7817TIP3    H244867   1.064   6.323   0.473 -1.5426 -0.3232  0.7913
 7818TIP3   OH244868   0.696   5.325  11.275  0.0727  0.0589 -0.8381
 7818TIP3    H144869   0.622   5.291  11.326  0.3536  0.0863 -0.3993
 7818TIP3    H244870   0.727   5.250  11.225  0.0284 -0.0635 -0.6830
 7819TIP3   OH244871   0.941   4.511  11.398  1.0145 -0.1754  0.0159
 7819TIP3    H144872   0.884   4.499  11.322 -0.3031  0.3679  0.8880
 7819TIP3    H244873   0.995   4.431  11.400  0.1778 -0.7809 -0.7399
 7820TIP3   OH244874   2.116   1.601   5.078 -0.6595  0.4635 -0.1733
 7820TIP3    H144875   2.115   1.508   5.052 -0.0816  0.2854  0.4034
 7820TIP3    H244876   2.037   1.638   5.038 -1.1280 -0.3777 -0.0639
 7821TIP3   OH244877   1.160   6.007  16.376 -0.5663 -0.3155  0.3715
 7821TIP3    H144878   1.204   6.086  16.409 -2.5220  0.3632  1.5120
 7821TIP3    H244879   1.190   5.999  16.286  0.3177  1.2700  0.4858
 7822TIP3   OH244880   2.487   2.593  12.814  0.0506 -0.0775 -0.0717
 7822TIP3    H144881   2.480   2.579  12.719 -1.1002  0.5255 -0.1050
 7822TIP3    H244882   2.571   2.556  12.838  1.3176  1.5707 -1.6882
 7823TIP3   OH244883   1.306   2.179   4.450 -0.4570  0.1796 -0.2610
 7823TIP3    H144884   1.370   2.191   4.379 -1.2483  0.6526 -0.9021
 7823TIP3    H244885   1.338   2.235   4.521 -0.6166  1.0763 -0.8869
 7824TIP3   OH244886   1.360   3.068   3.308 -0.0544  0.4420 -0.2001
 7824TIP3    H144887   1.327   3.158   3.315 -0.0909  0.3912  0.3333
 7824TIP3    H244888   1.376   3.041   3.399  0.7352  0.1979 -0.4029
 7825TIP3   OH244889   2.227   4.541   0.744  0.0628 -0.5133 -0.1402
 7825TIP3    H144890   2.278   4.465   0.717 -0.5745 -1.2784  0.7515
 7825TIP3    H244891   2.244   4.550   0.838  0.0231  0.3712 -0.2058
 7826TIP3   OH244892   1.479   1.183   3.669  0.0983 -0.5832  0.0299
 7826TIP3    H144893   1.451   1.092   3.659 -2.1371  0.0929 -0.3482
 7826TIP3    H244894   1.478   1.199   3.763 -1.9435 -0.2821 -0.0095
 7827TIP3   OH244895   0.400   1.840  16.107  0.2766  0.0338  0.1000
 7827TIP3    H144896   0.386   1.793  16.189 -2.9188 -0.7271 -0.7517
 7827TIP3    H244897   0.370   1.929  16.125  1.9314  0.5806  0.3793
 7828TIP3   OH244898   5.384   2.072  13.613 -0.5708 -0.0573  0.4026
 7828TIP3    H144899   5.337   1.994  13.584  0.7748 -0.4234 -0.8846
 7828TIP3    H244900   5.322   2.144  13.601 -1.9192 -0.9239  1.8518
 7829TIP3   OH244901   3.612   2.014  12.510 -0.1050 -0.0443 -0.5459
 7829TIP3    H144902   3.527   2.057  12.516  0.7991  1.7185  0.8187
 7829TIP3    H244903   3.592   1.923  12.488 -2.3102  0.3365 -0.3373
 7830TIP3   OH244904   1.766   4.872  14.315 -0.2681 -0.0183  0.3262
 7830TIP3    H144905   1.689   4.927  14.330  0.1319  0.2410  1.4659
 7830TIP3    H244906   1.729   4.786  14.292 -0.8917  0.3142  0.0689
 7831TIP3   OH244907   1.459   2.313   3.718  0.0501 -0.0227 -0.0965
 7831TIP3    H144908   1.506   2.377   3.665 -1.8771  0.6910 -1.0260
 7831TIP3    H244909   1.427   2.363   3.793 -1.5403  0.1670 -0.8722
 7832TIP3   OH244910   4.942   0.037   0.298 -0.1014 -0.0861 -0.3642
 7832TIP3    H144911   4.849   0.015   0.288 -0.2880  0.9872 -1.1713
 7832TIP3    H244912   4.988  -0.045   0.279 -0.8660 -0.5808 -0.1447
 7833TIP3   OH244913   4.721   3.768   4.473  0.1000  0.5225 -0.0954
 7833TIP3    H144914   4.796   3.798   4.523  0.5022 -0.5404 -0.0169
 7833TIP3    H244915   4.662   3.731   4.538  0.3386 -0.2838 -0.3189
 7834TIP3   OH244916   4.260   1.087   2.355  0.0446  0.6787  0.2424
 7834TIP3    H144917   4.333   1.040   2.314  1.3718  1.5225  1.5258
 7834TIP3    H244918   4.182   1.050   2.314  1.0802 -1.6431  0.1826
 7835TIP3   OH244919   2.002   4.280   5.517 -0.4056 -0.2416 -0.2475
 7835TIP3    H144920   2.000   4.284   5.421 -2.3610 -0.3050 -0.2430
 7835TIP3    H244921   1.932   4.339   5.545  0.3416  0.0214  1.1777
 7836TIP3   OH244922   1.944   2.056   5.720 -0.4121  0.3272  0.3065
 7836TIP3    H144923   1.883   2.109   5.670  1.3595  0.3394 -2.0405
 7836TIP3    H244924   2.023   2.110   5.726  0.9616 -1.4066 -0.9553
 7837TIP3   OH244925   2.664   1.184   0.970 -0.5866 -0.3935  0.2477
 7837TIP3    H144926   2.612   1.263   0.984 -1.3442 -0.8900  0.3191
 7837TIP3    H244927   2.747   1.201   1.016 -0.4124  0.6686 -0.4155
 7838TIP3   OH244928   4.406   5.375  16.401 -0.3199 -0.3093 -0.0087
 7838TIP3    H144929   4.501   5.363  16.406 -0.4394 -0.9944  0.7213
 7838TIP3    H244930   4.377   5.314  16.333 -0.0789  0.9779 -1.3388
 7839TIP3   OH244931   5.363   0.768   0.397  0.0049  0.2331 -0.1095
 7839TIP3    H144932   5.381   0.851   0.352 -0.2422  1.0839  1.2822
 7839TIP3    H244933   5.439   0.755   0.454 -0.2675 -0.1460  0.1736
 7840TIP3   OH244934   0.291   0.722   0.472  0.3226 -0.4242  0.1174
 7840TIP3    H144935   0.239   0.786   0.520 -0.7377 -2.2265  1.5072
 7840TIP3    H244936   0.279   0.640   0.521  0.1247 -2.1121 -2.5522
 7841TIP3   OH244937   5.496   3.082  14.067 -0.0907 -0.1207  0.1067
 7841TIP3    H144938   5.542   3.049  13.990 -0.4139  2.8012 -1.5144
 7841TIP3    H244939   5.558   3.071  14.139  1.8222  0.5465 -1.3467
 7842TIP3   OH244940   0.984   0.150   2.576  0.6568  0.0983  0.1072
 7842TIP3    H144941   0.994   0.095   2.653 -1.8920 -0.4306  0.1211
 7842TIP3    H244942   1.031   0.103   2.506  0.0264 -1.1835  0.5297
 7843TIP3   OH244943   3.926   2.737   2.789  0.3802  0.4636  0.3476
 7843TIP3    H144944   3.851   2.796   2.792 -1.7563 -1.5276 -4.3309
 7843TIP3    H244945   3.892   2.652   2.817  1.5948 -0.0078  0.4885
 7844TIP3   OH244946   4.385   5.932   4.888  0.0494  0.4513  0.1473
 7844TIP3    H144947   4.378   5.845   4.850 -2.1617  0.1707  1.0335
 7844TIP3    H244948   4.410   5.988   4.815 -0.6132 -0.6006 -0.9245
 7845TIP3   OH244949   1.417   1.063  11.440 -0.9675 -0.3110 -0.2484
 7845TIP3    H144950   1.501   1.092  11.404 -1.1629  0.3717 -0.1627
 7845TIP3    H244951   1.355   1.075  11.368 -1.2164  0.3324  0.0719
 7846TIP3   OH244952   3.570   2.820   1.773 -0.1901  0.7054  0.1249
 7846TIP3    H144953   3.534   2.739   1.737  0.6491  0.3302  0.0947
 7846TIP3    H244954   3.565   2.810   1.868  0.4582  0.3545  0.1277
 7847TIP3   OH244955   6.731   6.246  14.182  0.1601 -0.2869 -0.6885
 7847TIP3    H144956   6.811   6.270  14.227  0.8950 -1.5360 -1.2945
 7847TIP3    H244957   6.673   6.321  14.196  1.8166  1.1625 -1.2130
 7848TIP3   OH244958   0.170   2.825   2.166  0.0165 -0.2896  0.2354
 7848TIP3    H144959   0.219   2.838   2.247  0.5092 -0.1014 -0.0792
 7848TIP3    H244960   0.216   2.754   2.121  0.1756  0.0698 -0.1872
 7849TIP3   OH244961   0.320   5.555  12.920  0.1460  0.3147  0.0591
 7849TIP3    H144962   0.304   5.624  12.857 -1.1019 -0.9114 -1.0119
 7849TIP3    H244963   0.287   5.475  12.879 -0.4319 -0.5906  2.1134
 7850TIP3   OH244964   3.830   4.901   3.781  0.2490  0.1871  0.0881
 7850TIP3    H144965   3.882   4.915   3.860  2.8628 -1.0800 -1.2813
 7850TIP3    H244966   3.768   4.974   3.779  3.0936  2.8305  0.9915
 7851TIP3   OH244967   3.131   3.273  15.389 -0.2528 -0.1399 -0.6653
 7851TIP3    H144968   3.136   3.234  15.302 -2.6920 -0.5794 -0.6597
 7851TIP3    H244969   3.105   3.364  15.373  1.2021  0.3429 -0.4521
 7852TIP3   OH244970   6.661   3.820  12.441  0.0064  0.1774  0.3725
 7852TIP3    H144971   6.716   3.846  12.367 -0.6312 -1.9977 -0.9648
 7852TIP3    H244972   6.603   3.894  12.455  1.0102  1.1554 -0.4136
 7853TIP3   OH244973   1.630   4.705   3.981 -0.7137  0.1818  0.1656
 7853TIP3    H144974   1.624   4.622   4.027  2.0874 -0.0431  0.2676
 7853TIP3    H244975   1.686   4.760   4.036  1.3294  0.4776 -2.0530
 7854TIP3   OH244976   1.343   4.228  11.405  0.7911 -0.1849 -0.3202
 7854TIP3    H144977   1.351   4.167  11.332 -0.1329 -1.3597  0.5177
 7854TIP3    H244978   1.257   4.269  11.392  1.4222  0.9945 -0.8974
 7855TIP3   OH244979   6.626   2.834  15.530 -0.2480  0.6085  0.1734
 7855TIP3    H144980   6.580   2.817  15.448 -1.1438  0.1310  0.7532
 7855TIP3    H244981   6.719   2.827  15.508 -0.4675 -2.1405 -0.2955
 7856TIP3   OH244982   4.951   0.434   4.933  0.1351  0.0444  0.1263
 7856TIP3    H144983   4.962   0.496   4.861 -1.8073 -0.0566 -0.3059
 7856TIP3    H244984   4.980   0.350   4.898  0.5607  0.2668 -0.0562
 7857TIP3   OH244985   0.461   5.625  14.148 -0.5820 -0.1654  0.0561
 7857TIP3    H144986   0.490   5.717  14.145  0.9706 -0.6384 -3.0225
 7857TIP3    H244987   0.421   5.610  14.063 -1.2258 -2.2586  0.6776
 7858TIP3   OH244988   5.760   2.374   0.695  0.3052 -0.3724 -0.5397
 7858TIP3    H144989   5.809   2.341   0.620 -0.2427 -1.7121 -0.3473
 7858TIP3    H244990   5.675   2.331   0.688  0.2557 -0.5517  0.8471
 7859TIP3   OH244991   4.507   2.757   2.558  0.3558  0.3819  0.0929
 7859TIP3    H144992   4.480   2.721   2.474  0.7902 -1.2580  0.6134
 7859TIP3    H244993   4.520   2.850   2.542 -0.0519  0.1775 -1.5227
 7860TIP3   OH244994   2.579   3.749   2.882 -0.5845 -0.2592 -0.0510
 7860TIP3    H144995   2.567   3.684   2.812  1.2352  1.4936 -2.1297
 7860TIP3    H244996   2.508   3.730   2.944 -1.9777 -2.2454 -2.0664
 7861TIP3   OH244997   2.850   3.370   3.571 -0.3313  0.2568  0.6412
 7861TIP3    H144998   2.778   3.430   3.549 -0.8443 -0.5802 -0.0651
 7861TIP3    H244999   2.850   3.365   3.666 -0.5240  1.0834  0.6872
 7862TIP3   OH245000   2.351   2.287   2.177 -0.2683 -0.0146 -0.3027
 7862TIP3    H145001   2.353   2.272   2.271 -1.3866  0.2454 -0.2227
 7862TIP3    H245002   2.409   2.221   2.140  1.8585  1.1880  0.7072
 7863TIP3   OH245003   3.540   1.212   3.367  0.0762 -0.4766 -0.5691
 7863TIP3    H145004   3.528   1.238   3.459  2.2417 -4.1924  0.9685
 7863TIP3    H245005   3.587   1.286   3.328 -1.0823  1.3093  1.2046
 7864TIP3   OH245006   4.724   0.108   4.063 -0.0045  0.4480  0.1537
 7864TIP3    H145007   4.686   0.180   4.112 -1.6857 -0.4623  0.2621
 7864TIP3    H245008   4.812   0.097   4.100  0.1476  2.1754  0.3640
 7865TIP3   OH245009   3.868   0.739  15.791  0.3269 -0.1164 -0.0061
 7865TIP3    H145010   3.895   0.683  15.863  1.8899  0.6600  0.0486
 7865TIP3    H245011   3.772   0.733  15.791  0.3107 -0.4612  1.8608
 7866TIP3   OH245012   6.634   4.551   1.321  0.1770 -0.1064 -0.0810
 7866TIP3    H145013   6.629   4.594   1.236 -0.4632 -0.5239 -0.2582
 7866TIP3    H245014   6.725   4.522   1.328  0.5295  0.9519 -0.1107
 7867TIP3   OH245015   1.142   2.552  11.847 -0.0596  0.2260 -0.3084
 7867TIP3    H145016   1.068   2.546  11.908 -0.5008 -1.0097 -0.9252
 7867TIP3    H245017   1.102   2.576  11.764  0.0623 -1.3833 -0.8766
 7868TIP3   OH245018   2.149   4.594  13.811  0.6411 -0.0266 -0.6486
 7868TIP3    H145019   2.207   4.606  13.735  0.8707 -0.7335 -0.5983
 7868TIP3    H245020   2.108   4.509  13.796  1.8186 -0.8842  0.7484
 7869TIP3   OH245021   1.157   3.898  12.171 -0.0078 -0.5548  0.0478
 7869TIP3    H145022   1.146   3.991  12.152  1.4565 -0.0415  1.5026
 7869TIP3    H245023   1.241   3.875  12.130 -0.4099 -1.2747 -0.3870
 7870TIP3   OH245024   4.182   5.055  13.214 -0.0091  0.7651 -0.2839
 7870TIP3    H145025   4.202   5.084  13.125  1.2149 -0.3864 -0.4086
 7870TIP3    H245026   4.142   5.131  13.256  0.4286  1.6715 -1.4729
 7871TIP3   OH245027   1.231   1.291   2.018  0.1888  0.0550  0.3879
 7871TIP3    H145028   1.296   1.332   2.074 -0.0047  1.5963 -0.4546
 7871TIP3    H245029   1.237   1.337   1.935 -2.0822  0.3913  0.3255
 7872TIP3   OH245030   6.171   6.373   2.714 -0.3529 -0.0683 -0.1503
 7872TIP3    H145031   6.261   6.342   2.722 -0.3551 -0.2045 -0.6101
 7872TIP3    H245032   6.163   6.399   2.622 -0.1067  2.0471  0.3805
 7873TIP3   OH245033   1.787   6.351  12.896  0.1596 -0.3206 -0.1675
 7873TIP3    H145034   1.875   6.319  12.914  0.0970 -0.3558  0.0744
 7873TIP3    H245035   1.781   6.350  12.800  0.3273 -0.5711 -0.1779
 7874TIP3   OH245036   6.409   4.348   1.696 -0.0948  0.0554  0.1818
 7874TIP3    H145037   6.406   4.327   1.603  4.4279  1.1142 -0.4523
 7874TIP3    H245038   6.420   4.443   1.698  0.1783  0.0172  1.7635
 7875TIP3   OH245039   0.601   4.803   3.739 -0.3127 -0.3205 -0.2456
 7875TIP3    H145040   0.524   4.748   3.755  0.0575 -1.5547 -2.3310
 7875TIP3    H245041   0.580   4.887   3.781 -1.6421 -1.4588  1.5113
 7876TIP3   OH245042   5.751   1.677  17.063 -0.2638 -0.3730  0.1287
 7876TIP3    H145043   5.796   1.662  17.146 -0.8840  0.0871  0.5598
 7876TIP3    H245044   5.820   1.705  17.003 -0.1344  1.5963  1.1135
 7877TIP3   OH245045   2.474   6.574  13.726  0.3080  0.3876  0.0441
 7877TIP3    H145046   2.394   6.578  13.780  0.6862  1.6057  0.5316
 7877TIP3    H245047   2.444   6.595  13.638  0.1177  1.0633  0.2644
 7878TIP3   OH245048   4.425   1.048  16.930 -0.1855  0.0190 -0.7897
 7878TIP3    H145049   4.480   1.003  16.867  1.2767 -1.0437  1.1361
 7878TIP3    H245050   4.337   1.013  16.914  0.3045 -0.8366 -1.6925
 7879TIP3   OH245051   2.724   3.646  14.604 -0.2882  0.1315 -0.7403
 7879TIP3    H145052   2.634   3.624  14.579 -0.1538 -1.0561 -0.2306
 7879TIP3    H245053   2.777   3.616  14.531 -0.1943 -0.3106 -0.4917
 7880TIP3   OH245054   1.688   4.760   5.946 -0.3907  0.1009 -0.0133
 7880TIP3    H145055   1.724   4.831   5.998 -0.8991 -0.7967  1.6416
 7880TIP3    H245056   1.594   4.778   5.943 -0.2590  0.7077 -1.5776
 7881TIP3   OH245057   3.374   6.423  14.488  0.0880  0.6569  0.0483
 7881TIP3    H145058   3.318   6.491  14.451  0.0420  0.6128  0.0364
 7881TIP3    H245059   3.331   6.341  14.464 -0.6923  0.6435  1.3711
 7882TIP3   OH245060   3.680   1.204   5.957  0.0324  0.3144  0.9215
 7882TIP3    H145061   3.673   1.150   5.879  0.9555 -1.5339  2.0569
 7882TIP3    H245062   3.774   1.213   5.972 -0.0266 -2.0199  3.4677
 7883TIP3   OH245063   5.571   1.309  14.063  0.2696 -0.7013 -0.2424
 7883TIP3    H145064   5.526   1.225  14.051 -1.9306  0.2662  0.6622
 7883TIP3    H245065   5.505   1.375  14.044  1.0969  0.8268  1.7321
 7884TIP3   OH245066   5.266   4.569   0.776 -0.1259  0.3672 -0.0082
 7884TIP3    H145067   5.347   4.615   0.754  0.0467  0.5600  0.9938
 7884TIP3    H245068   5.268   4.560   0.871 -0.8904 -0.3623 -0.0442
 7885TIP3   OH245069   6.050   6.480   5.967 -0.5412 -0.4930  0.0598
 7885TIP3    H145070   6.095   6.558   5.934 -3.7669  0.9917 -1.2498
 7885TIP3    H245071   6.010   6.508   6.049 -4.0056  0.3205 -1.7137
 7886TIP3   OH245072   6.009   2.199   3.571 -0.2423  0.0836  0.3825
 7886TIP3    H145073   6.009   2.103   3.573 -1.4659  0.0590  0.1266
 7886TIP3    H245074   6.051   2.225   3.653  0.0531 -0.6646  0.4766
 7887TIP3   OH245075   0.088   1.650  12.839 -0.9531 -0.0517  0.7976
 7887TIP3    H145076   0.006   1.664  12.792  0.3122  2.4653 -0.8735
 7887TIP3    H245077   0.087   1.715  12.909  0.6950  1.9523 -0.9139
 7888TIP3   OH245078   0.015   2.190  12.157  0.0211  0.1534 -0.5685
 7888TIP3    H145079   0.012   2.284  12.143 -0.1862  0.2682  0.1819
 7888TIP3    H245080  -0.073   2.168  12.190 -0.0442 -0.3585 -1.0644
 7889TIP3   OH245081   1.911   2.061   1.531 -0.2867  0.7821  0.9918
 7889TIP3    H145082   1.819   2.050   1.553 -0.8471  0.5487 -1.2060
 7889TIP3    H245083   1.938   1.976   1.495  0.5964  1.0310  1.0376
 7890TIP3   OH245084   6.637   5.147  15.193 -1.0186 -0.0995  0.4440
 7890TIP3    H145085   6.644   5.114  15.282 -0.0624  0.8155  0.7257
 7890TIP3    H245086   6.545   5.169  15.182 -0.9879  0.5871  1.4952
 7891TIP3   OH245087   1.471   2.160   6.079 -0.7175 -0.1302 -0.4161
 7891TIP3    H145088   1.554   2.190   6.114 -0.9287 -0.7355  0.6306
 7891TIP3    H245089   1.405   2.209   6.128 -1.0250 -1.2366  0.2933
 7892TIP3   OH245090   0.308   3.578   1.279 -0.0892  0.6297 -0.0029
 7892TIP3    H145091   0.237   3.530   1.237  1.6465 -0.0797 -2.3634
 7892TIP3    H245092   0.357   3.511   1.327 -0.9674  1.1219  1.6549
 7893TIP3   OH245093   0.096   4.798   0.003  0.3880  0.1602  0.8368
 7893TIP3    H145094   0.147   4.879  -0.000 -0.4659  0.6921  0.5896
 7893TIP3    H245095   0.149   4.739   0.057  1.9728  0.1992 -0.5701
 7894TIP3   OH245096   0.880   5.432  15.083  0.1009 -0.1563  0.0736
 7894TIP3    H145097   0.924   5.489  15.019 -0.8538  0.6094  0.0673
 7894TIP3    H245098   0.935   5.354  15.087  0.2617 -0.1729 -1.5832
 7895TIP3   OH245099   1.326   0.864   1.859 -0.6505 -0.1212 -0.0227
 7895TIP3    H145100   1.345   0.773   1.836 -0.4389  0.3918 -2.0783
 7895TIP3    H245101   1.373   0.878   1.941  2.8676 -0.6949 -1.7501
 7896TIP3   OH245102   1.561   2.908   0.713  0.5071 -0.6603  0.0997
 7896TIP3    H145103   1.647   2.866   0.705  0.7723 -0.1724  0.3004
 7896TIP3    H245104   1.500   2.848   0.670  0.8182 -1.4226  0.6851
 7897TIP3   OH245105   6.687   2.821  12.556  0.0379  0.0307  0.1688
 7897TIP3    H145106   6.707   2.853  12.644  0.2806  0.3862 -0.0147
 7897TIP3    H245107   6.709   2.728  12.559  1.6161  0.3680  0.0205
 7898TIP3   OH245108   3.221   0.904  17.109 -0.4938  0.4563  0.2264
 7898TIP3    H145109   3.310   0.934  17.129 -0.0823 -0.5120 -0.0930
 7898TIP3    H245110   3.170   0.925  17.188  0.7213 -1.7911  1.7165
 7899TIP3   OH245111   2.976   2.533   5.859  0.0048  0.3263  0.1410
 7899TIP3    H145112   3.027   2.488   5.791 -0.4405 -0.4609  0.3145
 7899TIP3    H245113   2.995   2.485   5.939  2.7921  2.9668  1.2390
 7900TIP3   OH245114   4.078   6.509   5.381  0.7049  0.5927 -0.9326
 7900TIP3    H145115   4.119   6.453   5.448  1.1800  0.9138 -0.9554
 7900TIP3    H245116   4.061   6.591   5.426 -0.4207  0.2832 -0.7703
 7901TIP3   OH245117   2.627   3.189   2.084  0.4103 -0.0725 -0.2435
 7901TIP3    H145118   2.620   3.165   1.992  1.4277 -0.3282 -0.2604
 7901TIP3    H245119   2.645   3.106   2.129 -2.4399 -0.3930  0.5215
 7902TIP3   OH245120   4.877   5.439   4.119  0.5374  0.0598  0.4852
 7902TIP3    H145121   4.824   5.385   4.178 -0.0938  0.8366  0.6435
 7902TIP3    H245122   4.903   5.514   4.172 -0.0554  0.7774 -0.2099
 7903TIP3   OH245123   1.800   0.151   4.932 -0.5802  0.2767 -0.3578
 7903TIP3    H145124   1.761   0.183   5.013  1.7695 -0.2385  1.0499
 7903TIP3    H245125   1.778   0.058   4.930 -1.5436  0.5022 -0.8990
 7904TIP3   OH245126   5.132   3.120   3.050 -0.1262  0.0165  0.4628
 7904TIP3    H145127   5.060   3.076   3.095  1.0020  0.8455  3.2290
 7904TIP3    H245128   5.194   3.050   3.031 -0.2270 -0.2198  0.9914
 7905TIP3   OH245129   4.101   6.298  10.994  0.1497  0.1333  0.5414
 7905TIP3    H145130   4.139   6.336  10.914  0.7773 -1.5715 -0.0096
 7905TIP3    H245131   4.007   6.297  10.977  0.1987  0.5942  0.2050
 7906TIP3   OH245132   6.109   4.893   4.936  0.6060 -0.2389  0.3733
 7906TIP3    H145133   6.199   4.880   4.909  0.8305  1.6758  0.0013
 7906TIP3    H245134   6.056   4.857   4.865  1.0685 -1.2320  0.5241
 7907TIP3   OH245135   4.904   0.809  15.574 -0.3655 -0.0903 -0.8853
 7907TIP3    H145136   4.847   0.885  15.559 -1.1812 -0.5944 -0.4311
 7907TIP3    H245137   4.904   0.798  15.669 -0.6510 -0.9475 -0.9806
 7908TIP3   OH245138   2.027   2.743  10.415 -0.1212 -0.1867  0.4958
 7908TIP3    H145139   1.961   2.736  10.483 -1.5285 -1.3518 -0.9004
 7908TIP3    H245140   2.093   2.678  10.439 -0.7571 -0.8080  0.6035
 7909TIP3   OH245141   6.122   1.465   3.026  0.0569 -0.0996 -0.0188
 7909TIP3    H145142   6.112   1.416   2.945 -1.8950 -1.4595  0.9717
 7909TIP3    H245143   6.095   1.404   3.095  1.1702  1.1768  1.6229
 7910TIP3   OH245144   5.475   3.894  11.028  0.0950  0.1914  0.0923
 7910TIP3    H145145   5.448   3.983  11.051  0.5737  1.0398 -2.4089
 7910TIP3    H245146   5.443   3.881  10.939  2.2481 -1.1889 -0.5486
 7911TIP3   OH245147   6.665   5.404   2.406 -0.2865  0.3462 -0.5726
 7911TIP3    H145148   6.682   5.322   2.453  1.5754  1.0025 -0.0449
 7911TIP3    H245149   6.745   5.421   2.357  0.0564  2.7159  0.6764
 7912TIP3   OH245150   4.516   1.124  12.908  0.4510 -0.2647 -0.8026
 7912TIP3    H145151   4.466   1.083  12.838 -1.0591  0.6382 -0.3018
 7912TIP3    H245152   4.504   1.218  12.895  1.4147 -0.0402 -0.2146
 7913TIP3   OH245153   2.976   0.793   3.819  0.1267  0.2942  0.0416
 7913TIP3    H145154   3.017   0.708   3.833  0.0145  0.1556 -0.4341
 7913TIP3    H245155   3.030   0.855   3.868 -0.8059 -0.2806  1.8805
 7914TIP3   OH245156   3.495   3.783  14.566 -0.5284 -0.5470 -0.3019
 7914TIP3    H145157   3.415   3.793  14.618 -0.6589  1.5587 -0.8312
 7914TIP3    H245158   3.557   3.846  14.605  0.3991 -1.1325 -0.7927
 7915TIP3   OH245159   2.731   5.800   3.983  0.3916 -0.0745  0.6469
 7915TIP3    H145160   2.763   5.743   3.913  0.4643 -0.1042  0.7049
 7915TIP3    H245161   2.657   5.847   3.943  1.2535  0.8944  0.1183
 7916TIP3   OH245162   0.956   6.569  13.635  0.1238 -0.1537 -0.5753
 7916TIP3    H145163   0.960   6.623  13.714 -1.4429 -1.6061  0.5610
 7916TIP3    H245164   1.028   6.601  13.581 -0.0707  2.3109  0.4997
 7917TIP3   OH245165   5.335   0.641  12.913  0.1069  0.0331  0.2118
 7917TIP3    H145166   5.304   0.731  12.927  0.9085  0.2875  0.4088
 7917TIP3    H245167   5.360   0.639  12.821  0.6378  0.1888  0.3502
 7918TIP3   OH245168   4.453   2.004  13.986  0.1518 -0.2887  0.4344
 7918TIP3    H145169   4.515   1.985  14.056 -0.8426  0.8192  1.6960
 7918TIP3    H245170   4.465   2.097  13.968 -0.9544 -0.0989  0.5608
 7919TIP3   OH245171   6.434   6.647   1.268 -0.0484 -0.1568  0.5058
 7919TIP3    H145172   6.462   6.693   1.347 -0.2242  0.9535 -0.0652
 7919TIP3    H245173   6.493   6.571   1.262 -0.2188 -0.4091  1.8406
 7920TIP3   OH245174   1.719   3.403  15.571 -0.6158  0.0421 -0.1813
 7920TIP3    H145175   1.700   3.495  15.589 -0.2349 -0.0118  0.5226
 7920TIP3    H245176   1.801   3.386  15.617  0.6248 -0.0081 -2.2933
 7921TIP3   OH245177   3.945   3.977  16.352  0.4969 -0.2856 -0.2708
 7921TIP3    H145178   3.969   3.894  16.311  0.9516 -0.2447 -0.0926
 7921TIP3    H245179   3.946   4.041  16.280 -1.5945 -0.7364 -0.7744
 7922TIP3   OH245180   3.544   4.861  16.689  0.0244  0.5679 -0.3124
 7922TIP3    H145181   3.507   4.773  16.688  0.4415  0.3815  0.0995
 7922TIP3    H245182   3.488   4.912  16.630 -1.3391  0.4891  0.8567
 7923TIP3   OH245183   3.663   2.317   5.425  0.9903 -0.5969  0.1338
 7923TIP3    H145184   3.603   2.382   5.459 -0.6290 -1.5451 -0.8050
 7923TIP3    H245185   3.683   2.346   5.336  1.8206 -0.3664  0.3880
 7924TIP3   OH245186   3.623   2.356  12.803 -0.3454  0.0981 -0.4076
 7924TIP3    H145187   3.609   2.261  12.803 -1.1134  0.1794  0.8401
 7924TIP3    H245188   3.535   2.393  12.813  0.0699  0.8854  0.5134
 7925TIP3   OH245189   3.143   5.175   0.580  0.0701  0.5141 -0.2233
 7925TIP3    H145190   3.186   5.184   0.664 -1.2301  0.6843  0.4579
 7925TIP3    H245191   3.195   5.227   0.519  1.4380 -0.2081  0.3007
 7926TIP3   OH245192   3.829   0.212   5.969  0.8929 -0.3632 -0.2568
 7926TIP3    H145193   3.889   0.264   6.023 -0.3495  2.5464 -1.4785
 7926TIP3    H245194   3.783   0.156   6.032  1.3432  1.0196  1.3909
 7927TIP3   OH245195   4.430   0.596   2.005  1.2958  0.0552 -0.2719
 7927TIP3    H145196   4.353   0.590   1.949  1.5155 -2.0123 -0.4330
 7927TIP3    H245197   4.410   0.538   2.079  2.1559  0.5215  0.3377
 7928TIP3   OH245198   5.525   3.384  13.293  0.4942 -0.1899 -0.3213
 7928TIP3    H145199   5.444   3.348  13.328 -0.0805 -0.5803 -1.9733
 7928TIP3    H245200   5.498   3.461  13.244  1.4702  1.2839  1.3664
 7929TIP3   OH245201   5.841   1.966  12.318  0.7568  0.3691 -0.4011
 7929TIP3    H145202   5.855   1.873  12.302  1.5015  0.4062  0.0006
 7929TIP3    H245203   5.763   1.969  12.374 -1.0920  0.1700 -2.7675
 7930TIP3   OH245204   1.378   4.469   2.163 -0.1301 -1.2867 -0.0723
 7930TIP3    H145205   1.327   4.454   2.243 -0.8584 -0.4651 -0.3583
 7930TIP3    H245206   1.441   4.537   2.187 -1.5535  0.3113 -0.6373
 7931TIP3   OH245207   5.773   3.611   6.074  0.0485 -0.0515  0.2218
 7931TIP3    H145208   5.800   3.532   6.119 -0.3036 -0.0967  0.3546
 7931TIP3    H245209   5.823   3.681   6.115  0.1570 -0.1690  0.2885
 7932TIP3   OH245210   6.757   6.300   0.811 -0.0450  0.0377  0.0536
 7932TIP3    H145211   6.816   6.351   0.756 -0.4235  0.7798  0.3250
 7932TIP3    H245212   6.670   6.318   0.777 -0.2493  0.1935  0.6446
 7933TIP3   OH245213   5.709   2.730  16.915  0.1709 -0.6194  0.2225
 7933TIP3    H145214   5.767   2.792  16.958  1.1877  0.2441 -2.1816
 7933TIP3    H245215   5.636   2.784  16.883  0.5268 -0.7955 -0.9503
 7934TIP3   OH245216   5.077   0.783   6.030 -0.1255 -0.2142  0.6977
 7934TIP3    H145217   5.036   0.866   6.056 -1.8834  0.6128 -3.8638
 7934TIP3    H245218   5.014   0.716   6.058 -0.4605  0.2999  1.2021
 7935TIP3   OH245219   6.771   2.936   1.953  0.1263  0.5271 -0.6277
 7935TIP3    H145220   6.722   2.988   2.016  1.3646  0.6652  0.2408
 7935TIP3    H245221   6.843   2.898   2.003  1.0573  0.5271 -1.9177
 7936TIP3   OH245222   2.883   1.399  11.778  0.3946  0.2497  0.4709
 7936TIP3    H145223   2.788   1.398  11.791  0.2808  0.5660 -0.2799
 7936TIP3    H245224   2.904   1.490  11.759  0.4169 -0.2162 -2.1686
 7937TIP3   OH245225   2.996   4.151   3.504  0.2760 -0.3872  0.8486
 7937TIP3    H145226   3.055   4.088   3.546 -0.0361 -0.2067  1.5728
 7937TIP3    H245227   3.053   4.205   3.449  0.7334 -0.4372  1.2672
 7938TIP3   OH245228   0.481   1.120  12.826  0.3431  0.2942 -0.4878
 7938TIP3    H145229   0.559   1.065  12.818 -0.8554 -1.4782 -0.5753
 7938TIP3    H245230   0.428   1.097  12.749 -0.5190  1.0634 -0.1363
 7939TIP3   OH245231   3.265   5.112  12.340 -0.2806 -0.2772 -0.6502
 7939TIP3    H145232   3.224   5.197  12.353  1.5918  0.8021 -1.4300
 7939TIP3    H245233   3.201   5.049  12.374 -1.6232  1.4284  0.1346
 7940TIP3   OH245234   4.883   4.413  12.475  0.3271  0.2892 -0.0949
 7940TIP3    H145235   4.810   4.388  12.418  0.1225 -0.1264  0.3460
 7940TIP3    H245236   4.904   4.502  12.448  0.4303 -0.0083 -1.0269
 7941TIP3   OH245237   1.685   1.876   4.523  0.2119 -0.2140  0.0383
 7941TIP3    H145238   1.753   1.852   4.460  0.0441  0.1678 -0.2933
 7941TIP3    H245239   1.713   1.961   4.558 -0.3373  0.1807 -0.4601
 7942TIP3   OH245240   5.461   4.909  13.620 -0.0483 -0.6374  0.1641
 7942TIP3    H145241   5.389   4.866  13.668 -1.0543  2.0884  1.2902
 7942TIP3    H245242   5.482   4.986  13.673  1.5367  0.3598 -1.8011
 7943TIP3   OH245243   1.616   5.847  13.565 -0.2537 -0.4491 -0.8504
 7943TIP3    H145244   1.644   5.872  13.652 -2.3184  0.5016 -0.3957
 7943TIP3    H245245   1.611   5.751  13.567 -1.6194 -0.3872  0.5718
 7944TIP3   OH245246   4.989   0.290  13.182  0.1346 -0.8450  0.0119
 7944TIP3    H145247   5.021   0.284  13.272  0.8468 -0.0526 -0.1771
 7944TIP3    H245248   5.062   0.327  13.133 -0.8982  0.5524 -0.5360
 7945TIP3   OH245249   5.116   3.363  11.963 -0.4419 -0.4459 -0.8083
 7945TIP3    H145250   5.133   3.416  11.885 -2.0987 -1.4632 -1.9288
 7945TIP3    H245251   5.116   3.425  12.035  0.4905  0.6223 -1.6774
 7946TIP3   OH245252   4.689   1.592  11.686 -0.1414  0.2844 -0.2181
 7946TIP3    H145253   4.760   1.528  11.689 -0.2839 -0.0633 -2.3640
 7946TIP3    H245254   4.617   1.545  11.644 -0.5587  1.5585 -0.9786
 7947TIP3   OH245255   1.389   1.589   5.224  0.6490  0.1274 -0.1083
 7947TIP3    H145256   1.339   1.550   5.295 -1.0751  2.3593  0.0339
 7947TIP3    H245257   1.351   1.552   5.144  2.5606 -2.3484  0.0196
 7948TIP3   OH245258   1.121   5.196   4.035  0.0506  0.2407 -0.1964
 7948TIP3    H145259   1.182   5.126   4.011  0.8654  1.1768 -0.9153
 7948TIP3    H245260   1.038   5.150   4.048  1.0334 -1.1686  1.5457
 7949TIP3   OH245261   2.272   4.470  14.366  0.0510 -0.4650 -0.6411
 7949TIP3    H145262   2.305   4.385  14.395  0.4110 -0.1811 -0.2128
 7949TIP3    H245263   2.331   4.495  14.295  2.5568  1.2853  1.8398
 7950TIP3   OH245264   6.488   6.624  12.944  1.1428 -0.2348 -0.4192
 7950TIP3    H145265   6.537   6.610  13.025 -0.5310  1.4075  0.9822
 7950TIP3    H245266   6.440   6.543  12.930 -0.2449  0.1993  1.5252
 7951TIP3   OH245267   6.498   1.637   3.126 -0.2907  0.2145  0.3126
 7951TIP3    H145268   6.436   1.586   3.074 -0.8287  1.8788 -0.7600
 7951TIP3    H245269   6.554   1.681   3.061  1.8004 -0.9133  1.2413
 7952TIP3   OH245270   4.809   2.089   3.409  0.0781 -0.0473  0.3836
 7952TIP3    H145271   4.762   2.101   3.327  0.2893 -1.9469 -0.0414
 7952TIP3    H245272   4.744   2.053   3.469  0.1972  0.3435  0.7574
 7953TIP3   OH245273   3.405   5.777  16.786 -0.1028  0.4090 -0.3099
 7953TIP3    H145274   3.334   5.834  16.757 -0.5978  0.0165  0.1176
 7953TIP3    H245275   3.363   5.694  16.808  0.6246 -0.1691 -1.0342
 7954TIP3   OH245276   3.795   4.054   1.122 -0.2055 -0.4446  0.6241
 7954TIP3    H145277   3.814   3.969   1.162 -2.7482 -0.5082  1.9579
 7954TIP3    H245278   3.757   4.105   1.194 -0.4806  1.1401 -0.6106
 7955TIP3   OH245279   5.174   5.898   2.753  0.5961 -0.1047  0.8082
 7955TIP3    H145280   5.080   5.890   2.741  0.6486  0.4429 -0.0396
 7955TIP3    H245281   5.203   5.956   2.682  1.6728 -0.8686  0.5962
 7956TIP3   OH245282   4.407   0.594   5.105 -0.0804  0.2416  0.1932
 7956TIP3    H145283   4.434   0.686   5.094  0.1814  0.1336 -0.0477
 7956TIP3    H245284   4.471   0.558   5.166  0.3561 -0.0301 -0.4233
 7957TIP3   OH245285   4.174   4.774   6.775  0.2247 -0.0266  0.3390
 7957TIP3    H145286   4.095   4.829   6.777  0.7006  0.6929 -0.1237
 7957TIP3    H245287   4.149   4.695   6.823 -0.5783  0.4578  0.7497
 7958TIP3   OH245288   5.800   0.771   0.445  0.1031 -0.3071  0.0990
 7958TIP3    H145289   5.828   0.861   0.437 -0.5998 -0.0892 -0.0122
 7958TIP3    H245290   5.853   0.723   0.381 -0.1387  0.1735 -0.4721
 7959TIP3   OH245291   2.553   1.897  11.308 -0.8821 -0.0803 -0.4672
 7959TIP3    H145292   2.638   1.935  11.285 -1.3121  2.3363  1.5888
 7959TIP3    H245293   2.517   1.868  11.224  1.6377 -0.5908 -1.4749
 7960TIP3   OH245294   1.526   2.070  13.409  0.0644 -0.2943  0.2682
 7960TIP3    H145295   1.434   2.049  13.425  0.1015  0.3802  1.5009
 7960TIP3    H245296   1.524   2.132  13.336 -0.1752 -2.7769 -2.0092
 7961TIP3   OH245297   2.370   4.051  13.375 -0.4818  0.4296 -0.4270
 7961TIP3    H145298   2.442   4.036  13.315 -0.6934 -2.4066 -0.1039
 7961TIP3    H245299   2.299   4.085  13.321  0.2606  0.7371 -1.2129
 7962TIP3   OH245300   2.645   1.849   6.152 -0.0201  0.3940 -0.0897
 7962TIP3    H145301   2.700   1.869   6.077  1.1388  2.1064  1.1446
 7962TIP3    H245302   2.707   1.829   6.223 -1.0801 -2.4283  0.1868
 7963TIP3   OH245303   3.077   4.858  12.318  0.2099 -0.4214 -0.1784
 7963TIP3    H145304   3.140   4.818  12.259 -1.1012 -2.5114 -0.2584
 7963TIP3    H245305   2.994   4.856  12.271 -0.3593  0.2201  0.7546
 7964TIP3   OH245306   4.332   0.223   1.653 -0.3237 -0.6029 -0.4675
 7964TIP3    H145307   4.276   0.238   1.730 -0.1898 -0.4945 -0.3905
 7964TIP3    H245308   4.299   0.141   1.616 -0.4581 -0.6012 -0.3551
 7965TIP3   OH245309   2.855   3.298  13.592  0.3289  0.0812 -0.1421
 7965TIP3    H145310   2.904   3.328  13.669 -0.6409 -1.0548  0.9468
 7965TIP3    H245311   2.915   3.239  13.547  0.5776  0.0427  0.2365
 7966TIP3   OH245312   2.842   5.119  15.461 -0.1703  0.0760  0.3087
 7966TIP3    H145313   2.817   5.029  15.484 -0.1342  0.1847  0.7904
 7966TIP3    H245314   2.862   5.160  15.545  1.2339  0.1111 -0.0162
 7967TIP3   OH245315   2.709   6.552   5.627  0.8509  0.1756  0.1528
 7967TIP3    H145316   2.668   6.469   5.651 -1.3051  1.2849  0.6147
 7967TIP3    H245317   2.695   6.609   5.703 -0.7479  1.9257 -1.3299
 7968TIP3   OH245318   1.914   2.970   2.740  0.0825  0.5995  0.1451
 7968TIP3    H145319   1.828   3.001   2.712  0.1957  0.4864 -0.3298
 7968TIP3    H245320   1.927   2.889   2.692 -0.2187 -0.2148  1.3905
 7969TIP3   OH245321   1.376   4.505  15.563  0.1698  0.1520  0.8538
 7969TIP3    H145322   1.462   4.548  15.560 -0.7101  1.9475 -0.8728
 7969TIP3    H245323   1.386   4.426  15.511  0.1199  1.8098 -1.8503
 7970TIP3   OH245324   4.452   0.683  13.146  0.1389  0.3303  0.7589
 7970TIP3    H145325   4.481   0.656  13.233 -0.0511 -0.1832  0.6633
 7970TIP3    H245326   4.362   0.651  13.139  0.0845  0.5454  0.4487
 7971TIP3   OH245327   2.608   2.037  14.605  0.3441 -0.3460 -0.4102
 7971TIP3    H145328   2.606   2.021  14.510  0.1441 -0.3878 -0.3993
 7971TIP3    H245329   2.683   2.094  14.618  0.2307 -0.1451 -0.6268
 7972TIP3   OH245330   6.756   5.181  14.313  0.1591  0.1811 -0.5710
 7972TIP3    H145331   6.763   5.252  14.376  3.4294 -0.8695  0.4312
 7972TIP3    H245332   6.671   5.141  14.332  0.4338  0.7421  2.3018
 7973TIP3   OH245333   3.114   3.729  12.497 -0.5269 -1.0571 -0.2164
 7973TIP3    H145334   3.058   3.769  12.430 -0.4120 -0.8315 -0.1770
 7973TIP3    H245335   3.054   3.674  12.548 -0.3574 -2.3698 -1.3872
 7974TIP3   OH245336   6.540   0.143   0.800  0.1051  0.4621  0.1251
 7974TIP3    H145337   6.504   0.229   0.822 -0.0812  0.0272  1.6788
 7974TIP3    H245338   6.465   0.092   0.769  0.1251  0.7207 -0.3427
 7975TIP3   OH245339   1.397   3.459   2.470 -0.2296 -0.5067  0.1788
 7975TIP3    H145340   1.405   3.526   2.403 -0.1326 -0.0928  0.6042
 7975TIP3    H245341   1.361   3.383   2.423  0.6320 -0.5003 -0.5169
 7976TIP3   OH245342   0.458   3.261   5.511  0.0986  0.2175 -0.4132
 7976TIP3    H145343   0.519   3.333   5.497 -0.5497  0.8100 -0.2112
 7976TIP3    H245344   0.446   3.258   5.606  0.9896 -0.8895 -0.3064
 7977TIP3   OH245345   1.085   0.547   5.123  0.1994 -0.3508 -0.0427
 7977TIP3    H145346   1.030   0.470   5.108 -1.9870  1.0980  0.1765
 7977TIP3    H245347   1.096   0.585   5.036 -1.1302  0.6211  0.1901
 7978TIP3   OH245348   4.155   1.739  10.905 -0.3015 -0.5794  0.4172
 7978TIP3    H145349   4.157   1.663  10.848 -0.5835  1.9279 -3.3217
 7978TIP3    H245350   4.240   1.782  10.891 -0.9361  0.8660  0.7609
 7979TIP3   OH245351   2.712   4.098   3.043  0.0891 -0.0968  0.0962
 7979TIP3    H145352   2.782   4.113   3.106 -1.1420  0.7941  1.3240
 7979TIP3    H245353   2.642   4.157   3.071 -0.2808  0.8419 -2.5331
 7980TIP3   OH245354   5.043   1.231   2.255 -0.6492  0.2657 -0.1249
 7980TIP3    H145355   5.001   1.296   2.311  0.7830  1.4874 -0.3954
 7980TIP3    H245356   5.082   1.282   2.184  0.4524 -0.8912 -0.3934
 7981TIP3   OH245357   6.572   5.965   4.533 -0.2386  0.1662  0.0680
 7981TIP3    H145358   6.552   5.905   4.461  0.4359 -0.0505  0.0632
 7981TIP3    H245359   6.602   6.045   4.490 -1.1403  0.5291  0.0740
 7982TIP3   OH245360   5.081   5.255  13.846  0.0919  0.1095  0.2364
 7982TIP3    H145361   5.146   5.325  13.847  1.7425 -1.3593 -0.3298
 7982TIP3    H245362   5.098   5.205  13.926 -0.5937 -0.0776  0.2734
 7983TIP3   OH245363   0.984   3.558   4.912  0.1530 -0.0614  0.1334
 7983TIP3    H145364   1.033   3.639   4.926  0.9835 -0.1788 -1.8391
 7983TIP3    H245365   1.012   3.501   4.983  0.9987  0.7234  0.4504
 7984TIP3   OH245366   4.074   6.337   2.907 -0.2908 -0.7092 -0.3284
 7984TIP3    H145367   4.144   6.312   2.847  0.6971  1.6945 -0.2705
 7984TIP3    H245368   4.106   6.311   2.993 -0.6508 -1.9772 -0.5614
 7985TIP3   OH245369   4.882   6.653   1.455  0.6002  0.0952 -0.1975
 7985TIP3    H145370   4.794   6.631   1.426  1.3204 -0.5088 -2.0931
 7985TIP3    H245371   4.884   6.749   1.460  0.3730  0.2183 -2.0487
 7986TIP3   OH245372   4.656   1.032  14.897 -0.2129 -0.3676 -0.0156
 7986TIP3    H145373   4.609   0.978  14.834  0.2273 -0.3016 -0.4022
 7986TIP3    H245374   4.687   0.970  14.964 -0.1389 -0.5273 -0.1965
 7987TIP3   OH245375   5.326   4.915  16.002 -0.2867  0.5625  0.1424
 7987TIP3    H145376   5.325   4.822  15.980 -0.6740  0.8878 -1.3102
 7987TIP3    H245377   5.234   4.938  16.013 -0.1119  0.4022  2.3064
 7988TIP3   OH245378   3.446   2.809  14.229 -0.0965 -0.7400  0.5038
 7988TIP3    H145379   3.438   2.870  14.156 -1.5061 -0.6935  0.6606
 7988TIP3    H245380   3.528   2.763  14.213  0.1399  0.0008 -0.5393
 7989TIP3   OH245381   3.321   0.917   4.996  0.3891  0.0785  0.2202
 7989TIP3    H145382   3.258   0.847   4.978 -0.7973  1.3617 -0.8339
 7989TIP3    H245383   3.340   0.955   4.911  2.1243  0.1514  0.6118
 7990TIP3   OH245384   2.026   5.390  15.140  0.1348  0.2486  0.0565
 7990TIP3    H145385   2.069   5.353  15.217  0.5263 -0.3182 -0.4351
 7990TIP3    H245386   2.087   5.456  15.108 -0.2730  0.8858  0.5418
 7991TIP3   OH245387   2.171   3.708  11.110 -0.0649 -0.1252  0.4721
 7991TIP3    H145388   2.251   3.734  11.065  0.0319 -2.9058 -1.2151
 7991TIP3    H245389   2.103   3.762  11.070  0.7216  1.2458  0.9013
 7992TIP3   OH245390   5.910   5.101  15.502  0.3128  0.0115  0.5119
 7992TIP3    H145391   5.941   5.122  15.414 -0.7511 -0.3282  0.0429
 7992TIP3    H245392   5.960   5.159  15.559  1.2376  0.0252 -0.2789
 7993TIP3   OH245393   4.300   4.015  11.352 -0.3455  0.1897  0.4465
 7993TIP3    H145394   4.301   4.049  11.262 -1.7119 -0.3756  0.2022
 7993TIP3    H245395   4.326   3.923  11.342 -2.3979 -0.4152  0.3608
 7994TIP3   OH245396   3.069   2.261   4.060  0.4782 -0.1159  0.2853
 7994TIP3    H145397   3.151   2.261   4.010  0.9603 -2.0926  0.9854
 7994TIP3    H245398   3.015   2.195   4.016 -0.1665  0.1277  0.7088
 7995TIP3   OH245399   1.830   4.654  13.342 -0.3165 -0.1106  0.2294
 7995TIP3    H145400   1.734   4.646  13.343 -0.4383  1.0374  1.3308
 7995TIP3    H245401   1.846   4.746  13.321  0.4255  0.4177  2.7555
 7996TIP3   OH245402   6.408   5.718  10.727  0.1414 -0.3106 -0.0965
 7996TIP3    H145403   6.365   5.792  10.685  0.2331  0.5716  1.3326
 7996TIP3    H245404   6.494   5.751  10.752  0.4356 -1.1037 -0.0301
 7997TIP3   OH245405   4.258   4.118  14.274  0.0170 -0.0983 -0.2409
 7997TIP3    H145406   4.287   4.071  14.196  1.8297  0.2997  0.1501
 7997TIP3    H245407   4.170   4.148  14.252 -0.2358 -1.5723 -1.4114
 7998TIP3   OH245408   1.313   5.145  12.448 -0.0161  0.5801  0.4775
 7998TIP3    H145409   1.366   5.158  12.527  1.6579  0.5761 -0.5961
 7998TIP3    H245410   1.270   5.060  12.461  0.0954  0.6665  1.4525
 7999TIP3   OH245411   5.139   3.126  11.166  0.0900 -0.5212 -0.3424
 7999TIP3    H145412   5.208   3.121  11.233  0.8844 -0.1276 -1.1063
 7999TIP3    H245413   5.078   3.056  11.190  1.8251 -2.2907 -0.8120
 8000TIP3   OH245414   3.918   4.941   4.506 -0.1245 -0.2735 -0.1805
 8000TIP3    H145415   3.879   4.971   4.423  2.5268  1.9417 -0.7531
 8000TIP3    H245416   3.876   4.995   4.573 -0.7996 -0.6382 -0.2988
 8001TIP3   OH245417   2.039   0.877  13.987  0.5972  0.0210 -0.2480
 8001TIP3    H145418   2.061   0.802  14.043  0.7990  0.3046  0.0554
 8001TIP3    H245419   2.087   0.950  14.025 -0.2261  0.4788 -0.0582
 8002TIP3   OH245420   2.193   6.149  16.418  1.0893  0.4870 -0.0132
 8002TIP3    H145421   2.181   6.176  16.327  1.8467  0.5156 -0.1124
 8002TIP3    H245422   2.218   6.056  16.412 -1.0483 -0.1769  0.2961
 8003TIP3   OH245423   5.131   4.080   1.116  0.2480  0.0615 -0.3990
 8003TIP3    H145424   5.104   3.997   1.077  1.0557  0.2561 -1.4186
 8003TIP3    H245425   5.050   4.131   1.123 -0.2551 -0.8157  0.2674
 8004TIP3   OH245426   0.338   6.369  15.264  0.5049  0.4996 -0.2793
 8004TIP3    H145427   0.302   6.351  15.351  0.9321 -1.5134 -0.4849
 8004TIP3    H245428   0.417   6.420  15.281 -0.8359  2.5115  0.3181
 8005TIP3   OH245429   3.614   5.822  13.566 -0.3239 -0.7985 -0.0823
 8005TIP3    H145430   3.572   5.814  13.651  1.2188  0.2277  0.8314
 8005TIP3    H245431   3.596   5.912  13.539  2.2147  0.1024  0.9248
 8006TIP3   OH245432   0.576   3.606   2.244 -0.7092 -0.1205  0.9900
 8006TIP3    H145433   0.653   3.662   2.257  0.8840 -1.8563 -0.5385
 8006TIP3    H245434   0.587   3.536   2.308 -0.3523 -1.0211 -0.0423
 8007TIP3   OH245435   3.858   3.826   2.473  0.3571 -0.1996  0.0726
 8007TIP3    H145436   3.786   3.824   2.410 -0.1086 -0.4879  0.6062
 8007TIP3    H245437   3.847   3.910   2.519  0.2256 -0.3467  0.3102
 8008TIP3   OH245438   5.647   0.130   1.014  0.7311 -0.1622  0.1531
 8008TIP3    H145439   5.719   0.090   1.062  0.8049  0.0747  0.2378
 8008TIP3    H245440   5.591   0.056   0.988  1.4173 -0.4332 -0.5997
 8009TIP3   OH245441   1.681   4.549   2.475  0.7781  0.0231 -0.7199
 8009TIP3    H145442   1.629   4.599   2.412  0.1547  1.1020  0.6113
 8009TIP3    H245443   1.676   4.458   2.444  3.3822  0.8497 -4.2073
 8010TIP3   OH245444   4.817   2.279  12.770  0.1103 -0.1127  0.1668
 8010TIP3    H145445   4.888   2.238  12.722 -1.3752 -0.4595 -1.9042
 8010TIP3    H245446   4.748   2.213  12.772 -1.7970  1.5916 -1.9443
 8011TIP3   OH245447   4.823   4.312   4.398  0.2888 -0.3333  0.7584
 8011TIP3    H145448   4.774   4.234   4.423 -1.0124  0.2201  0.0624
 8011TIP3    H245449   4.772   4.385   4.435  0.9715  0.2303  0.6110
 8012TIP3   OH245450   6.727   0.266  11.508  0.7261 -0.6370  0.6154
 8012TIP3    H145451   6.654   0.263  11.446  1.3402  1.6788 -0.3318
 8012TIP3    H245452   6.803   0.237  11.458  0.7287 -1.5986  1.1633
 8013TIP3   OH245453   1.163   1.653  13.139 -0.2494  0.0480  0.1687
 8013TIP3    H145454   1.182   1.562  13.160  0.0696  0.5878  2.3983
 8013TIP3    H245455   1.087   1.675  13.192  1.0997  1.7150  1.5315
 8014TIP3   OH245456   4.558   5.712   1.835 -0.6558  0.1924  0.2937
 8014TIP3    H145457   4.549   5.660   1.755  1.9923  1.2764 -0.8465
 8014TIP3    H245458   4.594   5.651   1.899 -0.7819 -0.1845  0.0106
 8015TIP3   OH245459   4.219   2.901   2.378  0.2554 -0.2888 -0.7206
 8015TIP3    H145460   4.182   2.982   2.343  0.3554 -0.0265 -0.2204
 8015TIP3    H245461   4.142   2.845   2.393  0.0450  0.2366  0.2657
 8016TIP3   OH245462   0.926   0.156  11.030  0.1339  0.6273  0.1490
 8016TIP3    H145463   0.940   0.193  10.943  1.1563 -0.4094 -0.1676
 8016TIP3    H245464   1.007   0.174  11.077  0.7266 -1.2194 -0.0612
 8017TIP3   OH245465   6.648   2.004  13.251  0.4028 -0.0698  0.1879
 8017TIP3    H145466   6.649   1.956  13.168  1.1449 -2.5781  1.5435
 8017TIP3    H245467   6.735   2.045  13.256 -0.0074  0.9451 -0.6938
 8018TIP3   OH245468   3.762   2.929  10.918 -0.2107 -0.1897  0.3009
 8018TIP3    H145469   3.735   2.929  10.826 -1.3548 -1.9930  0.5983
 8018TIP3    H245470   3.814   2.849  10.928 -0.8852 -0.5051  1.4308
 8019TIP3   OH245471   6.692   6.079  17.189  0.6648  0.0337  0.5133
 8019TIP3    H145472   6.680   6.173  17.185 -0.7248 -0.1189  0.6577
 8019TIP3    H245473   6.758   6.066  17.258  0.7015  0.8712  0.6439
 8020TIP3   OH245474   0.673   5.684  17.221  0.4665  0.9405 -0.0891
 8020TIP3    H145475   0.606   5.626  17.185 -0.2036  1.3432  0.4875
 8020TIP3    H245476   0.749   5.671  17.164  0.2589 -0.3191 -0.1077
 8021TIP3   OH245477   3.410   0.591  13.555 -0.6906 -0.4184 -0.1892
 8021TIP3    H145478   3.480   0.537  13.518  1.0362  1.5227  0.0543
 8021TIP3    H245479   3.398   0.557  13.643  0.2830 -0.5250 -0.0823
 8022TIP3   OH245480   3.967   2.988   4.259 -0.5282 -0.0265  0.2121
 8022TIP3    H145481   4.046   3.035   4.232 -2.3007  1.7283 -2.3927
 8022TIP3    H245482   3.932   3.039   4.333 -1.2180  1.5196 -1.1316
 8023TIP3   OH245483   3.239   5.387  15.467 -0.2742 -0.0846 -0.4226
 8023TIP3    H145484   3.289   5.426  15.396 -2.3833 -0.3221 -2.1464
 8023TIP3    H245485   3.299   5.386  15.542  0.9292  3.4970 -1.1477
 8024TIP3   OH245486   3.879   0.119   3.963 -0.0362  0.2331 -0.5183
 8024TIP3    H145487   3.900   0.174   3.888 -1.1822  0.6911 -0.5208
 8024TIP3    H245488   3.825   0.175   4.020  0.8258 -0.0912  0.6641
 8025TIP3   OH245489   0.925   4.366   1.995 -0.1693  0.4963 -0.1738
 8025TIP3    H145490   0.873   4.292   1.964 -0.9567  1.0672 -0.2452
 8025TIP3    H245491   0.887   4.442   1.951  1.2113  0.8507 -0.8264
 8026TIP3   OH245492   5.023   4.401  15.038 -0.1962  0.1983 -0.2809
 8026TIP3    H145493   4.982   4.449  15.110 -1.5269 -0.6650 -0.4246
 8026TIP3    H245494   5.055   4.321  15.080  1.5951  0.9573 -0.1288
 8027TIP3   OH245495   1.444   5.080   4.462  0.5346  0.4449  0.4103
 8027TIP3    H145496   1.520   5.088   4.519  0.9239  0.6788 -0.1368
 8027TIP3    H245497   1.383   5.147   4.494  0.9225  0.8600  0.2818
 8028TIP3   OH245498   6.642   5.940  13.914  0.2016  0.2192 -0.3635
 8028TIP3    H145499   6.605   5.852  13.920  0.6550  0.1328  1.7933
 8028TIP3    H245500   6.737   5.925  13.911  0.3275  0.4993 -4.6256
 8029TIP3   OH245501   3.489   5.483   2.755 -0.6910  0.4442 -0.9439
 8029TIP3    H145502   3.527   5.531   2.681 -0.7325 -1.7618 -2.4702
 8029TIP3    H245503   3.482   5.393   2.725 -3.2986 -0.0438  0.7803
 8030TIP3   OH245504   4.021   6.411   3.626  0.1188 -0.1686  0.3803
 8030TIP3    H145505   4.090   6.461   3.669 -1.0538  1.4632  0.4991
 8030TIP3    H245506   4.038   6.423   3.532  0.9874 -1.2644  0.3807
 8031TIP3   OH245507   4.351   3.898   1.023 -0.8181 -0.2821  0.4113
 8031TIP3    H145508   4.434   3.900   1.071  0.2871  3.6315 -1.2283
 8031TIP3    H245509   4.375   3.868   0.935 -1.6677 -1.5489  0.5937
 8032TIP3   OH245510   3.748   2.410  12.441 -0.2860 -0.1702 -0.2539
 8032TIP3    H145511   3.720   2.406  12.532 -0.3696 -0.4536 -0.2897
 8032TIP3    H245512   3.795   2.493  12.433  0.2874 -0.4415  0.2095
 8033TIP3   OH245513   0.558   4.961  13.797  0.0632 -0.1792  0.3861
 8033TIP3    H145514   0.563   4.909  13.878 -0.3780  0.1115  0.6023
 8033TIP3    H245515   0.640   5.010  13.795  1.6632 -2.6927 -1.0747
 8034TIP3   OH245516   6.585   1.481   3.679 -0.0394 -0.4447 -0.5458
 8034TIP3    H145517   6.562   1.400   3.633  2.3024 -0.5702 -1.6156
 8034TIP3    H245518   6.602   1.544   3.609  0.3887  0.3311  0.2443
 8035TIP3   OH245519   3.960   3.069  15.230  0.5020  0.2420 -0.6374
 8035TIP3    H145520   3.905   3.133  15.184  0.0927 -0.4564 -1.1399
 8035TIP3    H245521   3.904   2.993  15.241  1.1715 -0.2533 -0.5933
 8036TIP3   OH245522   3.480   4.522   2.308 -0.0675 -0.3876  0.4529
 8036TIP3    H145523   3.440   4.512   2.222 -0.5692 -1.9568  0.8206
 8036TIP3    H245524   3.419   4.578   2.356  1.1478  2.0769 -0.7301
 8037TIP3   OH245525   4.818   5.451  15.056 -0.2103  0.0464 -0.8262
 8037TIP3    H145526   4.905   5.486  15.075  0.8266 -1.3874 -2.5938
 8037TIP3    H245527   4.793   5.403  15.135  0.3404  0.9334 -0.0980
 8038TIP3   OH245528   2.053   1.004  15.890 -0.4331  0.0116 -0.4379
 8038TIP3    H145529   1.990   0.946  15.933  0.6896 -0.4527  0.6479
 8038TIP3    H245530   2.036   0.993  15.796  0.2125 -2.6524 -0.3236
 8039TIP3   OH245531   4.584   0.639  15.235 -0.0875 -0.1167 -0.1953
 8039TIP3    H145532   4.515   0.574  15.249 -0.2678 -0.0002 -0.5499
 8039TIP3    H245533   4.578   0.662  15.143 -0.5288  0.9615  0.0755
 8040TIP3   OH245534   6.229   0.348  10.784  0.1222  0.0617 -0.0161
 8040TIP3    H145535   6.288   0.323  10.713 -0.3856  1.4377 -0.9577
 8040TIP3    H245536   6.148   0.300  10.765  0.3268 -0.4056  0.2583
 8041TIP3   OH245537   5.750   3.164  11.429  0.2464 -0.2608  0.1324
 8041TIP3    H145538   5.841   3.194  11.431  0.4464 -0.8731  1.9198
 8041TIP3    H245539   5.700   3.242  11.402  1.1209  0.6666  1.0800
 8042TIP3   OH245540   3.588   0.044   0.123 -0.8561 -0.0523 -0.1275
 8042TIP3    H145541   3.614   0.079   0.038  1.5248 -0.2858  0.4456
 8042TIP3    H245542   3.544   0.117   0.166  0.1452  0.8750 -0.6170
 8043TIP3   OH245543   0.120   1.305   4.980  0.7797  0.5976 -0.3023
 8043TIP3    H145544   0.034   1.323   5.019  1.3783  2.2128  0.3791
 8043TIP3    H245545   0.173   1.273   5.054  1.2135  1.2314 -0.3277
 8044TIP3   OH245546   6.715   6.133  12.018 -0.4904  0.1577  0.0754
 8044TIP3    H145547   6.666   6.138  12.100 -1.6441  0.6338 -0.6206
 8044TIP3    H245548   6.649   6.118  11.951  0.0440  2.6139 -1.1262
 8045TIP3   OH245549   4.556   6.773  12.253 -0.3734  0.0557  0.4208
 8045TIP3    H145550   4.467   6.741  12.235 -1.0571  2.0978 -0.1901
 8045TIP3    H245551   4.566   6.848  12.194  1.1157  0.9171  1.7057
 8046TIP3   OH245552   3.300   4.476  16.760 -0.7455 -0.1285  0.5343
 8046TIP3    H145553   3.330   4.567  16.759 -0.8007 -0.0843 -1.5724
 8046TIP3    H245554   3.205   4.482  16.771 -0.8207  0.1094 -0.2058
 8047TIP3   OH245555   0.945   4.925   0.340  0.5450 -0.2528 -0.3769
 8047TIP3    H145556   1.038   4.921   0.363  0.3766  1.3148  0.7342
 8047TIP3    H245557   0.933   4.854   0.277  2.1511 -1.5084  0.6429
 8048TIP3   OH245558   0.346   2.355  12.331 -0.4395 -0.1610 -0.4427
 8048TIP3    H145559   0.351   2.260  12.346 -1.6745 -0.3479 -1.0960
 8048TIP3    H245560   0.430   2.377  12.291  1.1176 -0.4183  2.3819
 8049TIP3   OH245561   3.254   0.251  11.033  0.3278  0.2579 -0.2765
 8049TIP3    H145562   3.310   0.316  10.990 -0.3638 -0.0528 -1.7261
 8049TIP3    H245563   3.300   0.229  11.113  2.5881 -0.4147 -1.6671
 8050TIP3   OH245564   0.289   3.409  14.500 -0.2585  0.3950 -0.3467
 8050TIP3    H145565   0.329   3.494  14.483 -0.6133  0.3907 -1.3140
 8050TIP3    H245566   0.335   3.348  14.442 -0.0545 -0.0600  0.2853
 8051TIP3   OH245567   5.420   2.710   1.107  0.0435  0.3365 -0.1308
 8051TIP3    H145568   5.387   2.667   1.185  0.5528 -0.7051 -0.4770
 8051TIP3    H245569   5.512   2.683   1.100 -0.1225 -0.0090 -1.3520
 8052TIP3   OH245570   0.919   6.679   1.508  0.1553 -0.1605  0.6175
 8052TIP3    H145571   0.902   6.774   1.509  1.2633  0.0504  1.3527
 8052TIP3    H245572   0.947   6.659   1.597 -2.7237 -1.7432  1.2982
 8053TIP3   OH245573   1.461   2.748   3.362 -1.0522  0.3055 -0.2981
 8053TIP3    H145574   1.470   2.833   3.405 -1.1760  0.2357 -0.1335
 8053TIP3    H245575   1.525   2.750   3.291  0.5355 -0.3159  1.0497
 8054TIP3   OH245576   1.978   1.219  16.036  0.2827 -0.0504 -0.0601
 8054TIP3    H145577   1.896   1.212  15.986 -0.1339  0.8792  0.4666
 8054TIP3    H245578   2.036   1.154  15.996 -0.6840 -0.6720 -0.4936
 8055TIP3   OH245579   2.234   1.953  16.848 -0.0550  0.1305  0.4517
 8055TIP3    H145580   2.167   1.929  16.912  0.2811 -0.2751  0.6602
 8055TIP3    H245581   2.196   2.025  16.798 -1.0741 -0.8174 -0.1587
 8056TIP3   OH245582   4.254   3.564  14.689 -0.2907  0.6516 -0.7344
 8056TIP3    H145583   4.163   3.543  14.706  0.2654 -0.5208  1.1124
 8056TIP3    H245584   4.268   3.540  14.598 -1.7793  0.7757 -1.0192
 8057TIP3   OH245585   3.150   3.836   4.952 -0.2550 -0.1090  0.5553
 8057TIP3    H145586   3.208   3.896   4.999 -0.8585  0.2329  0.8840
 8057TIP3    H245587   3.130   3.767   5.016  0.7533 -0.8995  0.0562
 8058TIP3   OH245588   1.652   4.043  15.307 -0.1798  0.1629 -0.1823
 8058TIP3    H145589   1.577   3.988  15.330 -0.2264 -0.3917 -1.5561
 8058TIP3    H245590   1.726   3.983  15.308 -0.1445  0.1820 -1.1563
 8059TIP3   OH245591   0.833   0.940  15.607  0.3580 -0.4750 -0.2798
 8059TIP3    H145592   0.805   0.866  15.661 -0.4682 -0.2008 -0.3261
 8059TIP3    H245593   0.928   0.929  15.600  0.2603 -1.4786 -0.2088
 8060TIP3   OH245594   5.008   1.386  15.021  0.1787  0.3644  0.6105
 8060TIP3    H145595   4.962   1.396  14.937 -1.0293 -1.8473  0.9542
 8060TIP3    H245596   5.083   1.331  15.000 -0.4486 -0.6817  1.0636
 8061TIP3   OH245597   6.536   6.262   4.369 -0.3604 -0.1270  0.0525
 8061TIP3    H145598   6.515   6.348   4.404 -0.0501 -0.3666  0.8620
 8061TIP3    H245599   6.630   6.253   4.383 -0.0999  0.0232 -1.4532
 8062TIP3   OH245600   4.669   5.044   0.942 -0.3772  0.0116  0.1098
 8062TIP3    H145601   4.689   5.092   1.023 -1.4973 -2.1342  1.7415
 8062TIP3    H245602   4.589   4.996   0.961  0.4304 -2.1796 -1.5764
 8063TIP3   OH245603   0.907   6.322  16.364  0.0718 -0.4995 -0.1696
 8063TIP3    H145604   0.820   6.285  16.348 -0.9834  0.9087  1.8431
 8063TIP3    H245605   0.925   6.299  16.455  1.4249  0.0104 -0.3008
 8064TIP3   OH245606   0.930   5.702   6.034 -0.1797 -0.2864 -0.1222
 8064TIP3    H145607   0.881   5.665   6.108  1.1825  1.1107  1.5733
 8064TIP3    H245608   1.011   5.650   6.031  0.4348  0.5951  0.4001
 8065TIP3   OH245609   5.163   5.955  11.388  0.2084  0.6074  0.3155
 8065TIP3    H145610   5.082   5.918  11.425  1.3634 -1.5597  0.7928
 8065TIP3    H245611   5.140   5.976  11.298 -1.4812  2.1175  1.0130
 8066TIP3   OH245612   5.146   3.982  14.527 -0.0371  0.2638  0.1965
 8066TIP3    H145613   5.060   3.995  14.489  1.1558  0.3228 -2.7812
 8066TIP3    H245614   5.163   3.888  14.516  1.0073  0.5708 -1.1581
 8067TIP3   OH245615   0.273   5.620  14.359  0.2886  0.1683  0.0302
 8067TIP3    H145616   0.204   5.629  14.293  1.2016  1.9800 -0.7584
 8067TIP3    H245617   0.354   5.617  14.308  0.9169 -0.1177  1.0195
 8068TIP3   OH245618   4.875   2.012   0.039 -0.1121  0.0892  0.2030
 8068TIP3    H145619   4.863   1.963   0.120 -0.3655 -0.8925 -0.4184
 8068TIP3    H245620   4.788   2.044   0.017  0.1494  1.3443  0.9193
 8069TIP3   OH245621   2.684   5.373  11.450  0.2342  0.2115 -0.2416
 8069TIP3    H145622   2.718   5.345  11.535  0.9776 -1.4916 -1.0609
 8069TIP3    H245623   2.640   5.456  11.469 -0.7534 -0.7429  2.0419
 8070TIP3   OH245624   2.042   6.126  14.006  0.0071 -0.3602  0.2030
 8070TIP3    H145625   1.967   6.083  13.965 -0.4782  1.4277 -0.8450
 8070TIP3    H245626   2.110   6.128  13.938  0.1883  0.1085  0.3942
 8071TIP3   OH245627   5.294   2.712  17.098 -0.1095  0.2103  0.4732
 8071TIP3    H145628   5.231   2.639  17.098  0.3255 -0.2018 -1.0362
 8071TIP3    H245629   5.260   2.772  17.032  1.2024 -0.1391 -0.5437
 8072TIP3   OH245630   4.190   4.766   3.871  0.3480 -0.2176 -0.2549
 8072TIP3    H145631   4.149   4.696   3.923  1.2427 -0.2761  0.3844
 8072TIP3    H245632   4.151   4.756   3.784  0.8769 -1.8967 -0.3393
 8073TIP3   OH245633   4.538   3.338   0.451 -0.0114  0.1358 -0.3218
 8073TIP3    H145634   4.576   3.259   0.488  0.8971  0.0368 -1.3835
 8073TIP3    H245635   4.464   3.359   0.507 -0.0982 -1.3099  0.1315
 8074TIP3   OH245636   5.396   1.429  12.989  0.6490  0.3329  0.3329
 8074TIP3    H145637   5.415   1.502  13.047  1.1599  0.3702  0.1196
 8074TIP3    H245638   5.411   1.351  13.042  0.5356  0.3727  0.4252
 8075TIP3   OH245639   0.371   4.490  14.819  0.1618 -0.0861  0.6945
 8075TIP3    H145640   0.351   4.584  14.821  1.7408  0.2985  0.2206
 8075TIP3    H245641   0.356   4.460  14.908 -4.7386 -0.4567  0.0140
 8076TIP3   OH245642   3.226   2.464   5.601  0.0292  0.0293  0.1513
 8076TIP3    H145643   3.266   2.487   5.517  0.7555 -0.1987  0.4282
 8076TIP3    H245644   3.294   2.416   5.647 -1.3529 -2.5284 -0.3117
 8077TIP3   OH245645   3.453   4.300  10.643 -0.0495  0.3207 -0.1098
 8077TIP3    H145646   3.469   4.206  10.652  0.8142  0.4631 -0.0292
 8077TIP3    H245647   3.360   4.307  10.621  0.1474 -0.6328 -1.3619
 8078TIP3   OH245648   4.563   0.054   1.807 -0.1566  0.5758  0.1343
 8078TIP3    H145649   4.499   0.079   1.740  0.4737  1.6067 -0.1141
 8078TIP3    H245650   4.517  -0.009   1.862 -0.6178 -0.4726 -1.3942
 8079TIP3   OH245651   2.607   3.956   2.042 -0.0341  1.0563  0.2129
 8079TIP3    H145652   2.557   3.877   2.063  1.7312  0.2064  1.5133
 8079TIP3    H245653   2.551   4.028   2.071 -1.2546  0.2512 -0.0525
 8080TIP3   OH245654   1.184   6.376  13.628  0.3235 -0.1785  0.3596
 8080TIP3    H145655   1.154   6.425  13.705  2.5226  0.7043  0.7379
 8080TIP3    H245656   1.263   6.331  13.658  0.2635 -1.1946 -0.9421
 8081TIP3   OH245657   1.215   0.157   1.672  0.2911  0.4872  0.5928
 8081TIP3    H145658   1.199   0.121   1.584  1.1112 -0.1934  0.7168
 8081TIP3    H245659   1.291   0.214   1.660 -0.4655  1.5318  0.5816
 8082TIP3   OH245660   1.199   5.547   3.619  0.3358  0.3080 -0.4594
 8082TIP3    H145661   1.229   5.512   3.703 -0.1604  2.6696  0.7710
 8082TIP3    H245662   1.150   5.474   3.580  1.6408 -1.2574  0.6753
 8083TIP3   OH245663   2.907   6.402   6.360 -0.2220 -0.0169  0.3983
 8083TIP3    H145664   2.994   6.424   6.324  0.1911 -1.0206  0.7567
 8083TIP3    H245665   2.918   6.410   6.455 -0.4821 -0.2791  0.4514
 8084TIP3   OH245666   1.846   4.163   2.349  0.0777 -0.3800  0.0687
 8084TIP3    H145667   1.935   4.175   2.383 -0.0942  0.9427  0.0898
 8084TIP3    H245668   1.801   4.244   2.370 -1.7708 -1.7902  1.9060
 8085TIP3   OH245669   2.636   4.881  16.912  0.0074  0.1307 -0.1621
 8085TIP3    H145670   2.708   4.936  16.944  0.4674 -0.2637 -0.5047
 8085TIP3    H245671   2.583   4.864  16.990 -0.1193  1.0243 -0.0412
 8086TIP3   OH245672   5.110   4.393   1.721 -0.0578  0.5267 -0.4168
 8086TIP3    H145673   5.129   4.485   1.700  3.1459  0.4460  1.5897
 8086TIP3    H245674   5.049   4.398   1.795  0.5021  1.0460  0.0130
 8087TIP3   OH245675   5.490   5.909  12.448  0.4529  0.2283 -0.1445
 8087TIP3    H145676   5.540   5.957  12.382 -0.2914  0.9328 -0.2143
 8087TIP3    H245677   5.462   5.829  12.404  3.2998 -1.2961  0.5182
 8088TIP3   OH245678   0.499   6.009  15.196 -0.1979  0.1493 -0.1573
 8088TIP3    H145679   0.488   6.078  15.131  1.1237 -1.4795 -2.2559
 8088TIP3    H245680   0.427   5.949  15.180 -0.3061  0.1106  0.4415
 8089TIP3   OH245681   5.286   6.104   4.079 -0.0248  0.8348  0.0418
 8089TIP3    H145682   5.193   6.126   4.075 -0.4005 -0.4051  1.2438
 8089TIP3    H245683   5.321   6.133   3.994 -1.4924  1.3372 -0.4216
 8090TIP3   OH245684   5.064   5.103   2.731  0.2101  0.0673  0.6447
 8090TIP3    H145685   5.048   5.196   2.750 -2.8023 -0.4758  1.2444
 8090TIP3    H245686   5.159   5.098   2.715  0.9490  2.7615  3.2288
 8091TIP3   OH245687   4.294   1.876   4.120 -0.3609 -0.3391 -0.9757
 8091TIP3    H145688   4.301   1.804   4.183  0.7121  0.7263  0.1781
 8091TIP3    H245689   4.313   1.955   4.171 -2.5007  0.9218 -1.9665
 8092TIP3   OH245690   3.147   3.872   6.696  0.3533 -0.3496 -0.1417
 8092TIP3    H145691   3.132   3.967   6.698  2.1353 -0.0323  0.3530
 8092TIP3    H245692   3.179   3.854   6.608  0.8764 -0.3329  0.0426
 8093TIP3   OH245693   4.413   0.242   2.707  0.0469  0.0025  0.5109
 8093TIP3    H145694   4.477   0.309   2.688 -0.3020 -0.0144 -0.8200
 8093TIP3    H245695   4.418   0.229   2.802  0.8433  1.1496  0.6331
 8094TIP3   OH245696   6.091   3.326   5.555 -0.4351 -0.3650 -0.2382
 8094TIP3    H145697   6.063   3.410   5.591 -1.4637 -0.1638 -1.4345
 8094TIP3    H245698   6.014   3.293   5.509  0.2906 -1.4500 -0.7129
 8095TIP3   OH245699   0.937   3.394   3.179  0.5102 -0.2309  0.2429
 8095TIP3    H145700   0.972   3.470   3.133 -1.7090  0.5182 -0.3192
 8095TIP3    H245701   0.975   3.399   3.266  0.0624  1.8172  0.3676
 8096TIP3   OH245702   6.547   5.934  13.028  0.1602 -0.3108  0.0790
 8096TIP3    H145703   6.480   5.940  12.960  1.3760  2.0373 -1.0285
 8096TIP3    H245704   6.511   5.983  13.101  1.2653  2.5332 -1.1545
 8097TIP3   OH245705   0.800   4.781   0.850 -0.4274 -0.4713  0.2870
 8097TIP3    H145706   0.770   4.742   0.932 -1.6060 -0.2023 -0.0083
 8097TIP3    H245707   0.839   4.864   0.876  0.5568 -1.0499  0.7278
 8098TIP3   OH245708   5.759   4.550   5.854  0.3044  0.2550 -0.6701
 8098TIP3    H145709   5.672   4.591   5.862 -0.0358 -0.4833 -0.5734
 8098TIP3    H245710   5.759   4.482   5.921  1.4584  1.1045  0.2328
 8099TIP3   OH245711   5.477   2.595   3.075 -0.0655 -0.0584 -0.2876
 8099TIP3    H145712   5.571   2.605   3.070 -0.1560  0.1339 -2.2287
 8099TIP3    H245713   5.456   2.531   3.007 -1.3346 -0.1677  0.1731
 8100TIP3   OH245714   3.269   0.156  15.068 -0.6293 -0.3136 -0.2241
 8100TIP3    H145715   3.261   0.187  15.158 -2.0492 -1.7164  0.1841
 8100TIP3    H245716   3.194   0.194  15.022 -0.7614 -0.7997 -0.4234
 8101TIP3   OH245717   6.256   6.160   0.431 -0.8974 -0.2392  0.0952
 8101TIP3    H145718   6.199   6.224   0.472 -2.1243 -0.7214 -0.7872
 8101TIP3    H245719   6.200   6.116   0.366  0.2791 -1.2388 -0.2854
 8102TIP3   OH245720   1.996   1.931   2.437  0.4104 -0.4005  0.6249
 8102TIP3    H145721   2.071   1.873   2.423  0.4841 -0.1044 -0.3210
 8102TIP3    H245722   2.033   2.009   2.478  0.8907  0.3003 -1.0156
 8103TIP3   OH245723   2.438   2.490   6.650 -0.4897 -0.1554  0.7728
 8103TIP3    H145724   2.360   2.491   6.595 -0.1738  1.4702  0.3158
 8103TIP3    H245725   2.511   2.479   6.588 -0.2439 -0.0917  1.0461
 8104TIP3   OH245726   0.899   5.524   4.757 -0.4119 -0.4878  0.3028
 8104TIP3    H145727   0.824   5.508   4.700  0.2703 -0.6567 -0.5797
 8104TIP3    H245728   0.888   5.462   4.829 -2.1270  0.8127  1.2342
 8105TIP3   OH245729   4.276   0.948   4.086  0.0899 -0.2184  0.9848
 8105TIP3    H145730   4.325   0.978   4.009  0.8613 -1.0978  1.1123
 8105TIP3    H245731   4.343   0.931   4.152 -0.4778 -0.5129  1.4895
 8106TIP3   OH245732   0.650   0.521  14.721 -0.0040 -0.3007  0.0832
 8106TIP3    H145733   0.734   0.566  14.727 -0.1135 -0.0396 -0.3047
 8106TIP3    H245734   0.602   0.549  14.799 -1.5188  3.2543 -1.8844
 8107TIP3   OH245735   1.601   6.145  12.938  0.4371  0.3448  0.3860
 8107TIP3    H145736   1.658   6.220  12.925 -2.1881  2.2174 -1.3356
 8107TIP3    H245737   1.545   6.170  13.012 -2.4470  1.5682 -2.0339
 8108TIP3   OH245738   4.991   4.407  14.416  0.1572 -0.5811  0.4033
 8108TIP3    H145739   4.912   4.427  14.466 -1.6221  0.8603 -2.6646
 8108TIP3    H245740   4.963   4.339  14.354  1.6411 -0.7983 -0.0655
 8109TIP3   OH245741   0.569   0.900   1.850  0.0338 -0.1767  0.0438
 8109TIP3    H145742   0.547   0.947   1.770  0.3517  0.5842  0.3981
 8109TIP3    H245743   0.485   0.872   1.885 -0.5035  2.8174  1.4623
 8110TIP3   OH245744   4.332   5.379   0.971 -0.1980  0.1207 -0.2203
 8110TIP3    H145745   4.249   5.416   1.001 -0.2236 -0.3557  0.2960
 8110TIP3    H245746   4.386   5.372   1.049  0.8070  1.5938 -0.7317
 8111TIP3   OH245747   3.075   6.012  10.825  0.5827  0.0347 -0.7992
 8111TIP3    H145748   3.127   5.952  10.879 -0.2332  0.7485  0.8735
 8111TIP3    H245749   3.131   6.089  10.813  0.2793  0.4406  0.2513
 8112TIP3   OH245750   4.080   5.779   1.038 -0.4306 -0.3079  0.3032
 8112TIP3    H145751   4.041   5.694   1.023  0.0108 -0.5674  0.6061
 8112TIP3    H245752   4.155   5.762   1.096 -0.1737  0.2412  0.1441
 8113TIP3   OH245753   4.967   2.874   2.080 -0.2336  0.4064  0.8096
 8113TIP3    H145754   4.949   2.788   2.043  1.1532 -0.3570  1.8610
 8113TIP3    H245755   5.009   2.857   2.164  0.2453  2.1142  0.9612
 8114TIP3   OH245756   4.905   2.715  16.394 -0.4474 -0.0593  0.2206
 8114TIP3    H145757   4.993   2.681  16.411 -0.5409 -0.6687 -0.4793
 8114TIP3    H245758   4.870   2.735  16.481 -0.4560 -1.9597  0.6854
 8115TIP3   OH245759   6.175   0.808   4.508  0.6789  0.3084 -0.5934
 8115TIP3    H145760   6.165   0.899   4.538  1.5935  1.3945 -3.3147
 8115TIP3    H245761   6.269   0.792   4.511  0.4862 -0.8279  0.4328
 8116TIP3   OH245762   6.505   2.238   2.778  0.1039 -0.2027 -0.0827
 8116TIP3    H145763   6.454   2.317   2.793 -1.1445 -0.7485 -1.2368
 8116TIP3    H245764   6.456   2.189   2.712  2.2174 -0.6684 -1.4297
 8117TIP3   OH245765   5.626   5.208  11.878 -0.1600  0.1456 -0.2609
 8117TIP3    H145766   5.696   5.269  11.899 -0.3423 -0.1868  1.5529
 8117TIP3    H245767   5.545   5.257  11.894 -0.3214  0.0941 -0.9203
 8118TIP3   OH245768   6.545   0.817   1.880  0.3973 -0.2427  0.0861
 8118TIP3    H145769   6.587   0.894   1.842  0.4288 -0.7097 -0.8369
 8118TIP3    H245770   6.478   0.852   1.938  0.2715  0.4763 -0.4894
 8119TIP3   OH245771   4.739   5.099   1.231 -0.3251 -0.1585  0.2634
 8119TIP3    H145772   4.734   5.032   1.300 -0.9947 -0.2007  0.1815
 8119TIP3    H245773   4.654   5.143   1.235  0.3364  1.1315  0.7567
 8120TIP3   OH245774   0.212   0.260  13.453 -0.2507  0.3426 -0.0762
 8120TIP3    H145775   0.265   0.314  13.394 -0.6797  1.3178  0.4188
 8120TIP3    H245776   0.259   0.262  13.536  0.6842 -1.5357 -0.4971
 8121TIP3   OH245777   1.147   3.744  16.697 -0.2485 -0.0685 -0.6046
 8121TIP3    H145778   1.195   3.822  16.727 -3.2743  1.4972  0.6228
 8121TIP3    H245779   1.096   3.717  16.773 -0.2348 -2.5641 -1.4038
 8122TIP3   OH245780   0.634   1.784  15.115  0.4117  0.7448 -0.0038
 8122TIP3    H145781   0.644   1.814  15.024 -0.4977 -0.1461 -0.4226
 8122TIP3    H245782   0.723   1.776  15.148  0.9309 -1.2960 -1.6418
 8123TIP3   OH245783   0.433   3.087  13.670 -0.7369  0.2924 -0.4678
 8123TIP3    H145784   0.417   3.111  13.762 -1.4269  0.7373 -0.6994
 8123TIP3    H245785   0.509   3.139  13.645  0.0131 -0.4882  0.1032
 8124TIP3   OH245786   6.599   2.273   5.776 -0.3476 -0.1155  0.2538
 8124TIP3    H145787   6.619   2.179   5.776 -1.1930 -0.3308 -1.2390
 8124TIP3    H245788   6.516   2.279   5.823 -2.0130 -0.6162 -2.3790
 8125TIP3   OH245789   4.394   1.433   0.294  0.1309  0.3969  0.0487
 8125TIP3    H145790   4.393   1.339   0.310 -1.5777  0.3671 -0.1184
 8125TIP3    H245791   4.473   1.464   0.339  2.5407 -1.5296 -2.5209
 8126TIP3   OH245792   2.391   3.952  12.074 -0.5994 -0.3702  0.3727
 8126TIP3    H145793   2.426   3.877  12.025  0.5600 -0.1182  0.7865
 8126TIP3    H245794   2.371   3.916  12.161  3.3713  0.4372  1.8391
 8127TIP3   OH245795   0.645   0.882   3.346 -0.2185 -0.7713  0.0776
 8127TIP3    H145796   0.708   0.890   3.274  0.6271  0.4642  0.9056
 8127TIP3    H245797   0.593   0.962   3.341 -0.9501 -1.2372  0.1268
 8128TIP3   OH245798   5.646   0.265  13.115 -0.1090 -0.3471  0.0737
 8128TIP3    H145799   5.605   0.349  13.135 -1.3436 -1.0035  0.4559
 8128TIP3    H245800   5.586   0.224  13.052 -0.2000 -1.4558  0.8556
 8129TIP3   OH245801   4.650   1.546   5.673 -0.0015 -0.1197  0.1556
 8129TIP3    H145802   4.703   1.626   5.670 -2.2324  1.4939  1.1486
 8129TIP3    H245803   4.636   1.531   5.767 -2.0771  0.0921 -0.0840
 8130TIP3   OH245804   0.772   2.922   0.734 -0.5246 -0.8602  0.5520
 8130TIP3    H145805   0.737   2.848   0.783 -0.8131 -0.7157  0.5715
 8130TIP3    H245806   0.719   2.997   0.764  1.1346 -0.2460  2.1026
 8131TIP3   OH245807   5.035   3.604   2.858 -0.1258  0.4428  0.0454
 8131TIP3    H145808   5.064   3.513   2.860 -0.2424  0.4183  0.9243
 8131TIP3    H245809   5.088   3.648   2.925  0.7731  1.2852 -1.1754
 8132TIP3   OH245810   4.186   2.014   3.535  0.4351  0.1111 -0.4327
 8132TIP3    H145811   4.191   1.919   3.534  1.2900  0.1124 -3.2936
 8132TIP3    H245812   4.093   2.033   3.521  0.0106 -0.2065  1.5396
 8133TIP3   OH245813   0.110   2.299  16.745 -0.1286 -0.0468 -0.2713
 8133TIP3    H145814   0.052   2.363  16.785 -1.5067 -1.5712  0.2820
 8133TIP3    H245815   0.065   2.273  16.664  0.3431 -0.4198 -0.4214
 8134TIP3   OH245816   6.257   4.464  14.349 -0.1366  0.4001  0.3043
 8134TIP3    H145817   6.205   4.387  14.329 -2.1051  1.3934  1.2288
 8134TIP3    H245818   6.210   4.537  14.308  0.7719  1.3026  0.7976
 8135TIP3   OH245819   4.049   2.819   5.103 -0.0495 -0.1256 -0.6481
 8135TIP3    H145820   4.015   2.875   5.034  1.9007  0.8961 -0.8541
 8135TIP3    H245821   4.058   2.877   5.179 -0.0650 -0.7057 -0.1908
 8136TIP3   OH245822   3.088   1.756  12.372 -0.1496  0.2083 -0.2410
 8136TIP3    H145823   2.993   1.769  12.369 -0.0566  0.8733 -0.3399
 8136TIP3    H245824   3.124   1.833  12.327  0.4801  0.4296  0.6310
 8137TIP3   OH245825   3.595   4.459   3.571  0.1372 -0.2152  0.1939
 8137TIP3    H145826   3.647   4.534   3.600 -1.2656  0.8197  0.1575
 8137TIP3    H245827   3.622   4.446   3.480  0.2974  0.3565  0.1506
 8138TIP3   OH245828   3.582   5.831  11.747 -0.2131 -0.3738 -0.3784
 8138TIP3    H145829   3.589   5.790  11.833  0.7725 -0.2706 -0.3913
 8138TIP3    H245830   3.669   5.867  11.731 -0.8041  0.9357 -0.7629
 8139TIP3   OH245831   3.410   5.454  15.203  0.4439  0.4446  0.2594
 8139TIP3    H145832   3.330   5.415  15.169 -0.7732  1.7810  1.4575
 8139TIP3    H245833   3.393   5.549  15.202  2.6269  0.9018 -0.9618
 8140TIP3   OH245834   5.490   3.802  15.900  0.5862  0.4721 -0.1053
 8140TIP3    H145835   5.398   3.804  15.923  0.5147  2.6083 -0.2921
 8140TIP3    H245836   5.491   3.781  15.806  0.5736 -3.0624  0.5681
 8141TIP3   OH245837   1.226   0.769   3.210 -0.1009  0.7162 -0.0395
 8141TIP3    H145838   1.272   0.689   3.185  0.8702  1.6703 -1.4857
 8141TIP3    H245839   1.150   0.739   3.259  0.5180 -1.0587 -0.1021
 8142TIP3   OH245840   0.277   4.333   1.491 -0.0664 -0.3540 -0.6391
 8142TIP3    H145841   0.231   4.399   1.440  1.0371  1.0937  0.1613
 8142TIP3    H245842   0.260   4.251   1.446 -1.0636  0.5486 -1.9535
 8143TIP3   OH245843   3.454   3.910   3.459  0.0185 -0.3287 -0.0873
 8143TIP3    H145844   3.525   3.914   3.523 -0.6148 -0.4243  0.6330
 8143TIP3    H245845   3.461   3.822   3.421 -0.6541 -0.9056  1.0883
 8144TIP3   OH245846   3.435   2.101   4.555 -0.1882 -0.0694 -0.0915
 8144TIP3    H145847   3.346   2.080   4.529  0.2043 -0.9616 -0.7722
 8144TIP3    H245848   3.426   2.153   4.635 -1.2927 -0.5576  0.1083
 8145TIP3   OH245849   4.621   2.178   2.284 -0.1759 -0.0174  0.4219
 8145TIP3    H145850   4.550   2.119   2.257 -0.7741  0.5689  0.6671
 8145TIP3    H245851   4.693   2.157   2.225 -0.9634  0.2202 -0.6600
 8146TIP3   OH245852   0.383   5.601  13.882  0.3028 -0.1525 -0.1764
 8146TIP3    H145853   0.328   5.644  13.816  1.5557 -0.1907 -1.2851
 8146TIP3    H245854   0.383   5.509  13.857 -1.2462 -0.6527  1.3933
 8147TIP3   OH245855   4.239   5.522  14.526 -0.2619  0.3476  0.0697
 8147TIP3    H145856   4.333   5.506  14.528  0.3520  3.2468 -0.0406
 8147TIP3    H245857   4.214   5.531  14.617 -0.8442 -2.0521  0.2025
 8148TIP3   OH245858   3.348   1.677   4.764  0.2772 -0.0449  0.1652
 8148TIP3    H145859   3.410   1.736   4.807  0.2079 -0.4466  0.8319
 8148TIP3    H245860   3.295   1.641   4.835  0.3935 -1.0026 -0.2067
 8149TIP3   OH245861   2.429   4.324  13.146 -0.3314  0.3701  0.2499
 8149TIP3    H145862   2.344   4.297  13.181 -0.6536  1.2724  0.2063
 8149TIP3    H245863   2.412   4.410  13.107  0.4963  0.3335 -0.2074
 8150TIP3   OH245864   5.264   6.233   0.653  0.2637 -0.6962  0.3746
 8150TIP3    H145865   5.268   6.274   0.740  0.9039  0.3444 -0.1210
 8150TIP3    H245866   5.186   6.178   0.656 -2.0109  2.2752  0.3692
 8151TIP3   OH245867   5.470   6.734  11.553 -0.0954 -0.0304  0.5255
 8151TIP3    H145868   5.414   6.734  11.475  0.9026  0.9761 -0.2082
 8151TIP3    H245869   5.521   6.653  11.546 -0.0180  0.0509  0.1502
 8152TIP3   OH245870   0.007   1.461  13.458  0.4481  0.1057  0.0656
 8152TIP3    H145871   0.008   1.477  13.363  3.0354 -1.7005 -0.3391
 8152TIP3    H245872  -0.058   1.392  13.470 -1.6572  1.9880  0.0347
 8153TIP3   OH245873   4.417   2.211  15.825 -0.0269 -0.1163 -0.3497
 8153TIP3    H145874   4.394   2.151  15.896 -1.1327 -1.5202 -1.8403
 8153TIP3    H245875   4.333   2.245  15.794  0.4084  0.1780 -1.2351
 8154TIP3   OH245876   6.073   2.156   0.112 -0.2230  0.6904  0.0513
 8154TIP3    H145877   6.149   2.107   0.079  0.6122  1.4706  0.7502
 8154TIP3    H245878   6.038   2.102   0.182 -0.8537 -0.0775 -0.8254
 8155TIP3   OH245879   3.715   2.827  15.734  0.4927 -0.0498  0.2386
 8155TIP3    H145880   3.697   2.856  15.644  1.0754 -1.0524 -0.2225
 8155TIP3    H245881   3.791   2.880  15.761 -0.2177  0.8731  0.4776
 8156TIP3   OH245882   3.554   5.596  16.566 -0.4994 -0.9443 -0.2019
 8156TIP3    H145883   3.526   5.539  16.637  0.1427 -0.7327  0.2311
 8156TIP3    H245884   3.483   5.660  16.557 -0.7312 -1.1676  0.0256
 8157TIP3   OH245885   6.154   0.653  13.988  0.1181 -0.0429  0.8626
 8157TIP3    H145886   6.135   0.628  13.897  0.3555  0.0786  0.7795
 8157TIP3    H245887   6.071   0.691  14.019 -1.1276 -3.2338  1.8341
 8158TIP3   OH245888   6.667   1.324   4.488 -0.4283  0.2208 -0.8507
 8158TIP3    H145889   6.672   1.300   4.580 -1.3656  0.2693 -0.7771
 8158TIP3    H245890   6.755   1.355   4.466  0.0804 -0.7702 -0.2531
 8159TIP3   OH245891   1.571   3.253  14.424  0.5207 -0.0314  0.4504
 8159TIP3    H145892   1.618   3.277  14.504  2.5891  0.1620 -0.7403
 8159TIP3    H245893   1.563   3.158  14.430 -0.0850  0.0569  1.2517
 8160TIP3   OH245894   5.577   6.396  11.505  0.1952 -0.2829 -0.1813
 8160TIP3    H145895   5.661   6.371  11.544  0.4977 -0.9753 -1.2496
 8160TIP3    H245896   5.586   6.375  11.412 -0.9105  0.3029 -0.4387
 8161TIP3   OH245897   2.171   6.051  15.401  0.3480 -0.0396  0.2370
 8161TIP3    H145898   2.109   6.084  15.465  0.1078 -0.7016  0.3480
 8161TIP3    H245899   2.143   6.091  15.318  1.1609  1.4898  0.6542
 8162TIP3   OH245900   6.654   3.694  12.683 -0.4063 -0.0063 -0.3355
 8162TIP3    H145901   6.669   3.732  12.596 -1.5911  2.9758  0.6277
 8162TIP3    H245902   6.639   3.770  12.739  0.1708 -1.8438  2.4795
 8163TIP3   OH245903   4.470   2.532  15.253 -0.6560  0.5132  0.4662
 8163TIP3    H145904   4.491   2.573  15.169 -2.5212  0.9825  0.1679
 8163TIP3    H245905   4.427   2.450  15.230  1.9396 -1.1188  1.0587
 8164TIP3   OH245906   6.476   1.627  13.578  0.0573  0.1780 -0.0539
 8164TIP3    H145907   6.527   1.623  13.659  0.2919  0.3444 -0.1951
 8164TIP3    H245908   6.527   1.682  13.519 -0.4348  0.6054 -0.0892
 8165TIP3   OH245909   3.579   3.144  14.852  0.3028  0.5616 -0.0815
 8165TIP3    H145910   3.671   3.116  14.844  0.9866  2.7608 -0.5678
 8165TIP3    H245911   3.534   3.067  14.884  2.3549 -0.5657  0.2901
 8166TIP3   OH245912   0.939   2.088  16.656  0.6281 -0.0763 -0.4340
 8166TIP3    H145913   0.988   2.078  16.574 -0.5758 -2.5865 -0.9580
 8166TIP3    H245914   0.877   2.015  16.655 -2.2058  2.1592  0.8200
 8167TIP3   OH245915   0.484   2.870   3.442  0.0957  0.5156  0.4335
 8167TIP3    H145916   0.499   2.902   3.353  1.8262 -0.2558  0.3962
 8167TIP3    H245917   0.572   2.853   3.476 -0.5961 -0.5874  1.7727
 8168TIP3   OH245918   6.180   5.703  12.401  0.4110  0.4207  0.6418
 8168TIP3    H145919   6.157   5.734  12.489 -1.1165 -0.5340  0.6172
 8168TIP3    H245920   6.224   5.619  12.417 -0.5919 -0.1455  0.4739
 8169TIP3   OH245921   2.365   6.325   2.305  0.2676  0.5827  0.3377
 8169TIP3    H145922   2.407   6.386   2.366  1.0192  0.6386 -0.2230
 8169TIP3    H245923   2.275   6.316   2.338  0.0354  2.2262  0.2872
 8170TIP3   OH245924   2.370   0.879  13.511 -0.6255  0.4291 -0.1979
 8170TIP3    H145925   2.328   0.793  13.509 -1.2822  0.7198  0.4347
 8170TIP3    H245926   2.379   0.900  13.604 -0.4330  1.0244 -0.3407
 8171TIP3   OH245927   5.270   1.646   4.777  0.0885  0.4409  0.1667
 8171TIP3    H145928   5.236   1.557   4.773 -0.4647  0.6928 -1.4459
 8171TIP3    H245929   5.198   1.700   4.745  0.6229  1.4185  0.5768
 8172TIP3   OH245930   5.595   5.292  15.706 -0.7640  0.1222 -0.6690
 8172TIP3    H145931   5.559   5.373  15.670  0.2008  0.1935 -1.5345
 8172TIP3    H245932   5.629   5.245  15.630 -0.8533 -0.8654 -0.1137
 8173TIP3   OH245933   1.106   1.050  16.473  0.5895 -1.0154 -0.3428
 8173TIP3    H145934   1.097   1.135  16.429  0.2970 -1.0089 -0.2759
 8173TIP3    H245935   1.116   1.073  16.566  0.8075 -1.0436 -0.3595
 8174TIP3   OH245936   0.309   0.643  14.576  0.2469  0.5331 -0.0313
 8174TIP3    H145937   0.351   0.719  14.618  0.3376  0.5854 -0.2168
 8174TIP3    H245938   0.357   0.631  14.494  0.9735 -0.4276  0.5066
 8175TIP3   OH245939   1.421   3.821  12.073  0.0421  0.7593  0.5047
 8175TIP3    H145940   1.390   3.733  12.092  1.1469  0.2209 -0.1164
 8175TIP3    H245941   1.515   3.812  12.061 -0.0423  1.7132 -1.2892
 8176TIP3   OH245942   5.313   2.366  11.642 -0.1468 -0.1463  0.5279
 8176TIP3    H145943   5.241   2.304  11.626 -1.4645  1.8328 -1.9402
 8176TIP3    H245944   5.389   2.322  11.604 -0.5208 -1.2592  0.9972
 8177TIP3   OH245945   6.067   0.165  13.610 -0.1289  0.1194 -0.1635
 8177TIP3    H145946   6.081   0.071  13.596 -3.5225 -0.3981 -0.8078
 8177TIP3    H245947   6.052   0.173  13.704  1.3735  0.2700  0.0919
 8178TIP3   OH245948   3.694   3.325   4.523  0.3766 -0.0506 -0.1340
 8178TIP3    H145949   3.623   3.297   4.580  1.4270 -0.5704  0.9653
 8178TIP3    H245950   3.655   3.393   4.468 -0.9912 -0.4042  0.3481
 8179TIP3   OH245951   4.557   2.520  14.649 -0.8956 -0.7768  0.4890
 8179TIP3    H145952   4.587   2.603  14.686  2.2156 -1.3962 -0.3523
 8179TIP3    H245953   4.462   2.522  14.660 -1.0132  3.0397  0.1315
 8180TIP3   OH245954   6.584   3.542  14.125  0.3076 -0.0841 -0.6774
 8180TIP3    H145955   6.675   3.554  14.098  0.5482  1.1441  0.5440
 8180TIP3    H245956   6.588   3.539  14.221 -1.1997  3.4638 -0.3353
 8181TIP3   OH245957   0.831   1.103   1.693  0.0023 -0.2199 -0.3195
 8181TIP3    H145958   0.915   1.137   1.660 -0.4230  1.2730  0.0368
 8181TIP3    H245959   0.767   1.135   1.629 -0.4598 -0.0491  0.2254
 8182TIP3   OH245960   3.730   6.628  14.644 -0.1222 -0.3533 -0.1645
 8182TIP3    H145961   3.765   6.713  14.615 -1.3806 -0.2171 -1.3642
 8182TIP3    H245962   3.808   6.575  14.660  0.7127  1.0925  0.8868
 8183TIP3   OH245963   0.920   1.605  16.202 -0.5521 -0.2644 -0.4882
 8183TIP3    H145964   0.989   1.573  16.144  2.0627 -0.4265  2.4225
 8183TIP3    H245965   0.841   1.558  16.174  0.9693 -1.7587 -2.5829
 8184TIP3   OH245966   6.327   3.391  13.939 -0.3742 -0.0234  0.4055
 8184TIP3    H145967   6.374   3.331  13.996 -0.7802  0.3709  1.1827
 8184TIP3    H245968   6.234   3.368  13.950 -0.3735 -1.1878 -1.5651
 8185TIP3   OH245969   1.127   0.346  14.849  0.0846 -0.5847  0.2188
 8185TIP3    H145970   1.193   0.414  14.866  0.7908 -1.6639  2.1156
 8185TIP3    H245971   1.049   0.377  14.896 -0.2354 -0.1391 -0.5910
 8186TIP3   OH245972   1.439   2.261   0.003 -0.0777  0.1057 -0.2473
 8186TIP3    H145973   1.423   2.255   0.097 -0.0011 -1.0171 -0.2857
 8186TIP3    H245974   1.364   2.309  -0.032 -1.0930 -1.1257  0.1556
 8187TIP3   OH245975   4.170   2.643   5.853 -0.2155 -0.0409 -0.1879
 8187TIP3    H145976   4.109   2.575   5.881 -1.4037  0.7072 -0.9235
 8187TIP3    H245977   4.219   2.665   5.933 -0.4296 -1.0981  0.2573
 8188TIP3   OH245978   2.890   2.739  11.157 -0.6698 -0.6398 -0.5985
 8188TIP3    H145979   2.816   2.747  11.096 -1.4693 -1.0500  0.3008
 8188TIP3    H245980   2.854   2.692  11.232  0.2563  0.0080  0.2707
 8189TIP3   OH245981   6.121   3.131   1.880  0.6787 -0.7764 -0.0467
 8189TIP3    H145982   6.095   3.074   1.807 -0.3362  0.1174 -0.4112
 8189TIP3    H245983   6.089   3.218   1.855  0.8307 -0.3392  1.2093
 8190TIP3   OH245984   0.206   5.590   0.318  0.2786  0.5762 -0.1958
 8190TIP3    H145985   0.295   5.602   0.285  0.9141  1.0994  1.6075
 8190TIP3    H245986   0.212   5.610   0.411 -1.4700 -0.6632  0.2266
 8191TIP3   OH245987   6.455   0.723   4.371 -0.3322 -0.2432 -0.1863
 8191TIP3    H145988   6.466   0.785   4.299 -2.2267  0.6604  0.2384
 8191TIP3    H245989   6.396   0.656   4.337  1.7620 -1.9627 -0.6707
 8192TIP3   OH245990   0.254   5.380  13.144 -0.7527 -0.1353 -0.3455
 8192TIP3    H145991   0.268   5.466  13.102 -1.9078  0.5619  0.6522
 8192TIP3    H245992   0.289   5.317  13.081  1.1696  1.1192 -0.6168
 8193TIP3   OH245993   3.483   0.413  15.518 -0.2405  0.5569 -0.3734
 8193TIP3    H145994   3.505   0.321  15.535 -0.9152  0.5590  0.6069
 8193TIP3    H245995   3.507   0.458  15.599 -1.5746  0.9506 -0.1870
 8194TIP3   OH245996   1.672   6.090  14.653 -0.3754  0.4358 -0.0021
 8194TIP3    H145997   1.723   6.167  14.627  0.8623 -0.1212  0.6720
 8194TIP3    H245998   1.714   6.018  14.607 -2.4753  0.2867 -1.8795
 8195TIP3   OH245999   3.140   2.457  12.895  1.0345  0.2438  0.1242
 8195TIP3    H146000   3.135   2.462  12.800  1.5082  0.8396  0.1226
 8195TIP3    H246001   3.058   2.414  12.921  0.6365  0.5889 -0.5128
 8196TIP3   OH246002   2.808   4.904  16.351 -0.1186 -0.0814  0.2452
 8196TIP3    H146003   2.743   4.870  16.290  0.9575 -0.3382 -0.8016
 8196TIP3    H246004   2.758   4.959  16.411 -1.4383 -1.0918  0.1038
 8197TIP3   OH246005   6.007   3.447  11.083 -0.2851 -0.1375 -0.3528
 8197TIP3    H146006   5.930   3.402  11.116 -0.6991  0.6554 -0.2366
 8197TIP3    H246007   6.080   3.406  11.129 -0.2622 -3.1082 -2.6820
 8198TIP3   OH246008   3.104   2.098  16.297 -0.3073  0.1635 -0.3784
 8198TIP3    H146009   3.044   2.171  16.313 -1.5687 -0.8027 -0.5433
 8198TIP3    H246010   3.177   2.113  16.358 -1.1169  0.9168  0.4316
 8199TIP3   OH246011   2.240   2.861   1.128 -0.5249 -0.1592  0.0050
 8199TIP3    H146012   2.225   2.953   1.150 -1.4084 -0.3817  0.3888
 8199TIP3    H246013   2.168   2.838   1.068  0.3710 -0.2767 -1.0397
 8200TIP3   OH246014   1.810   1.994   0.232  0.0356 -0.1076  0.0674
 8200TIP3    H146015   1.772   2.004   0.145  0.2135 -0.4351 -0.0462
 8200TIP3    H246016   1.738   2.016   0.292 -0.2746 -0.5284 -0.1494
 8201TIP3   OH246017   4.986   6.654   2.800  0.2868  0.2373 -0.1828
 8201TIP3    H146018   4.900   6.620   2.825  0.6035  0.4601  1.3003
 8201TIP3    H246019   5.046   6.582   2.817  0.7454  0.9597  1.4570
 8202TIP3   OH246020   1.921   3.604   1.893  0.3098 -0.2044  0.3963
 8202TIP3    H146021   1.989   3.537   1.882  1.5768  1.0199  0.4596
 8202TIP3    H246022   1.848   3.558   1.935  0.8953 -1.6736 -0.1190
 8203TIP3   OH246023   2.183   6.586  12.195  0.3063 -0.4774  0.2794
 8203TIP3    H146024   2.182   6.530  12.117  2.3571 -0.5312  0.2511
 8203TIP3    H246025   2.272   6.579  12.228 -0.0506  0.9542  1.6318
 8204TIP3   OH246026   1.443   1.608   5.755  0.2724  0.3006 -0.5262
 8204TIP3    H146027   1.512   1.560   5.710 -0.2356 -0.7677 -0.2129
 8204TIP3    H246028   1.485   1.641   5.834  0.3727 -0.6235 -0.1706
 8205TIP3   OH246029   1.051   5.882  11.080 -0.0713  0.2467  0.5494
 8205TIP3    H146030   1.088   5.817  11.020 -1.6881 -1.3270  1.1570
 8205TIP3    H246031   0.971   5.911  11.037  0.0158  0.9657  0.8536
 8206TIP3   OH246032   0.728   0.317  16.553  0.1270  0.0290 -0.1137
 8206TIP3    H146033   0.737   0.357  16.466 -0.0150  0.5538  0.1072
 8206TIP3    H246034   0.742   0.390  16.613  0.2258 -0.3349  0.3055
 8207TIP3   OH246035   4.951   4.030  15.713 -0.5296 -0.3723  0.1454
 8207TIP3    H146036   4.976   3.940  15.737  2.4553  0.9500  2.6988
 8207TIP3    H246037   5.034   4.075  15.700 -1.9303  2.1813 -0.5158
 8208TIP3   OH246038   1.397   1.448   1.027  0.0618 -0.4826  0.2100
 8208TIP3    H146039   1.383   1.374   0.969 -1.9727 -1.3407  1.6667
 8208TIP3    H246040   1.423   1.520   0.969 -2.9631 -0.9564 -1.9949
 8209TIP3   OH246041   4.303   3.840   4.634  0.2683  0.3796  0.2720
 8209TIP3    H146042   4.374   3.825   4.572  0.2400  1.2610  0.0101
 8209TIP3    H246043   4.226   3.852   4.578  0.1078  0.4550  0.5101
 8210TIP3   OH246044   3.814   6.303   0.624 -0.3498  0.3419  0.8464
 8210TIP3    H146045   3.873   6.288   0.550 -0.9201 -1.5550  0.7304
 8210TIP3    H246046   3.740   6.351   0.585  0.2214  1.0548  0.6093
 8211TIP3   OH246047   3.269   4.410  15.863 -0.1631  0.0890 -0.8358
 8211TIP3    H146048   3.231   4.416  15.775 -0.9547 -0.9839 -0.5754
 8211TIP3    H246049   3.264   4.499  15.897 -1.6084  0.1526 -1.1609
 8212TIP3   OH246050   6.592   3.066   3.103 -0.7515  0.2681 -0.1190
 8212TIP3    H146051   6.589   3.104   3.191  0.4240  1.7039 -0.6713
 8212TIP3    H246052   6.509   3.093   3.063 -0.1724  1.8860 -0.3161
 8213TIP3   OH246053   4.620   2.132   0.028  0.2961 -0.6539  0.5897
 8213TIP3    H146054   4.558   2.081   0.081 -0.2145 -0.8534 -0.1760
 8213TIP3    H246055   4.676   2.176   0.092  1.1372 -2.6278  1.2823
 8214TIP3   OH246056   1.745   2.107   2.893 -0.1327 -0.1116  0.0868
 8214TIP3    H146057   1.703   2.183   2.932  1.0090 -0.1843  1.5303
 8214TIP3    H246058   1.678   2.068   2.837 -1.8010  0.1010  1.8548
 8215TIP3   OH246059   1.503   6.771  13.106  0.1740  0.2931  0.1418
 8215TIP3    H146060   1.546   6.709  13.048  1.5073  1.2469  0.0614
 8215TIP3    H246061   1.509   6.855  13.060 -1.0641  0.5969  0.5039
 8216TIP3   OH246062   1.944   3.134  11.389  0.1087  0.2495 -0.5235
 8216TIP3    H146063   2.018   3.133  11.328 -0.5454  1.8751 -1.4222
 8216TIP3    H246064   1.984   3.136  11.475  1.0778 -0.8536 -0.9188
 8217TIP3   OH246065   1.526   0.420  17.214  0.3413 -0.6437 -0.1941
 8217TIP3    H146066   1.443   0.398  17.172 -1.2091  0.6243  1.9862
 8217TIP3    H246067   1.555   0.500  17.170 -1.3099  0.7267  1.0783
 8218TIP3   OH246068   4.485   3.848   2.687 -0.9924 -0.2078  0.0537
 8218TIP3    H146069   4.561   3.906   2.693  1.2028 -2.8022 -0.7289
 8218TIP3    H246070   4.442   3.857   2.772 -1.1203  2.9024 -0.2277
 8219TIP3   OH246071   6.173   0.294  14.551 -0.5916 -0.4444  0.4918
 8219TIP3    H146072   6.215   0.269  14.633 -0.0452  0.8534  0.6254
 8219TIP3    H246073   6.245   0.311  14.491 -0.9846 -1.4994 -0.3235
 8220TIP3   OH246074   5.194   0.177  15.790 -0.7248  0.3945 -0.5170
 8220TIP3    H146075   5.235   0.147  15.709 -2.5239  2.0899 -2.1717
 8220TIP3    H246076   5.113   0.126  15.796 -0.0226 -0.6099  0.9492
 8221TIP3   OH246077   5.537   0.178   0.283 -0.4799  0.3309  0.3299
 8221TIP3    H146078   5.569   0.095   0.320 -1.5268  0.5665  1.8597
 8221TIP3    H246079   5.556   0.243   0.351 -1.3456  1.0035 -0.0625
 8222TIP3   OH246080   3.381   2.372   1.517 -0.5370 -0.2640  0.7384
 8222TIP3    H146081   3.359   2.456   1.558  0.1505 -0.8127  2.2932
 8222TIP3    H246082   3.310   2.314   1.544  0.4558 -0.9007  2.0947
 8223TIP3   OH246083   4.754   3.287  12.739 -0.1532  0.1457 -0.0456
 8223TIP3    H146084   4.814   3.214  12.724 -0.7302 -0.4477  0.4711
 8223TIP3    H246085   4.795   3.338  12.809 -0.9208 -1.0618  1.3340
 8224TIP3   OH246086   5.540   1.729   2.145  0.2827 -0.3389 -0.0268
 8224TIP3    H146087   5.577   1.649   2.182  1.7824 -0.5641 -1.8707
 8224TIP3    H246088   5.577   1.799   2.198  1.6088 -0.6983 -0.4573
 8225TIP3   OH246089   1.673   4.874   1.717  0.1965  0.2856 -0.1004
 8225TIP3    H146090   1.707   4.886   1.805 -1.6968  0.3704  0.6659
 8225TIP3    H246091   1.714   4.793   1.687  2.1339  1.0917  0.1664
 8226TIP3   OH246092   3.555   2.265  14.473 -0.6012 -0.1641 -0.1434
 8226TIP3    H146093   3.491   2.281  14.403 -0.9241 -0.3493  0.1081
 8226TIP3    H246094   3.530   2.325  14.543  0.1130  0.4814 -0.4265
 8227TIP3   OH246095   0.268   6.175  15.788  0.4648  0.1849  0.0915
 8227TIP3    H146096   0.274   6.100  15.729 -0.3797 -0.9123  1.3387
 8227TIP3    H246097   0.177   6.176  15.817  0.9667  0.3604  1.7692
 8228TIP3   OH246098   2.855   1.935   0.415  0.0127 -0.1906 -0.6929
 8228TIP3    H146099   2.800   1.861   0.443 -1.1341  0.6604 -0.5945
 8228TIP3    H246100   2.796   2.011   0.420  0.9932  0.6334 -1.3717
 8229TIP3   OH246101   3.419   3.710   0.321 -0.4464 -0.4735 -0.1932
 8229TIP3    H146102   3.495   3.654   0.307  0.1878 -0.1481  1.6765
 8229TIP3    H246103   3.435   3.753   0.405 -2.9629 -0.8296  0.5650
 8230TIP3   OH246104   2.389   0.812  15.285 -0.3720 -0.1270 -0.0372
 8230TIP3    H146105   2.334   0.741  15.318  0.7399 -1.4782 -0.9494
 8230TIP3    H246106   2.382   0.881  15.351 -2.6451 -0.4733  0.1702
 8231TIP3   OH246107   0.303   3.857   1.147 -0.5607 -0.1194 -0.5970
 8231TIP3    H146108   0.338   3.826   1.063  2.1416  0.6011  0.1741
 8231TIP3    H246109   0.328   3.790   1.210 -1.6241 -0.1279 -0.1608
 8232TIP3   OH246110   2.339   2.835   3.149  0.4453 -0.4525  0.0100
 8232TIP3    H146111   2.272   2.806   3.087  0.3847  0.7295 -0.5218
 8232TIP3    H246112   2.332   2.931   3.148  1.9086 -0.3217  0.1994
 8233TIP3   OH246113   4.465   0.206   4.933  0.1415 -0.6104  0.0856
 8233TIP3    H146114   4.515   0.189   4.853 -0.9800  1.2731 -1.0899
 8233TIP3    H246115   4.385   0.249   4.903  0.3021  1.4677  2.2996
 8234TIP3   OH246116   1.673   4.614  12.191  0.2705 -0.3009 -0.1149
 8234TIP3    H146117   1.696   4.654  12.274 -1.7641  0.7741  0.0045
 8234TIP3    H246118   1.704   4.676  12.125  0.4007 -0.3387 -0.0893
 8235TIP3   OH246119   5.235   6.215   3.543  0.5410 -0.7356  0.4267
 8235TIP3    H146120   5.225   6.256   3.457  0.8848  0.0813  0.7647
 8235TIP3    H246121   5.145   6.211   3.577  0.6771  2.0761  1.4111
 8236TIP3   OH246122   4.566   2.763   5.669  0.2296 -0.5472  0.0893
 8236TIP3    H146123   4.592   2.845   5.710 -0.0065  0.7028 -2.0930
 8236TIP3    H246124   4.560   2.784   5.576  0.0545 -3.0273 -0.5293
 8237TIP3   OH246125   3.467   1.600  13.610  0.5783  0.0580 -0.2810
 8237TIP3    H146126   3.561   1.608  13.625  0.2243  1.8019  1.2476
 8237TIP3    H246127   3.426   1.651  13.679 -1.4991  0.0473 -1.4044
 8238TIP3   OH246128   6.504   1.347  11.233 -0.2862  0.1090 -0.1549
 8238TIP3    H146129   6.580   1.384  11.187  0.5583  0.6320  1.5872
 8238TIP3    H246130   6.505   1.389  11.318 -0.0461 -2.9080  1.4722
 8239TIP3   OH246131   1.033   4.834   4.678  0.5339 -0.0067 -0.1101
 8239TIP3    H146132   1.073   4.921   4.688  1.0561 -0.3276  0.7082
 8239TIP3    H246133   0.978   4.824   4.755  1.6303 -0.9872  0.5807
 8240TIP3   OH246134   2.829   4.040   1.252  0.2329  0.2833 -0.5167
 8240TIP3    H146135   2.881   4.068   1.177  0.1058  1.3327 -0.2253
 8240TIP3    H246136   2.782   4.118   1.279  1.5492  0.3751  1.7255
 8241TIP3   OH246137   1.910   2.968   4.972  0.2941 -0.1053  0.3800
 8241TIP3    H146138   1.943   2.966   4.882 -1.7069  0.8291 -0.4514
 8241TIP3    H246139   1.817   2.988   4.962  0.1265  0.5086  2.7064
 8242TIP3   OH246140   4.633   5.956   2.175 -0.1219  0.3286  0.0143
 8242TIP3    H146141   4.646   6.033   2.119 -1.9678  1.4066  0.9822
 8242TIP3    H246142   4.578   5.898   2.122  0.4605  0.0855 -0.3377
 8243TIP3   OH246143   5.767   4.670  16.923  0.4368  0.3141  0.3625
 8243TIP3    H146144   5.773   4.703  17.013  1.7504 -1.3677  0.9505
 8243TIP3    H246145   5.706   4.597  16.929  0.2673  0.4110 -0.1918
 8244TIP3   OH246146   0.240   0.538   3.047 -0.2813 -0.1406  0.3323
 8244TIP3    H146147   0.266   0.612   3.103 -1.0766 -0.9677  1.8488
 8244TIP3    H246148   0.322   0.494   3.026  0.2677  1.3865 -0.9747
 8245TIP3   OH246149   0.554   4.980  17.085  0.4782 -0.3974 -0.5950
 8245TIP3    H146150   0.630   4.952  17.035  0.1498 -2.3352 -0.0703
 8245TIP3    H246151   0.554   4.926  17.164 -1.9356 -1.1394 -1.0078
 8246TIP3   OH246152   2.829   5.396  12.964 -0.3358  0.0439  0.3964
 8246TIP3    H146153   2.898   5.428  13.022 -0.3385  1.1292 -0.1897
 8246TIP3    H246154   2.754   5.452  12.982 -0.2243  0.6332 -0.9067
 8247TIP3   OH246155   3.126   5.709   5.337  0.1829 -0.7217  0.1579
 8247TIP3    H146156   3.087   5.667   5.413 -1.1158 -0.8536 -0.5470
 8247TIP3    H246157   3.140   5.799   5.364  0.5680 -0.9830  0.8404
 8248TIP3   OH246158   4.966   3.628   2.188  0.5236  0.0843  0.4894
 8248TIP3    H146159   4.988   3.576   2.265 -0.5016 -0.4486  0.4356
 8248TIP3    H246160   5.013   3.586   2.116  0.1691 -0.4126  0.5464
 8249TIP3   OH246161   2.762   5.569   5.951  0.1209 -0.0216  0.1660
 8249TIP3    H146162   2.811   5.603   6.026  0.2478 -2.2128  1.1689
 8249TIP3    H246163   2.828   5.534   5.892 -0.0385  0.7510 -0.4835
 8250TIP3   OH246164   6.397   6.266  13.016 -0.5926 -0.2494 -0.2210
 8250TIP3    H146165   6.377   6.185  13.063 -0.6205 -1.4331 -2.1464
 8250TIP3    H246166   6.313   6.311  13.008 -0.2825  0.9535  2.4724
 8251TIP3   OH246167   6.758   5.623  13.838  0.4626 -0.1734  0.0129
 8251TIP3    H146168   6.782   5.550  13.781 -0.8195 -1.0392  0.5195
 8251TIP3    H246169   6.668   5.644  13.813  1.0498  1.7323 -0.6001
 8252TIP3   OH246170   5.403   4.847  14.912 -0.3456 -0.2026  0.0424
 8252TIP3    H146171   5.443   4.766  14.945  0.9751 -0.1054 -1.2082
 8252TIP3    H246172   5.465   4.916  14.936 -0.9539  0.3049  0.1779
 8253TIP3   OH246173   5.491   4.959   5.117  0.0626 -0.3877  0.3517
 8253TIP3    H146174   5.561   4.929   5.058  0.3916  2.1749 -0.7011
 8253TIP3    H246175   5.411   4.928   5.076  0.4009 -0.2769 -0.4130
 8254TIP3   OH246176   3.190   0.549  13.874  0.0020  0.3996  0.3536
 8254TIP3    H146177   3.278   0.511  13.873  0.7200  1.9727 -1.3144
 8254TIP3    H246178   3.202   0.638  13.841 -2.5169 -0.1033 -2.3089
 8255TIP3   OH246179   5.699   3.808  15.238 -0.4861  0.0498  0.2515
 8255TIP3    H146180   5.681   3.745  15.169  0.2759 -0.6376  0.6583
 8255TIP3    H246181   5.635   3.878  15.225 -1.5000 -0.9185 -0.0657
 8256TIP3   OH246182   4.081   0.581   4.721  0.4694 -0.0548 -0.2123
 8256TIP3    H146183   4.025   0.653   4.693  0.5378 -0.0804 -0.4112
 8256TIP3    H246184   4.153   0.580   4.658  0.8849  0.2078  0.2504
 8257TIP3   OH246185   3.079   6.023  16.443  0.0109  0.1403 -0.1299
 8257TIP3    H146186   3.095   6.083  16.370 -0.1914 -2.1056 -2.1539
 8257TIP3    H246187   2.987   5.999  16.435  0.2404 -0.9164  0.2347
 8258TIP3   OH246188   3.306   4.923   1.847 -0.3140 -0.1867  0.2573
 8258TIP3    H146189   3.240   4.860   1.876  0.3508 -0.5028  1.1263
 8258TIP3    H246190   3.344   4.883   1.769 -0.1296 -0.7185  0.6099
 8259TIP3   OH246191   4.594   1.282   0.628  0.4842 -0.0471  0.3889
 8259TIP3    H146192   4.687   1.298   0.647  1.1371 -0.8955 -1.7622
 8259TIP3    H246193   4.568   1.353   0.570 -0.7702  1.1640  2.3205
 8260TIP3   OH246194   1.741   0.440   5.153  0.1745  0.3779  0.0488
 8260TIP3    H146195   1.815   0.452   5.212  0.0878  0.7158  0.0921
 8260TIP3    H246196   1.708   0.353   5.174 -0.6264  0.9595  1.3939
 8261TIP3   OH246197   2.811   1.048   5.665 -0.0089 -0.3370  0.0449
 8261TIP3    H146198   2.759   1.118   5.704  0.0685  0.0650 -0.5713
 8261TIP3    H246199   2.866   1.016   5.738  0.6305  0.8623  0.1185
 8262TIP3   OH246200   1.061   5.951  14.453 -0.3512  0.4189  0.5307
 8262TIP3    H146201   1.066   5.956  14.358 -0.3678  1.9859  0.5950
 8262TIP3    H246202   1.041   6.040  14.481 -0.0849  0.0322  2.0241
 8263TIP3   OH246203   1.056   0.445  13.797  0.3992  0.1111  0.3603
 8263TIP3    H146204   1.078   0.436  13.890 -1.7118 -0.8214  0.8211
 8263TIP3    H246205   0.982   0.505  13.795 -1.2748 -1.8542 -0.4066
 8264TIP3   OH246206   4.031   6.706   0.509  0.4616 -0.0803 -0.3583
 8264TIP3    H146207   4.108   6.649   0.508  0.4277 -0.1594  0.7992
 8264TIP3    H246208   3.968   6.662   0.566  0.1136  0.7028 -0.1199
 8265TIP3   OH246209   1.539   0.979  12.662 -0.2726  0.4391 -0.2274
 8265TIP3    H146210   1.494   0.946  12.584  0.9267  2.6030 -1.9569
 8265TIP3    H246211   1.540   1.074  12.651  0.2856  0.8031  2.2790
 8266TIP3   OH246212   5.754   0.511  14.371 -0.8162  0.2862  0.6191
 8266TIP3    H146213   5.798   0.519  14.456 -1.6988  1.1146  1.0210
 8266TIP3    H246214   5.661   0.499  14.393 -0.8807 -0.9369 -0.2123
 8267TIP3   OH246215   6.188   6.644   2.185  0.0841  0.7906  0.1912
 8267TIP3    H146216   6.166   6.688   2.267  1.1210  2.4100 -0.3500
 8267TIP3    H246217   6.203   6.716   2.123  0.2703 -0.3801 -1.1676
 8268TIP3   OH246218   2.980   4.857   1.527  0.1189 -0.1379 -0.9327
 8268TIP3    H146219   2.944   4.936   1.569 -0.0400 -0.2300 -0.8927
 8268TIP3    H246220   2.941   4.856   1.440 -1.0682 -0.9712 -0.4197
 8269TIP3   OH246221   4.277   1.777  12.924  0.2773 -0.6593 -1.2323
 8269TIP3    H146222   4.351   1.784  12.985 -0.7343  0.1094 -0.0538
 8269TIP3    H246223   4.214   1.721  12.969 -1.2227  1.3133 -0.7693
 8270TIP3   OH246224   2.065   4.994   4.454 -0.5324 -0.3106 -0.1346
 8270TIP3    H146225   2.085   4.919   4.399  0.5603 -0.8876  0.9996
 8270TIP3    H246226   2.021   4.956   4.531 -2.5953  0.5326 -0.8121
 8271TIP3   OH246227   6.692   5.097   1.950  0.3011  0.3274 -0.3822
 8271TIP3    H146228   6.673   5.188   1.927  1.3148  0.9586  1.0577
 8271TIP3    H246229   6.607   5.055   1.956 -0.1857  1.1869 -1.0322
 8272TIP3   OH246230   3.509   6.192  14.249 -0.3118 -0.0341  0.2668
 8272TIP3    H146231   3.573   6.259  14.274  1.1788 -1.0666 -0.6147
 8272TIP3    H246232   3.433   6.211  14.303  1.6413 -0.3239  3.3692
 8273TIP3   OH246233   3.878   5.348  16.705  0.5152  0.6459  0.0132
 8273TIP3    H146234   3.825   5.415  16.749 -1.1133 -0.5078 -0.0963
 8273TIP3    H246235   3.886   5.278  16.769 -0.7904 -0.5094 -1.0228
 8274TIP3   OH246236   4.854   4.910  12.055 -0.0373 -0.0658  0.3213
 8274TIP3    H146237   4.821   4.907  11.965  2.1090 -0.9114 -0.4945
 8274TIP3    H246238   4.813   4.835  12.098  0.3874 -0.8108 -0.5280
 8275TIP3   OH246239   2.057   5.771  15.480  0.2210  0.1943 -1.1726
 8275TIP3    H146240   1.999   5.809  15.546  0.3513  0.1608 -1.0378
 8275TIP3    H246241   2.108   5.845  15.447  1.7007 -0.0920  0.3158
 8276TIP3   OH246242   3.591   0.790  15.793  0.2672  0.3633  0.0304
 8276TIP3    H146243   3.568   0.816  15.882 -0.1619 -0.6302  0.2225
 8276TIP3    H246244   3.569   0.866  15.739  2.6789  1.8943  1.0230
 8277TIP3   OH246245   2.019   5.168  15.801  0.1443  0.5428 -0.7255
 8277TIP3    H146246   2.084   5.151  15.733 -0.1199 -0.2667 -0.7812
 8277TIP3    H246247   1.937   5.135  15.765  0.3645 -1.8268  0.7810
 8278TIP3   OH246248   1.931   3.487   2.537  0.0155  0.4372 -0.1053
 8278TIP3    H146249   1.844   3.473   2.499 -0.0109 -0.4098  0.2557
 8278TIP3    H246250   1.928   3.441   2.621  1.1724 -0.5528 -0.5893
 8279TIP3   OH246251   6.025   2.527   3.172  0.3050  0.0402  0.2317
 8279TIP3    H146252   6.049   2.461   3.237  1.7559 -1.5290 -1.7610
 8279TIP3    H246253   6.031   2.482   3.088 -1.8352  1.8792 -1.0343
 8280TIP3   OH246254   3.588   5.166  13.811 -0.2771  0.5719 -0.0317
 8280TIP3    H146255   3.583   5.105  13.737 -3.0894  0.3718  0.2195
 8280TIP3    H246256   3.644   5.121  13.875  1.4169  0.3297 -1.5872
 8281TIP3   OH246257   1.155   0.515  13.509 -0.5529 -0.0821 -0.6405
 8281TIP3    H146258   1.136   0.476  13.595 -0.7082 -0.6471 -0.9298
 8281TIP3    H246259   1.195   0.599  13.530 -1.9255  0.4538 -0.0029
 8282TIP3   OH246260   4.479   6.231  13.933 -0.0911 -0.2775 -0.1895
 8282TIP3    H146261   4.459   6.290  13.860  0.9437 -1.4185 -1.4434
 8282TIP3    H246262   4.402   6.175  13.941 -0.8007  0.7532  0.5736
 8283TIP3   OH246263   4.771   1.826  11.605  0.4316 -0.0475  0.1402
 8283TIP3    H146264   4.852   1.838  11.654 -0.3029  1.4812  1.0420
 8283TIP3    H246265   4.748   1.734  11.620  1.1214 -0.0616  1.2462
 8284TIP3   OH246266   1.476   6.018   1.490 -0.0590 -0.4073  0.6107
 8284TIP3    H146267   1.436   6.052   1.409  0.4206  1.6029  1.1488
 8284TIP3    H246268   1.403   6.007   1.550 -0.1411  0.5751  0.7057
 8285TIP3   OH246269   0.845   0.815  17.124 -0.2324 -0.0099 -0.1043
 8285TIP3    H146270   0.752   0.833  17.119  0.0347  1.7928  0.6555
 8285TIP3    H246271   0.882   0.892  17.168  1.5689 -0.7972 -0.1615
 8286TIP3   OH246272   5.546   4.579   0.510 -0.8306 -0.0075 -0.3176
 8286TIP3    H146273   5.558   4.673   0.518  0.0895 -0.1600  0.2624
 8286TIP3    H246274   5.555   4.561   0.416 -1.9424  0.5825 -0.5563
 8287TIP3   OH246275   1.748   6.409  16.213  0.8171  0.8098  0.0636
 8287TIP3    H146276   1.756   6.400  16.118 -2.4189  1.2747 -0.3421
 8287TIP3    H246277   1.827   6.457  16.239  2.0116  0.2678 -2.2742
 8288TIP3   OH246278   5.136   2.576   2.899  0.1448 -0.4439  0.6420
 8288TIP3    H146279   5.136   2.651   2.959  0.8619 -0.0424  0.1639
 8288TIP3    H246280   5.055   2.530   2.918 -0.9357  1.1502  0.1143
 8289TIP3   OH246281   5.441   2.198  15.953  0.0686 -0.3313 -0.1109
 8289TIP3    H146282   5.378   2.257  15.914 -0.1564 -0.3576  0.2105
 8289TIP3    H246283   5.527   2.236  15.932 -0.0149 -0.8415 -1.4219
 8290TIP3   OH246284   5.766   0.450   3.476 -0.7806 -0.3340 -0.2969
 8290TIP3    H146285   5.799   0.422   3.391 -1.4537  0.2514 -0.7601
 8290TIP3    H246286   5.765   0.370   3.529  0.3239 -0.5691 -0.5998
 8291TIP3   OH246287   1.237   3.524   1.520  0.3787  0.4889 -0.3813
 8291TIP3    H146288   1.282   3.442   1.500 -1.2386  0.1919 -3.5117
 8291TIP3    H246289   1.301   3.592   1.501  0.5161  0.0021 -1.8179
 8292TIP3   OH246290   4.367   2.739  10.670  0.1043  0.1257 -1.3308
 8292TIP3    H146291   4.392   2.690  10.592 -0.9690 -0.4188 -1.3449
 8292TIP3    H246292   4.279   2.708  10.692  0.3846  0.2667  0.1039
 8293TIP3   OH246293   2.190   5.006   2.858  0.0204 -0.1495  0.3565
 8293TIP3    H146294   2.127   4.936   2.844 -0.9480  0.8187 -0.2512
 8293TIP3    H246295   2.167   5.072   2.793  0.2342  1.2114  1.6362
 8294TIP3   OH246296   6.506   5.261   6.559  0.3160 -0.0671 -0.2164
 8294TIP3    H146297   6.505   5.197   6.487  1.7343 -0.7142  0.3053
 8294TIP3    H246298   6.514   5.208   6.638  1.7975  0.7351  0.2100
 8295TIP3   OH246299   1.563   0.883   4.701  0.1192  0.4477 -0.5320
 8295TIP3    H146300   1.555   0.854   4.610  0.9994 -0.8119 -0.2331
 8295TIP3    H246301   1.472   0.889   4.732 -0.2411  1.7750 -1.7260
 8296TIP3   OH246302   1.455   4.262  14.427 -0.0855  0.0475  0.1649
 8296TIP3    H146303   1.446   4.257  14.522  0.2071 -0.2990  0.1768
 8296TIP3    H246304   1.426   4.176  14.396  0.0449  0.0787 -0.0421
 8297TIP3   OH246305   2.807   1.849  10.976  0.0256 -0.1864 -0.0172
 8297TIP3    H146306   2.779   1.918  10.917 -0.8247 -0.0301  0.5420
 8297TIP3    H246307   2.833   1.777  10.919 -0.9563 -0.1066 -0.5788
 8298TIP3   OH246308   0.192   2.650  16.513 -0.4789 -0.0251  0.2362
 8298TIP3    H146309   0.103   2.615  16.521 -0.4389 -0.2505 -0.2577
 8298TIP3    H246310   0.182   2.744  16.524 -1.1304  0.2552 -2.1993
 8299TIP3   OH246311   6.092   2.299   4.936 -0.0060  0.3001  0.4994
 8299TIP3    H146312   6.025   2.232   4.947  0.3090 -0.5352 -2.0152
 8299TIP3    H246313   6.048   2.368   4.887  0.8293 -0.1029 -0.8601
 8300TIP3   OH246314   3.043   0.418   6.571 -0.1236 -0.5873  0.3798
 8300TIP3    H146315   3.114   0.470   6.533 -0.6470  0.8146  1.2261
 8300TIP3    H246316   3.032   0.345   6.511  1.3321 -0.2737 -0.3215
 8301TIP3   OH246317   2.640   3.527   5.092 -0.3232  0.5139  0.0690
 8301TIP3    H146318   2.610   3.512   5.181  0.2234  2.7221  0.6865
 8301TIP3    H246319   2.722   3.575   5.102  0.8279 -0.9505 -1.6266
 8302TIP3   OH246320   5.493   5.769   5.799  0.1573  0.0787 -0.4897
 8302TIP3    H146321   5.458   5.715   5.728 -0.3656 -0.7588  0.3767
 8302TIP3    H246322   5.459   5.856   5.783 -4.2134 -1.0360  1.4248
 8303TIP3   OH246323   6.328   3.997  13.051 -0.0456  0.2228 -0.7112
 8303TIP3    H146324   6.285   3.913  13.068  1.2817 -0.7239 -1.7906
 8303TIP3    H246325   6.417   3.986  13.086  0.3038  0.9843 -1.3286
 8304TIP3   OH246326   2.517   5.976  16.951 -0.0233  0.2977  0.2883
 8304TIP3    H146327   2.490   6.019  16.870 -0.2237  0.8280  0.6289
 8304TIP3    H246328   2.437   5.969  17.003  0.0160 -0.4509  0.2617
 8305TIP3   OH246329   3.561   3.806  14.317 -0.1584 -0.1648  0.1895
 8305TIP3    H146330   3.554   3.717  14.281 -0.3026 -0.0550 -0.0651
 8305TIP3    H246331   3.554   3.795  14.411  0.3343 -0.4735  0.1924
 8306TIP3   OH246332   2.986   0.892   4.960 -0.4925 -0.2740  0.5074
 8306TIP3    H146333   2.928   0.919   5.032 -0.0659  0.8112  0.4579
 8306TIP3    H246334   3.009   0.974   4.916 -0.4121 -0.8802 -0.6223
 8307TIP3   OH246335   1.350   0.918   3.686  0.1465 -0.0775 -0.0639
 8307TIP3    H146336   1.261   0.931   3.655  0.6287  2.3216 -0.7054
 8307TIP3    H246337   1.347   0.838   3.737 -2.7291  0.6975  1.1814
 8308TIP3   OH246338   2.291   2.824   2.775 -0.1147 -0.0371  0.0189
 8308TIP3    H146339   2.307   2.917   2.762 -1.4779 -0.1503 -3.7430
 8308TIP3    H246340   2.218   2.820   2.836  0.6032  1.2742  1.0045
 8309TIP3   OH246341   2.996   2.600   2.159 -0.2631  0.1470 -0.2843
 8309TIP3    H146342   2.932   2.541   2.119  0.7712 -3.0958  2.4468
 8309TIP3    H246343   3.064   2.610   2.092  0.2550 -3.1103 -0.3964
 8310TIP3   OH246344   1.823   0.623   5.999  0.2381 -0.0697  0.6196
 8310TIP3    H146345   1.761   0.689   5.967  1.2566  0.6131 -0.0176
 8310TIP3    H246346   1.770   0.563   6.051 -1.2112 -0.3443 -1.0966
 8311TIP3   OH246347   0.388   1.487  14.813 -0.2279  0.7181 -0.3666
 8311TIP3    H146348   0.360   1.429  14.742 -0.4236  1.6452 -1.0729
 8311TIP3    H246349   0.306   1.515  14.854 -0.1073  0.0473  0.3557
 8312TIP3   OH246350   1.723   3.814   3.380  0.6119  0.2084  0.0257
 8312TIP3    H146351   1.747   3.795   3.471  1.1525 -1.0835 -0.3661
 8312TIP3    H246352   1.781   3.886   3.355  0.2616  0.7681  0.7853
 8313TIP3   OH246353   2.039   4.568   2.307 -0.1698 -0.3187 -0.2682
 8313TIP3    H146354   2.108   4.516   2.348  0.6215  1.4329  0.7240
 8313TIP3    H246355   2.032   4.532   2.219  1.1305 -1.3577  0.0131
 8314TIP3   OH246356   3.584   5.438  17.189  0.0164 -0.6663 -0.0732
 8314TIP3    H146357   3.578   5.364  17.129 -1.2741 -1.2489  0.7377
 8314TIP3    H246358   3.496   5.446  17.225  0.1345  1.2616 -0.1257
 8315TIP3   OH246359   2.932   2.313   0.494  0.0453 -0.2059 -0.3455
 8315TIP3    H146360   2.963   2.245   0.435 -0.4974  0.1161 -1.0095
 8315TIP3    H246361   2.984   2.390   0.473  0.3692 -0.2908  0.1192
 8316TIP3   OH246362   2.802   4.263  14.423 -0.2425 -0.5748 -0.0197
 8316TIP3    H146363   2.802   4.180  14.471  0.5377 -1.0142 -0.7644
 8316TIP3    H246364   2.877   4.311  14.457  1.3911 -1.6040 -1.9506
 8317TIP3   OH246365   4.695   0.192  12.040  0.3963 -0.5873  0.5107
 8317TIP3    H146366   4.603   0.201  12.016  0.6234  0.1844 -0.0839
 8317TIP3    H246367   4.739   0.166  11.959  0.6946 -1.0650  0.8149
 8318TIP3   OH246368   4.195   3.275   6.021 -0.0886 -0.0251  0.3710
 8318TIP3    H146369   4.177   3.214   6.091  1.0697  0.0341  0.7471
 8318TIP3    H246370   4.289   3.293   6.028  0.4653 -1.3761 -2.2671
 8319TIP3   OH246371   5.273   0.904   3.731  0.0371 -0.2673 -0.1730
 8319TIP3    H146372   5.365   0.907   3.756 -0.0370 -0.6657  0.1513
 8319TIP3    H246373   5.273   0.878   3.639  0.3202  1.3346 -0.6602
 8320TIP3   OH246374   5.630   3.677  13.307 -0.2212  0.2860  0.0381
 8320TIP3    H146375   5.697   3.643  13.248  0.2389  1.5336 -0.1951
 8320TIP3    H246376   5.547   3.657  13.264 -0.1357 -2.7193  1.0959
 8321TIP3   OH246377   6.279   5.896   2.120 -0.2122  0.6209  0.5098
 8321TIP3    H146378   6.237   5.816   2.153  2.0006 -0.4835  0.8522
 8321TIP3    H246379   6.275   5.957   2.193  1.0710 -0.4182  1.5178
 8322TIP3   OH246380   6.742   3.531   3.702  0.8105  0.2656  0.9177
 8322TIP3    H146381   6.780   3.619   3.705  1.3143  0.0944 -0.0633
 8322TIP3    H246382   6.814   3.473   3.729  1.7077 -0.1725 -2.0639
 8323TIP3   OH246383   4.307   1.447   0.992 -0.3979  0.3025 -0.3474
 8323TIP3    H146384   4.351   1.477   0.913  5.0456 -2.4655  1.1808
 8323TIP3    H246385   4.334   1.508   1.060  0.3664 -0.9202  0.4820
 8324TIP3   OH246386   5.616   1.343   3.321  0.4895  0.3291 -0.4499
 8324TIP3    H146387   5.594   1.397   3.397 -0.1305 -1.0886  0.4253
 8324TIP3    H246388   5.674   1.275   3.356 -0.4555 -0.8231 -1.0456
 8325TIP3   OH246389   3.210   4.685   2.946 -0.4950  0.8666 -0.6140
 8325TIP3    H146390   3.129   4.642   2.973  0.1134  0.7284  1.1154
 8325TIP3    H246391   3.231   4.647   2.861 -1.1912 -0.5768 -0.1606
 8326TIP3   OH246392   0.466   6.693  12.683 -0.1183  0.0540  0.0212
 8326TIP3    H146393   0.402   6.668  12.750 -0.8825  3.7784  0.9160
 8326TIP3    H246394   0.429   6.659  12.601 -1.9515 -0.0861  0.8380
 8327TIP3   OH246395   3.249   5.685   3.201 -0.6392 -0.1321  0.5002
 8327TIP3    H146396   3.211   5.665   3.115 -1.0109  1.4600  0.2695
 8327TIP3    H246397   3.266   5.599   3.240 -3.5070 -0.9481  0.1718
 8328TIP3   OH246398   4.516   0.892   2.505  0.6466  0.1674 -0.5874
 8328TIP3    H146399   4.422   0.881   2.487  0.7025  0.4567 -1.0586
 8328TIP3    H246400   4.541   0.970   2.456  1.1482  0.0571 -0.5106
 8329TIP3   OH246401   0.881   6.522   1.296 -0.2660  0.4092 -0.3574
 8329TIP3    H146402   0.956   6.550   1.243 -1.3885  2.6223 -0.9230
 8329TIP3    H246403   0.875   6.589   1.365 -1.0071 -0.4139  0.3939
 8330TIP3   OH246404   1.938   1.669   4.151 -0.0879  0.0055  0.3789
 8330TIP3    H146405   1.920   1.579   4.179  1.4938  0.0511  1.6497
 8330TIP3    H246406   2.000   1.660   4.079 -1.1665  0.0468 -0.5846
 8331TIP3   OH246407   6.611   5.792  15.841  0.1835  0.2014  0.5794
 8331TIP3    H146408   6.671   5.818  15.771 -0.6891  0.3373 -0.1419
 8331TIP3    H246409   6.556   5.869  15.855  0.0317  0.0057  1.0685
 8332TIP3   OH246410   1.940   0.317   3.057 -0.1540  0.4750 -0.1451
 8332TIP3    H146411   1.895   0.321   2.973 -0.7971 -0.1031  0.1664
 8332TIP3    H246412   2.013   0.378   3.048 -1.4238  2.0223 -0.4017
 8333TIP3   OH246413   6.596   1.703  12.366 -0.1040 -0.6604 -0.0404
 8333TIP3    H146414   6.627   1.786  12.401 -0.2779 -1.2268  1.5560
 8333TIP3    H246415   6.536   1.727  12.296  0.0117  0.5472  0.2498
 8334TIP3   OH246416   2.815   0.782  15.689 -0.5488  1.0038 -0.0633
 8334TIP3    H146417   2.894   0.792  15.743 -0.0721  2.5218 -0.9988
 8334TIP3    H246418   2.829   0.841  15.615 -2.1969  0.6474 -0.6862
 8335TIP3   OH246419   1.332   3.081  14.335 -0.2653  0.0710  0.3761
 8335TIP3    H146420   1.310   3.154  14.393 -0.4957  0.6389 -0.4122
 8335TIP3    H246421   1.349   3.122  14.250  0.9823 -0.6434  0.2518
 8336TIP3   OH246422   0.071   5.818   0.798  0.3858  0.3942  0.2269
 8336TIP3    H146423  -0.015   5.799   0.836 -0.3708  0.8352 -1.1700
 8336TIP3    H246424   0.103   5.893   0.848 -0.2961  0.5661  0.4175
 8337TIP3   OH246425   3.616   3.951  15.387  0.3602  0.1549  1.0623
 8337TIP3    H146426   3.698   3.984  15.423  1.0583 -1.4668  1.0720
 8337TIP3    H246427   3.631   3.949  15.292  0.9645 -1.5599  1.1437
 8338TIP3   OH246428   1.014   3.176   2.594 -0.3198  0.2311  0.2872
 8338TIP3    H146429   1.093   3.213   2.633  0.7832 -1.4828 -0.2039
 8338TIP3    H246430   1.032   3.083   2.587 -1.4088  0.1102 -2.0887
 8339TIP3   OH246431   0.149   5.572  16.873 -0.2727  0.2273  0.1977
 8339TIP3    H146432   0.070   5.525  16.899  1.0679 -2.2312  0.1141
 8339TIP3    H246433   0.184   5.607  16.955 -0.3643 -0.4519  0.5368
 8340TIP3   OH246434   0.779   3.188   3.063  0.0646  0.5212 -0.4448
 8340TIP3    H146435   0.688   3.215   3.054 -0.4455 -0.2880  1.6530
 8340TIP3    H246436   0.823   3.265   3.100  0.0490  0.6303 -0.6519
 8341TIP3   OH246437   3.371   1.704   4.065 -0.1896  0.0109 -0.2745
 8341TIP3    H146438   3.430   1.700   4.141 -1.4119 -0.1088  0.7063
 8341TIP3    H246439   3.406   1.639   4.005  1.0730  0.4159 -0.0320
 8342TIP3   OH246440   3.296   4.707  16.600  0.0045 -0.7669  0.6232
 8342TIP3    H146441   3.304   4.612  16.591  0.9559 -0.5683 -1.0274
 8342TIP3    H246442   3.280   4.738  16.511 -2.9347  0.4457  1.4474
 8343TIP3   OH246443   4.211   1.684  12.663  0.1091  0.1032  0.1403
 8343TIP3    H146444   4.120   1.658  12.651 -0.6403  2.5711 -0.0958
 8343TIP3    H246445   4.217   1.711  12.754  1.2132 -2.0026  0.7565
 8344TIP3   OH246446   4.426   0.894   3.285  0.4112  0.3323  0.0415
 8344TIP3    H146447   4.343   0.891   3.237  1.5586 -2.3096 -2.0862
 8344TIP3    H246448   4.483   0.949   3.231  0.5695  0.6796  0.5571
 8345TIP3   OH246449   5.109   4.318   3.652 -0.7538  0.8798  0.9497
 8345TIP3    H146450   5.183   4.258   3.642 -0.2235  1.7427 -0.6693
 8345TIP3    H246451   5.091   4.319   3.746 -0.2013 -1.0983  1.1128
 8346TIP3   OH246452   5.792   0.727   4.471 -0.1980 -0.2439  0.2040
 8346TIP3    H146453   5.763   0.807   4.428  2.7855  1.4670  1.1463
 8346TIP3    H246454   5.740   0.722   4.551 -0.8179  0.4299 -0.1481
 8347TIP3   OH246455   4.465   4.258   1.241 -0.3046 -0.2120 -0.2283
 8347TIP3    H146456   4.415   4.180   1.267  1.8903 -1.4890  0.4036
 8347TIP3    H246457   4.517   4.228   1.166  0.4048  0.7139 -0.1139
 8348TIP3   OH246458   2.115   1.457  16.052  0.5770 -0.3531  0.1619
 8348TIP3    H146459   2.182   1.464  16.120  2.1159 -0.9841 -1.2264
 8348TIP3    H246460   2.063   1.381  16.078  1.1083 -0.5534  0.6653
 8349TIP3   OH246461   1.350   4.492   0.031  0.2477 -0.1890 -0.1706
 8349TIP3    H146462   1.430   4.478  -0.018  0.1846  4.0897 -1.8771
 8349TIP3    H246463   1.282   4.449  -0.021  0.6682  1.3589 -2.0952
 8350TIP3   OH246464   4.893   5.865   3.252 -0.3029 -0.1442 -0.2607
 8350TIP3    H146465   4.880   5.958   3.271 -0.7217 -0.0628 -0.9219
 8350TIP3    H246466   4.813   5.823   3.283 -1.0057 -0.0077 -1.7782
 8351TIP3   OH246467   6.528   5.274  14.771  0.1491  0.0524 -0.2920
 8351TIP3    H146468   6.507   5.188  14.733  0.4633 -0.1738  0.0331
 8351TIP3    H246469   6.491   5.337  14.709  0.1895 -0.3136 -0.7008
 8352TIP3   OH246470   5.193   2.038  11.644 -0.1870 -0.1014 -0.1060
 8352TIP3    H146471   5.148   1.964  11.685 -0.4901 -0.7613 -1.5583
 8352TIP3    H246472   5.126   2.082  11.592  0.1306  0.8377  0.2547
 8353TIP3   OH246473   5.672   1.046  12.718 -0.2074 -0.2793  0.6285
 8353TIP3    H146474   5.737   1.051  12.648 -0.8989 -0.4187 -0.0367
 8353TIP3    H246475   5.613   0.977  12.691  0.6293 -1.7327  2.3473
 8354TIP3   OH246476   1.902   1.630  16.168 -0.0938  0.5603  0.1108
 8354TIP3    H146477   1.969   1.629  16.099 -0.8988 -0.8434 -0.6725
 8354TIP3    H246478   1.897   1.539  16.198 -3.3028  0.0880 -1.5103
 8355TIP3   OH246479   6.326   4.696   7.014 -0.0363 -0.2594 -0.7690
 8355TIP3    H146480   6.352   4.769   7.071  0.3056 -0.9054 -0.0920
 8355TIP3    H246481   6.408   4.656   6.987 -0.1689  0.3375 -2.1346
 8356TIP3   OH246482   2.874   5.184   5.272  0.0232 -0.4503 -0.7270
 8356TIP3    H146483   2.963   5.163   5.244  0.2425 -0.0141 -0.3671
 8356TIP3    H246484   2.882   5.267   5.319 -0.5899 -0.3506 -0.7868
 8357TIP3   OH246485   3.099   3.186   1.154  0.0001 -0.2399 -0.0612
 8357TIP3    H146486   3.152   3.128   1.100 -1.0440 -0.6988 -0.6293
 8357TIP3    H246487   3.115   3.157   1.244 -0.6887 -1.5696 -0.3543
 8358TIP3   OH246488   4.547   3.059  14.727  0.3636  0.1771  0.1571
 8358TIP3    H146489   4.526   3.024  14.813 -0.6369  0.6107  0.0963
 8358TIP3    H246490   4.579   3.148  14.744 -1.5752  0.9636 -0.0170
 8359TIP3   OH246491   0.832   4.505  14.565  0.8032 -0.2463  0.0113
 8359TIP3    H146492   0.885   4.425  14.560 -0.1141 -1.1083  2.3587
 8359TIP3    H246493   0.742   4.474  14.553  0.6047  0.8575 -1.6194
 8360TIP3   OH246494   6.486   4.986   3.651  0.2675 -0.2268 -0.7082
 8360TIP3    H146495   6.396   5.008   3.675 -0.4938 -2.8330 -0.8304
 8360TIP3    H246496   6.478   4.942   3.566  1.2300 -2.9579  0.5036
 8361TIP3   OH246497   5.550   6.231   5.603  0.5934 -0.4177 -0.0153
 8361TIP3    H146498   5.596   6.157   5.642  1.0489  0.2366  0.7301
 8361TIP3    H246499   5.465   6.196   5.577  0.1439 -0.8278  1.8698
 8362TIP3   OH246500   5.612   5.330   2.492 -0.1442  0.1838 -0.2195
 8362TIP3    H146501   5.622   5.258   2.429 -0.3001 -1.8223  1.8877
 8362TIP3    H246502   5.632   5.289   2.576 -1.1630  2.4357  1.1804
 8363TIP3   OH246503   2.663   0.053  14.066  0.2823 -0.7373 -0.5379
 8363TIP3    H146504   2.580   0.086  14.034  0.6738 -1.1878 -2.0855
 8363TIP3    H246505   2.665  -0.039  14.039  0.4832 -1.2530  1.1308
 8364TIP3   OH246506   2.248   0.152   4.133  0.4694  0.4527  0.1576
 8364TIP3    H146507   2.252   0.069   4.085  2.5222  0.6936 -0.1926
 8364TIP3    H246508   2.160   0.186   4.116  0.7182 -0.0225 -2.5570
 8365TIP3   OH246509   3.620   1.626  12.694 -0.1439  0.2841 -0.6298
 8365TIP3    H146510   3.670   1.643  12.774  2.3968  2.0457 -2.4302
 8365TIP3    H246511   3.642   1.536  12.670  1.4406  0.7097 -0.8533
 8366TIP3   OH246512   4.882   2.284   5.701 -0.2739 -0.2644 -0.8675
 8366TIP3    H146513   4.893   2.233   5.781 -3.1394 -1.0503 -0.8521
 8366TIP3    H246514   4.852   2.370   5.730 -0.0914 -0.1306 -1.0672
 8367TIP3   OH246515   5.835   3.098  16.413  0.9534 -0.1631 -0.2737
 8367TIP3    H146516   5.902   3.052  16.362 -0.7079 -1.0636 -1.7967
 8367TIP3    H246517   5.847   3.190  16.391  1.5732 -0.3278 -0.6558
 8368TIP3   OH246518   6.567   3.093  11.302 -1.1171  0.5740 -0.2714
 8368TIP3    H146519   6.520   3.024  11.349 -0.6359  0.6253  0.3044
 8368TIP3    H246520   6.632   3.124  11.365  1.4119 -1.2040 -1.8525
 8369TIP3   OH246521   5.674   2.057  15.608 -0.7470 -0.2192  0.3339
 8369TIP3    H146522   5.685   2.010  15.690 -0.4044  0.4990  0.7133
 8369TIP3    H246523   5.686   2.149  15.631 -1.1875  0.0435 -0.4235
 8370TIP3   OH246524   0.456   5.648   5.205 -0.5288  0.2549  0.0102
 8370TIP3    H146525   0.532   5.615   5.156  1.2227  2.8010  0.7914
 8370TIP3    H246526   0.386   5.587   5.184  1.4120 -1.5562 -1.7242
 8371TIP3   OH246527   4.992   6.052   3.978 -0.0228 -0.3278  1.2407
 8371TIP3    H146528   5.039   5.972   3.953 -0.4918 -0.2954  0.1559
 8371TIP3    H246529   4.901   6.034   3.954 -0.3636  0.0590  2.1857
 8372TIP3   OH246530   4.076   6.728   5.554  0.2050  0.7766 -0.1480
 8372TIP3    H146531   4.068   6.809   5.504 -0.6061  0.5125 -0.4688
 8372TIP3    H246532   4.068   6.755   5.645 -1.2151  0.9443 -0.3016
 8373TIP3   OH246533   0.160   5.672   4.806 -0.1782  0.2441  0.2478
 8373TIP3    H146534   0.171   5.731   4.731  1.1305 -1.5726 -1.0788
 8373TIP3    H246535   0.229   5.699   4.867  0.2271  0.2922 -0.2206
 8374TIP3   OH246536   2.063   4.676   5.397 -0.2195  0.1862  0.4410
 8374TIP3    H146537   2.025   4.652   5.312  0.2888  1.0067 -0.0241
 8374TIP3    H246538   1.997   4.649   5.461 -0.1016 -1.5440 -0.1142
 8375TIP3   OH246539   0.134   4.999   5.482  0.1103  0.0603  0.4462
 8375TIP3    H146540   0.154   4.913   5.519 -0.0153 -0.6976 -1.1934
 8375TIP3    H246541   0.055   5.027   5.528  0.3937 -0.4969  1.2887
 8376TIP3   OH246542   3.223   6.541  16.822  0.0622  0.0930 -0.6319
 8376TIP3    H146543   3.308   6.529  16.865  1.4612  2.1479 -2.5729
 8376TIP3    H246544   3.229   6.486  16.743  0.1019  1.1425 -1.3798
 8377TIP3   OH246545   0.448   3.803  11.880 -0.1774 -0.1850  0.1114
 8377TIP3    H146546   0.440   3.708  11.884 -0.7843 -0.1624 -0.3805
 8377TIP3    H246547   0.522   3.819  11.821 -0.7568 -0.3535 -0.6866
 8378TIP3   OH246548   3.858   3.292  14.059  0.4056 -0.0934 -0.3654
 8378TIP3    H146549   3.795   3.340  14.113  0.7667 -0.6257  0.5444
 8378TIP3    H246550   3.812   3.278  13.976 -0.1149  0.8368 -0.2521
 8379TIP3   OH246551   0.430   4.574   3.460  0.0386 -0.0606 -0.5132
 8379TIP3    H146552   0.340   4.544   3.477 -0.4953  0.3833 -2.3510
 8379TIP3    H246553   0.475   4.563   3.544 -1.6778 -0.4650  0.4027
 8380TIP3   OH246554   0.211   0.326  11.639 -0.5277  0.0819 -0.7456
 8380TIP3    H146555   0.156   0.398  11.606  0.9417  0.8032 -1.7091
 8380TIP3    H246556   0.202   0.258  11.573 -2.9072 -1.2081  0.7658
 8381TIP3   OH246557   2.151   2.049  14.222  0.2374  0.7772  0.3130
 8381TIP3    H146558   2.186   1.996  14.150  2.1428  1.2553  0.8232
 8381TIP3    H246559   2.193   2.013  14.300  0.2348  1.9534  0.8715
 8382TIP3   OH246560   4.635   4.893  16.535  0.1381  0.4604  0.4748
 8382TIP3    H146561   4.580   4.966  16.563 -0.9498  0.4878 -1.5133
 8382TIP3    H246562   4.579   4.816  16.542 -0.3538  0.5335 -1.8852
 8383TIP3   OH246563   1.667   3.652  12.025  0.1904  0.1835  0.2996
 8383TIP3    H146564   1.741   3.712  12.034 -0.2791  0.6058  1.5025
 8383TIP3    H246565   1.708   3.567  12.004  0.8653  0.8578 -1.3526
 8384TIP3   OH246566   1.745   2.550   3.519 -0.4796  0.9376 -0.5560
 8384TIP3    H146567   1.808   2.596   3.463 -0.0890  0.0828 -0.8387
 8384TIP3    H246568   1.777   2.460   3.523 -0.6706  0.9073  0.8158
 8385TIP3   OH246569   3.069   3.285   4.534 -0.2102 -0.5147  0.1822
 8385TIP3    H146570   2.992   3.341   4.524  0.4190 -0.0731 -3.9064
 8385TIP3    H246571   3.141   3.347   4.551  0.0195 -0.3102 -1.3963
 8386TIP3   OH246572   0.267   6.064   3.509  0.2716 -0.1425 -0.1801
 8386TIP3    H146573   0.354   6.026   3.494 -0.9485 -2.5420 -1.9686
 8386TIP3    H246574   0.267   6.090   3.601  2.5386 -1.0096  0.1281
 8387TIP3   OH246575   3.570   6.212   2.450 -0.1220  0.0728  0.3537
 8387TIP3    H146576   3.575   6.304   2.475 -0.2515  0.2442 -0.2422
 8387TIP3    H246577   3.513   6.172   2.516 -1.2381  0.7172 -0.1916
 8388TIP3   OH246578   3.531   6.645   4.535 -0.1552 -0.0891  0.2377
 8388TIP3    H146579   3.597   6.585   4.500  0.7184  0.6969  0.5171
 8388TIP3    H246580   3.478   6.669   4.460  0.9124  0.5745 -0.3244
 8389TIP3   OH246581   0.613   5.806   2.169  0.2591 -0.0991 -0.2610
 8389TIP3    H146582   0.669   5.865   2.219 -1.6146  0.7086  0.9855
 8389TIP3    H246583   0.639   5.718   2.197  1.1033  0.2377  0.0487
 8390TIP3   OH246584   5.578   3.646   4.114  0.0335  0.4971 -0.8028
 8390TIP3    H146585   5.614   3.560   4.135  1.9503  1.2220 -0.8758
 8390TIP3    H246586   5.618   3.705   4.178 -0.7474  1.4444 -1.1524
 8391TIP3   OH246587   3.744   2.546   1.763 -0.6294 -0.2598  0.1763
 8391TIP3    H146588   3.664   2.561   1.711 -1.0586  0.1443  0.9409
 8391TIP3    H246589   3.718   2.567   1.853  0.7529  1.4407  0.2244
 8392TIP3   OH246590   3.452   2.279   0.106 -0.3507 -0.0962  0.4527
 8392TIP3    H146591   3.531   2.277   0.161 -0.2536 -0.3811  0.3027
 8392TIP3    H246592   3.446   2.191   0.069  1.1885  0.8088 -2.2575
 8393TIP3   OH246593   1.229   2.975  12.051 -0.0145  0.4792  0.4562
 8393TIP3    H146594   1.314   2.998  12.089 -0.8341  0.9905  2.1036
 8393TIP3    H246595   1.226   2.879  12.056  0.0679  0.5143  1.3549
 8394TIP3   OH246596   5.275   3.280  16.136 -0.0975 -0.2495  0.1474
 8394TIP3    H146597   5.224   3.348  16.093  0.7310  0.0635 -0.3688
 8394TIP3    H246598   5.352   3.326  16.169  0.6142 -0.9818 -0.4568
 8395TIP3   OH246599   6.726   3.076   4.352  0.2922  0.0493  0.3715
 8395TIP3    H146600   6.675   3.040   4.280  0.2984  0.4379  0.1675
 8395TIP3    H246601   6.679   3.156   4.378 -2.0307 -2.0906  3.5232
 8396TIP3   OH246602   5.568   6.156   1.842  0.4195  0.1253  0.3776
 8396TIP3    H146603   5.535   6.083   1.789  0.1466  0.9302 -0.5828
 8396TIP3    H246604   5.570   6.121   1.931  1.8864 -1.6230 -0.2718
 8397TIP3   OH246605   4.037   1.199  11.601 -0.1605  0.3455  0.1060
 8397TIP3    H146606   3.997   1.178  11.686  1.9788  0.0412  1.0989
 8397TIP3    H246607   4.114   1.143  11.597  0.9976  1.9397 -1.0500
 8398TIP3   OH246608   2.216   1.421  13.611  0.1088 -0.5209  0.0968
 8398TIP3    H146609   2.175   1.366  13.543  0.7551 -0.2985 -0.4824
 8398TIP3    H246610   2.310   1.410  13.597  0.3007  2.0825 -1.1689
 8399TIP3   OH246611   0.227   1.992  15.175 -0.3137  0.0046 -0.7660
 8399TIP3    H146612   0.238   2.069  15.120 -0.2141 -1.0370 -2.2652
 8399TIP3    H246613   0.243   2.023  15.264 -1.6668  2.0002 -1.1612
 8400TIP3   OH246614   3.364   5.932   4.580 -0.5540  0.4575  0.4912
 8400TIP3    H146615   3.423   6.002   4.553  0.7893 -1.3481 -1.6532
 8400TIP3    H246616   3.417   5.875   4.636 -0.7739 -0.2626 -0.0154
 8401TIP3   OH246617   1.410   3.127   0.827  0.1400 -0.2879  0.4913
 8401TIP3    H146618   1.367   3.044   0.846 -0.2984 -0.0714  0.4455
 8401TIP3    H246619   1.492   3.102   0.784 -1.0244 -0.6335 -1.6624
 8402TIP3   OH246620   3.874   4.169   5.187  0.3576 -0.1552 -0.4518
 8402TIP3    H146621   3.857   4.203   5.099  0.3542  0.9113 -0.0598
 8402TIP3    H246622   3.855   4.243   5.245 -0.1252 -0.9937  0.4884
 8403TIP3   OH246623   3.857   0.697   3.422 -0.1396 -0.0879 -0.3110
 8403TIP3    H146624   3.767   0.716   3.451 -1.3928 -3.1201 -1.7423
 8403TIP3    H246625   3.864   0.741   3.337  0.0868  0.8792  0.1933
 8404TIP3   OH246626   0.043   6.444   4.267 -0.7026  0.3810  0.0881
 8404TIP3    H146627   0.115   6.387   4.294 -0.9601 -1.5268 -2.8427
 8404TIP3    H246628   0.056   6.524   4.317  1.9827 -0.8081  1.4983
 8405TIP3   OH246629   6.236   4.095   0.991 -0.5182 -0.0153 -0.2213
 8405TIP3    H146630   6.232   4.107   0.896  0.8553  0.9525 -0.1807
 8405TIP3    H246631   6.173   4.025   1.009 -1.0155 -0.0065 -1.8007
 8406TIP3   OH246632   0.221   1.666   1.196  0.4985 -0.1841 -0.3095
 8406TIP3    H146633   0.296   1.726   1.188 -0.0934  0.4510 -1.2891
 8406TIP3    H246634   0.227   1.610   1.118  1.2356 -1.6686  0.7586
 8407TIP3   OH246635   6.301   0.144   3.000  0.3322  0.3660  0.1319
 8407TIP3    H146636   6.302   0.171   3.092  0.5330  0.0782  0.2165
 8407TIP3    H246637   6.215   0.169   2.968  0.2985  0.5588  0.3716
 8408TIP3   OH246638   5.221   3.542  16.351  0.0247 -0.2290  0.3219
 8408TIP3    H146639   5.171   3.621  16.330  0.4068 -0.3700 -1.2160
 8408TIP3    H246640   5.300   3.548  16.297 -1.4981 -3.3012 -2.5919
 8409TIP3   OH246641   0.025   3.533   3.187 -0.0269 -0.0644  0.3964
 8409TIP3    H146642  -0.042   3.472   3.155  1.4559 -1.4572 -0.2499
 8409TIP3    H246643   0.080   3.550   3.111 -0.6367  2.5111  0.4562
 8410TIP3   OH246644   4.319   2.236  14.764 -0.1184  0.0762 -0.1614
 8410TIP3    H146645   4.267   2.302  14.717  0.0590  1.5961  1.6429
 8410TIP3    H246646   4.382   2.205  14.700 -1.3150  0.4077 -1.5503
 8411TIP3   OH246647   3.608   1.498   1.734  0.4147 -0.1596 -0.1471
 8411TIP3    H146648   3.517   1.470   1.727  0.4449 -0.4474  0.5046
 8411TIP3    H246649   3.605   1.593   1.722 -0.3624  0.2534  2.5930
 8412TIP3   OH246650   2.345   4.169   3.847  0.0824  0.4644  0.2380
 8412TIP3    H146651   2.299   4.239   3.800 -0.7425  0.1582  0.5612
 8412TIP3    H246652   2.435   4.200   3.855  0.0874  0.8147 -0.9540
 8413TIP3   OH246653   1.557   4.082  11.536  0.1377  0.5976  0.4561
 8413TIP3    H146654   1.476   4.122  11.506  0.0453  0.4737  0.5395
 8413TIP3    H246655   1.547   3.989  11.517  0.2815  0.5890  0.4178
 8414TIP3   OH246656   1.118   4.661   1.449 -0.0981 -0.2979  0.1275
 8414TIP3    H146657   1.141   4.568   1.442 -1.2760 -0.6526  0.6591
 8414TIP3    H246658   1.127   4.681   1.542 -1.9787 -0.5062  0.4019
 8415TIP3   OH246659   5.667   0.637  15.703  0.1180  0.0868 -0.5410
 8415TIP3    H146660   5.620   0.679  15.775  2.1344 -0.6733  1.3230
 8415TIP3    H246661   5.673   0.705  15.636  0.3124  1.6737  0.9955
 8416TIP3   OH246662   6.148   5.810  12.673 -0.1729 -0.5560  0.1271
 8416TIP3    H146663   6.225   5.852  12.633 -1.1060  0.1068 -1.0280
 8416TIP3    H246664   6.158   5.826  12.767  1.0132 -0.3413 -0.0220
 8417TIP3   OH246665   2.327   2.586  14.620 -0.1450 -0.0931 -0.5975
 8417TIP3    H146666   2.276   2.545  14.690 -1.5542 -0.8649 -2.0209
 8417TIP3    H246667   2.269   2.653  14.584 -0.3436 -1.2297 -2.4904
 8418TIP3   OH246668   1.810   1.165  11.598 -0.0144 -0.5085 -0.2291
 8418TIP3    H146669   1.859   1.241  11.628 -0.0343 -1.3540  2.1281
 8418TIP3    H246670   1.872   1.119  11.540  0.5985  0.3737 -0.3017
 8419TIP3   OH246671   0.041   1.223  15.171 -0.1784  0.5376 -0.0025
 8419TIP3    H146672  -0.010   1.285  15.118  1.2422  0.9217 -0.9786
 8419TIP3    H246673   0.003   1.229  15.258 -2.2519  0.2937 -0.8367
 8420TIP3   OH246674   4.061   5.597   2.566 -0.0058 -0.6713  0.4055
 8420TIP3    H146675   4.080   5.548   2.647 -1.5824  0.4829  1.5221
 8420TIP3    H246676   4.031   5.530   2.505 -1.2111 -1.2779  1.6045
 8421TIP3   OH246677   0.471   3.437   3.641 -0.1079  0.0276 -0.0867
 8421TIP3    H146678   0.413   3.507   3.612  0.9626  1.0464  0.1713
 8421TIP3    H246679   0.520   3.413   3.563  1.0004  1.0428  0.2596
 8422TIP3   OH246680   1.070   0.538   1.654  0.0287 -0.3615  0.1845
 8422TIP3    H146681   1.086   0.597   1.728 -1.3090  0.8367 -0.4462
 8422TIP3    H246682   1.022   0.464   1.693  1.8185 -1.1742  0.9972
 8423TIP3   OH246683   6.128   2.279  14.374  0.3124  0.4756 -0.0675
 8423TIP3    H146684   6.074   2.203  14.351  0.7651 -0.3400  1.3787
 8423TIP3    H246685   6.069   2.337  14.421  0.3819  0.1559  0.4267
 8424TIP3   OH246686   1.696   2.418  11.868  0.4534 -0.3289  0.0551
 8424TIP3    H146687   1.685   2.398  11.775  1.1508  1.3541 -0.4407
 8424TIP3    H246688   1.607   2.429  11.901  0.2027  2.3642 -1.2618
 8425TIP3   OH246689   3.471   6.553  16.929  0.0620  0.0090 -0.2347
 8425TIP3    H146690   3.522   6.563  17.009  0.1374 -5.1282  0.7030
 8425TIP3    H246691   3.534   6.523  16.863 -0.8715 -1.7856 -0.3863
 8426TIP3   OH246692   5.097   6.298  16.828  0.2709  0.4179  0.3593
 8426TIP3    H146693   5.107   6.239  16.753  0.5277 -0.7038  1.2307
 8426TIP3    H246694   5.184   6.338  16.838 -0.0506  1.3921 -0.5641
 8427TIP3   OH246695   1.474   5.031   6.385  0.7705 -0.1917 -0.6645
 8427TIP3    H146696   1.540   5.009   6.320  0.2619 -0.3604 -1.1282
 8427TIP3    H246697   1.441   4.946   6.416 -0.4996 -0.1299 -1.7483
 8428TIP3   OH246698   6.471   5.641  11.280 -0.0289  0.1320  0.3609
 8428TIP3    H146699   6.379   5.648  11.304 -0.1527  1.9714 -0.4876
 8428TIP3    H246700   6.505   5.573  11.337 -1.5860  0.4163  1.7129
 8429TIP3   OH246701   0.960   1.837  14.052  0.2724  0.0480 -0.1384
 8429TIP3    H146702   0.903   1.796  14.118 -0.2053 -0.4143 -0.8265
 8429TIP3    H246703   0.907   1.908  14.016 -0.1402 -0.7940 -1.2451
 8430TIP3   OH246704   1.381   4.749   6.018 -0.1666 -0.8192  0.1703
 8430TIP3    H146705   1.360   4.725   6.108  0.3785  1.8730  1.1080
 8430TIP3    H246706   1.298   4.742   5.971 -0.7819 -0.8789  1.2302
 8431TIP3   OH246707   1.654   1.477  12.526  0.3784 -0.0877  0.3176
 8431TIP3    H146708   1.705   1.457  12.604 -0.2685 -0.5800  0.6227
 8431TIP3    H246709   1.712   1.532  12.473  1.8431 -1.9324 -0.0979
 8432TIP3   OH246710   1.375   4.647  12.497  0.1207 -0.1709 -0.3902
 8432TIP3    H146711   1.463   4.627  12.530 -0.3321 -0.2580  0.8091
 8432TIP3    H246712   1.356   4.734  12.533 -0.4523 -0.3343 -0.2980
 8433TIP3   OH246713   4.478   3.888   6.119  0.3923  0.7607  0.1136
 8433TIP3    H146714   4.411   3.929   6.174  0.4382 -0.8105  1.4239
 8433TIP3    H246715   4.550   3.868   6.179  0.2560 -1.4413 -0.3822
 8434TIP3   OH246716   4.558   1.346  16.624 -0.0690 -0.4691 -0.0403
 8434TIP3    H146717   4.549   1.389  16.539  0.5129 -3.2925 -1.6820
 8434TIP3    H246718   4.600   1.411  16.680 -0.2476  1.4120 -1.9642
 8435TIP3   OH246719   3.307   3.335  16.000  0.2543  0.1425  0.2219
 8435TIP3    H146720   3.386   3.348  15.948 -0.1507  0.0309 -0.4352
 8435TIP3    H246721   3.260   3.418  15.994 -0.4972 -0.3334 -0.8220
 8436TIP3   OH246722   2.855   6.383  15.831 -0.7034  0.3972 -0.4526
 8436TIP3    H146723   2.879   6.293  15.811 -1.4202  0.1422 -0.2118
 8436TIP3    H246724   2.781   6.402  15.772 -1.4425  0.3569  0.4411
 8437TIP3   OH246725   0.147   6.150  16.145  0.4603 -0.0540  0.1330
 8437TIP3    H146726   0.219   6.214  16.151 -0.0816  0.5425  0.3388
 8437TIP3    H246727   0.190   6.070  16.115  1.1217  0.4636 -0.3635
 8438TIP3   OH246728   0.519   0.813  11.603  0.5053 -0.6057  0.1299
 8438TIP3    H146729   0.581   0.851  11.666 -0.0108 -1.0641  0.9378
 8438TIP3    H246730   0.532   0.863  11.523 -0.3131  1.4528  1.2100
 8439TIP3   OH246731   3.998   1.326   0.678 -0.1252 -0.2903  0.1737
 8439TIP3    H146732   4.028   1.301   0.765  0.2053  0.0367  0.1514
 8439TIP3    H246733   3.905   1.345   0.690  0.0873  0.4989  0.6092
 8440TIP3   OH246734   2.841   0.349   3.641 -0.2231 -0.1902 -0.1354
 8440TIP3    H146735   2.776   0.411   3.672  0.6195  1.2120 -1.0983
 8440TIP3    H246736   2.879   0.312   3.721 -1.1635  0.0422  0.4357
 8441TIP3   OH246737   5.611   2.646   3.799 -0.2913 -0.5774  0.3853
 8441TIP3    H146738   5.643   2.687   3.719 -0.1684  0.4958  0.9680
 8441TIP3    H246739   5.650   2.698   3.870 -0.8639 -1.1499  1.1380
 8442TIP3   OH246740   3.984   2.105  15.199 -0.2489  0.3308  0.0449
 8442TIP3    H146741   3.910   2.055  15.233  0.9210 -1.0947  0.6048
 8442TIP3    H246742   3.945   2.164  15.134 -1.7541 -1.0629 -0.4073
 8443TIP3   OH246743   1.990   6.113  16.172  0.2017 -0.2017  0.3189
 8443TIP3    H146744   1.944   6.098  16.089 -1.4291 -0.0082  1.1608
 8443TIP3    H246745   1.960   6.043  16.230 -0.1521  0.7501  1.3195
 8444TIP3   OH246746   2.081   6.493  13.024 -0.0281  0.2284 -0.0126
 8444TIP3    H146747   2.067   6.416  12.969 -0.4865 -0.1064  0.5606
 8444TIP3    H246748   2.098   6.564  12.962 -2.4382  0.2739 -0.7243
 8445TIP3   OH246749   0.627   3.524  12.973  0.3453  0.3072 -0.4775
 8445TIP3    H146750   0.646   3.441  12.929 -0.7784 -0.8980  1.1857
 8445TIP3    H246751   0.533   3.537  12.959  0.2267  0.5364  0.4989
 8446TIP3   OH246752   6.247   5.167  11.767 -0.0436  0.3427  0.5639
 8446TIP3    H146753   6.204   5.196  11.847 -0.0953  0.1012  0.6220
 8446TIP3    H246754   6.322   5.116  11.797  0.3622  0.8730  0.4644
 8447TIP3   OH246755   4.035   2.525  13.279  0.1476 -0.1396 -0.2689
 8447TIP3    H146756   3.994   2.442  13.253 -1.3530  0.5240 -0.0822
 8447TIP3    H246757   3.964   2.576  13.318  1.3828  0.6343  1.0757
 8448TIP3   OH246758   0.074   4.413  13.554  0.3786 -0.2623  0.8378
 8448TIP3    H146759   0.131   4.490  13.558 -0.7169  0.5752  0.9363
 8448TIP3    H246760  -0.011   4.445  13.584 -0.0497 -1.5772  1.0870
 8449TIP3   OH246761   1.055   1.554   0.097 -0.1542 -0.1490  0.3994
 8449TIP3    H146762   1.095   1.540   0.183  1.3579 -0.1491 -0.2825
 8449TIP3    H246763   1.082   1.643   0.073  3.1721 -1.6026 -1.9409
 8450TIP3   OH246764   5.793   2.214   2.404 -0.3811  0.0419 -0.0858
 8450TIP3    H146765   5.794   2.201   2.309 -0.3179 -0.3383 -0.0346
 8450TIP3    H246766   5.711   2.176   2.434 -0.7541  0.8314 -0.0738
 8451TIP3   OH246767   2.436   3.710  15.889  0.4978  0.2603 -0.0238
 8451TIP3    H146768   2.476   3.791  15.856  1.7930  0.1496  1.1955
 8451TIP3    H246769   2.455   3.710  15.983 -1.8968 -0.1198  0.5141
 8452TIP3   OH246770   5.654   5.579   5.080 -0.3341 -0.0059 -0.0302
 8452TIP3    H146771   5.590   5.515   5.048  0.7856  0.3246 -3.2451
 8452TIP3    H246772   5.723   5.526   5.120 -0.6274 -0.6220 -0.3252
 8453TIP3   OH246773   5.313   5.083   1.586  0.1246  0.0740  0.3390
 8453TIP3    H146774   5.395   5.131   1.593  0.0206  0.0455  2.0406
 8453TIP3    H246775   5.247   5.150   1.569 -0.0114  0.5915  2.6269
 8454TIP3   OH246776   1.915   5.476  11.737 -0.5999 -0.5283 -0.1223
 8454TIP3    H146777   2.008   5.493  11.720 -0.1446 -2.5335  0.0210
 8454TIP3    H246778   1.879   5.561  11.761  1.6807 -0.0256  1.9322
 8455TIP3   OH246779   5.663   4.015  16.409  0.8281  0.6891 -0.6903
 8455TIP3    H146780   5.716   4.066  16.348 -0.5174  1.5224 -1.2149
 8455TIP3    H246781   5.642   3.935  16.362  0.7359  0.8253 -0.8795
 8456TIP3   OH246782   6.215   2.975   2.089 -0.1727 -0.7004 -0.2282
 8456TIP3    H146783   6.197   3.024   2.008 -0.3155 -0.4509 -0.0467
 8456TIP3    H246784   6.131   2.935   2.111 -0.5024  0.3752  0.5589
 8457TIP3   OH246785   0.959   0.529  13.305  0.7371  0.2320 -0.1646
 8457TIP3    H146786   1.015   0.525  13.383  1.0340 -1.6274 -0.4341
 8457TIP3    H246787   0.993   0.460  13.248 -0.8624  0.0965 -0.9972
 8458TIP3   OH246788   1.064   3.145  14.919 -0.2444  0.7165  0.6275
 8458TIP3    H146789   1.078   3.092  14.997 -0.2908  0.6619  0.5986
 8458TIP3    H246790   1.152   3.157  14.882 -0.2382  0.6303  0.6146
 8459TIP3   OH246791   4.722   3.674   4.206  0.1386  0.1460 -0.7016
 8459TIP3    H146792   4.768   3.718   4.135  1.9062  1.6614  1.2558
 8459TIP3    H246793   4.700   3.745   4.267  0.0983 -1.2924  1.0129
 8460TIP3   OH246794   0.989   1.036  12.654 -0.0776 -0.2185 -0.3715
 8460TIP3    H146795   0.907   1.086  12.661 -0.1491 -0.2913 -0.6792
 8460TIP3    H246796   1.046   1.094  12.603 -0.5740 -0.9616 -1.8389
 8461TIP3   OH246797   5.020   6.007  17.106  0.3130  0.1187  0.0123
 8461TIP3    H146798   5.045   5.990  17.197 -1.8667 -0.7388  0.5183
 8461TIP3    H246799   4.931   6.042  17.112 -0.6226 -1.7020 -1.8222
 8462TIP3   OH246800   5.532   3.927   3.784 -0.1610  0.0429 -0.1606
 8462TIP3    H146801   5.625   3.908   3.775  0.0396  1.0110 -0.3444
 8462TIP3    H246802   5.523   3.965   3.871 -0.5403 -0.8845  0.2049
 8463TIP3   OH246803   0.343   2.726   2.344  0.1852 -0.4635 -0.0331
 8463TIP3    H146804   0.401   2.803   2.339  0.2617 -0.5075  0.1633
 8463TIP3    H246805   0.356   2.693   2.433  1.9766 -2.1176 -0.8271
 8464TIP3   OH246806   3.842   0.548   2.063  0.5600 -0.6587  0.1355
 8464TIP3    H146807   3.902   0.619   2.040  0.6598 -0.7531  0.1043
 8464TIP3    H246808   3.882   0.470   2.026  0.5452 -0.7592  0.3301
 8465TIP3   OH246809   6.612   0.746   1.055 -0.2757 -0.2894 -0.3681
 8465TIP3    H146810   6.695   0.750   1.102  0.3550 -1.6655 -1.2829
 8465TIP3    H246811   6.559   0.816   1.092  0.3087 -1.0675  2.1189
 8466TIP3   OH246812   2.243   5.806  12.329  0.4765 -0.5759  0.1486
 8466TIP3    H146813   2.330   5.826  12.293  0.5930 -0.7393  0.3389
 8466TIP3    H246814   2.253   5.818  12.423  0.0272  0.3805  0.0842
 8467TIP3   OH246815   3.304   0.735   1.969  0.1254  0.3951 -0.0088
 8467TIP3    H146816   3.264   0.741   2.056 -1.7022 -2.6294 -0.5089
 8467TIP3    H246817   3.381   0.679   1.981 -0.1853 -0.1105 -0.3318
 8468TIP3   OH246818   4.142   1.331  12.157  0.3498 -0.7759 -0.1289
 8468TIP3    H146819   4.106   1.347  12.244  1.1782 -0.2333  0.1236
 8468TIP3    H246820   4.114   1.407  12.105 -0.6232 -1.3682 -0.5085
 8469TIP3   OH246821   3.389   2.549  15.627 -0.2689 -0.6476  0.5398
 8469TIP3    H146822   3.459   2.488  15.603 -0.0361 -0.3163  0.3724
 8469TIP3    H246823   3.386   2.612  15.556 -1.9354 -1.6571 -0.3310
 8470TIP3   OH246824   5.216   0.519  15.642  0.8734 -0.5601  0.4149
 8470TIP3    H146825   5.181   0.581  15.578 -1.0208 -0.8520  1.1000
 8470TIP3    H246826   5.209   0.433  15.600  0.3495 -0.6665  0.7099
 8471TIP3   OH246827   2.248   6.078   5.310 -0.5103 -0.7256 -0.7293
 8471TIP3    H146828   2.171   6.057   5.364  0.3466 -0.7281  0.5276
 8471TIP3    H246829   2.322   6.045   5.361  0.3774 -0.1396 -1.6196
 8472TIP3   OH246830   4.535   4.857   2.662 -0.2397  0.2993 -0.0036
 8472TIP3    H146831   4.478   4.933   2.648 -0.8388  0.0338  0.8872
 8472TIP3    H246832   4.484   4.783   2.631  0.1573  0.2084 -0.4361
 8473TIP3   OH246833   1.513   0.070   2.426 -0.2406  0.0673  0.3055
 8473TIP3    H146834   1.428   0.114   2.430  0.2014  1.1586 -1.3928
 8473TIP3    H246835   1.526   0.036   2.515 -2.4854 -0.2358  0.5784
 8474TIP3   OH246836   5.712   3.497   0.400 -0.2718 -0.6824 -0.4835
 8474TIP3    H146837   5.712   3.511   0.495  1.0136 -1.4717 -0.3480
 8474TIP3    H246838   5.756   3.413   0.388 -1.2572 -1.0587 -1.7327
 8475TIP3   OH246839   2.507   2.436  11.166  0.3067 -0.0914 -0.4729
 8475TIP3    H146840   2.490   2.527  11.188 -2.6888 -0.2555 -1.7102
 8475TIP3    H246841   2.540   2.438  11.076 -0.8485 -0.2742 -0.9111
 8476TIP3   OH246842   6.034   5.510  10.914 -0.2935 -0.1123 -0.0615
 8476TIP3    H146843   5.979   5.441  10.876 -1.4909  0.5247  0.4648
 8476TIP3    H246844   6.091   5.536  10.843 -1.6682  0.2093 -1.0935
 8477TIP3   OH246845   4.516   1.585   2.109 -0.0366  0.2436  0.2385
 8477TIP3    H146846   4.504   1.643   2.184 -0.1036  0.6565 -0.0863
 8477TIP3    H246847   4.428   1.550   2.091 -0.0120  0.1080  0.3800
 8478TIP3   OH246848   3.351   1.819  10.585  0.2568  0.4906  0.0869
 8478TIP3    H146849   3.346   1.729  10.617 -2.7981  1.4230  2.7174
 8478TIP3    H246850   3.282   1.826  10.520 -0.8627  1.3540  1.3175
 8479TIP3   OH246851   1.219   0.402  16.016  0.4425 -0.0624 -0.1606
 8479TIP3    H146852   1.158   0.344  16.062  0.3085 -0.4127 -0.7656
 8479TIP3    H246853   1.256   0.457  16.085 -0.9018  0.4716  0.1807
 8480TIP3   OH246854   4.030   2.917   1.448  0.0454 -0.7207 -0.1834
 8480TIP3    H146855   3.960   2.867   1.490 -0.4695 -1.0371 -1.3931
 8480TIP3    H246856   4.040   2.879   1.361 -1.3754  2.1244 -1.7459
 8481TIP3   OH246857   2.274   5.171  13.433 -0.4358  0.0959  0.3650
 8481TIP3    H146858   2.286   5.212  13.519  1.6539  0.6811 -0.1496
 8481TIP3    H246859   2.324   5.089  13.438  0.8947  0.8059 -0.7054
 8482TIP3   OH246860   3.509   4.554   6.116  0.0094 -0.6024 -1.0535
 8482TIP3    H146861   3.482   4.471   6.156 -1.2332 -0.1009 -0.7977
 8482TIP3    H246862   3.436   4.613   6.132  1.1906  0.7817 -0.5684
 8483TIP3   OH246863   1.287   5.798   3.938  0.4239 -0.0868  0.4634
 8483TIP3    H146864   1.272   5.864   4.006 -1.9503  0.5803 -0.5898
 8483TIP3    H246865   1.310   5.850   3.861 -1.0787 -0.4464 -0.2731
 8484TIP3   OH246866   6.237   0.414   3.825 -0.4255 -0.0800  0.4423
 8484TIP3    H146867   6.144   0.410   3.799 -0.5548 -3.2528  1.0096
 8484TIP3    H246868   6.256   0.508   3.831 -3.7177  0.6883  0.7573
 8485TIP3   OH246869   2.211   5.600   1.210 -0.1459  0.1650 -0.2366
 8485TIP3    H146870   2.268   5.537   1.255  0.2080 -0.1761 -1.1485
 8485TIP3    H246871   2.174   5.551   1.137 -1.9135  0.2829  0.5444
 8486TIP3   OH246872   1.975   4.070  13.573 -0.1469  0.8441 -0.2058
 8486TIP3    H146873   1.978   4.022  13.490 -1.2330  1.2241 -0.4915
 8486TIP3    H246874   1.966   4.161  13.547 -2.7973  0.8085  0.2496
 8487TIP3   OH246875   0.153   5.910  10.724 -0.1984 -0.2022 -0.1613
 8487TIP3    H146876   0.242   5.875  10.735 -0.1267  0.0034 -0.0652
 8487TIP3    H246877   0.162   5.975  10.655 -0.4472 -0.7790 -0.7368
 8488TIP3   OH246878   2.555   6.002   3.877 -0.1552  0.2052  0.3395
 8488TIP3    H146879   2.647   6.030   3.870  0.1240 -0.8445 -0.5254
 8488TIP3    H246880   2.527   5.990   3.786 -1.4761  1.4379  0.5419
 8489TIP3   OH246881   3.882   0.114  16.233 -0.0217 -0.5992  0.8963
 8489TIP3    H146882   3.821   0.114  16.159 -0.1504 -0.8019  1.0004
 8489TIP3    H246883   3.968   0.110  16.193 -0.0013  1.0637  0.6977
 8490TIP3   OH246884   5.084   0.554   4.714  0.0897 -0.3345  0.0552
 8490TIP3    H146885   5.021   0.525   4.647  2.0840 -0.3481 -1.9624
 8490TIP3    H246886   5.103   0.645   4.690 -0.5239  0.2868  1.7963
 8491TIP3   OH246887   6.039   5.775  11.920  0.3897  0.3860  0.0411
 8491TIP3    H146888   6.060   5.865  11.894  1.1751  0.4529  0.8498
 8491TIP3    H246889   6.043   5.725  11.839  0.4148  0.9994 -0.3448
 8492TIP3   OH246890   4.460   1.545  12.583  0.4748  0.3114  0.3479
 8492TIP3    H146891   4.370   1.577  12.592  0.2899 -0.2851  0.6404
 8492TIP3    H246892   4.462   1.463  12.632  0.5009 -0.9996 -1.7405
 8493TIP3   OH246893   2.918   4.883  11.802 -0.3666 -0.5107 -0.0028
 8493TIP3    H146894   2.993   4.927  11.762 -1.0721  0.6720 -0.0639
 8493TIP3    H246895   2.850   4.885  11.735 -1.2070  0.5208  0.8486
 8494TIP3   OH246896   3.755   1.330  15.843 -0.4448 -0.2181  0.3352
 8494TIP3    H146897   3.678   1.274  15.831 -0.4365 -0.2362  0.3678
 8494TIP3    H246898   3.777   1.359  15.754 -1.1777  0.7035  0.4297
 8495TIP3   OH246899   5.722   3.263  16.179  0.0507  0.3429 -0.1858
 8495TIP3    H146900   5.767   3.316  16.114  0.7244  0.6502  0.5225
 8495TIP3    H246901   5.645   3.315  16.203 -1.9229 -1.0335 -2.8616
 8496TIP3   OH246902   5.972   3.558   4.453  0.2822 -0.6416  0.0962
 8496TIP3    H146903   5.921   3.637   4.436 -0.0034 -0.3590  1.9926
 8496TIP3    H246904   6.062   3.583   4.434  0.2207  0.2241  0.8670
 8497TIP3   OH246905   5.785   5.145   3.846 -0.6874 -0.1690 -0.1516
 8497TIP3    H146906   5.701   5.112   3.879 -0.1051  0.5261  2.2009
 8497TIP3    H246907   5.772   5.153   3.751 -2.3355 -2.7084 -0.2317
 8498TIP3   OH246908   4.217   0.312  14.305 -0.2951 -0.0487  0.0985
 8498TIP3    H146909   4.251   0.237  14.353 -0.1789 -0.7444 -1.0299
 8498TIP3    H246910   4.200   0.278  14.217 -0.0792  1.2915 -0.4784
 8499TIP3   OH246911   2.401   5.225   6.703  0.1868  0.1082 -0.1822
 8499TIP3    H146912   2.324   5.281   6.709 -1.2761 -1.6179 -1.6547
 8499TIP3    H246913   2.466   5.268   6.758 -1.8245  1.6182  1.1783
 8500TIP3   OH246914   0.566   6.014  14.506  0.2725  0.0671  0.5533
 8500TIP3    H146915   0.481   5.987  14.539  1.2197 -0.9705  2.2857
 8500TIP3    H246916   0.618   5.934  14.504  0.9184  0.4580 -1.5809
 8501TIP3   OH246917   2.685   3.479   4.070 -0.1679 -0.4902  0.3034
 8501TIP3    H146918   2.686   3.562   4.118 -0.9241  1.8677 -3.3382
 8501TIP3    H246919   2.598   3.443   4.086 -0.8177  0.8212 -0.1085
 8502TIP3   OH246920   6.301   5.707   3.719 -0.1106 -0.7587  0.3315
 8502TIP3    H146921   6.312   5.683   3.627  1.9831  1.6339 -0.1794
 8502TIP3    H246922   6.207   5.707   3.734 -0.4700 -1.5194 -1.7118
 8503TIP3   OH246923   4.169   4.904  15.185 -0.5717  0.1824 -0.2355
 8503TIP3    H146924   4.174   4.956  15.266 -0.6396 -2.5016  1.6151
 8503TIP3    H246925   4.253   4.857  15.182 -1.4749 -1.4805 -0.4354
 8504TIP3   OH246926   0.339   2.723   4.777 -0.2430 -0.1086  0.1730
 8504TIP3    H146927   0.406   2.717   4.845 -0.1103  1.5730  0.2343
 8504TIP3    H246928   0.262   2.759   4.822 -1.0628 -1.5730  0.0010
 8505TIP3   OH246929   1.697   1.475  15.851 -0.2388 -0.0580  0.5785
 8505TIP3    H146930   1.772   1.525  15.819 -0.5192 -0.8042 -1.3974
 8505TIP3    H246931   1.733   1.388  15.870 -0.1677  0.2494  1.9094
 8506TIP3   OH246932   2.426   1.887   3.761  0.3224  0.1078 -0.3812
 8506TIP3    H146933   2.435   1.978   3.735  0.2735  0.4684  0.7864
 8506TIP3    H246934   2.463   1.883   3.849  1.8681 -1.3531 -1.0322
 8507TIP3   OH246935   2.885   1.354  13.900  0.7564 -0.1214  0.0220
 8507TIP3    H146936   2.930   1.328  13.980  2.4764  1.6301 -0.2970
 8507TIP3    H246937   2.921   1.295  13.833  0.0130 -0.9615  0.3387
 8508TIP3   OH246938   2.163   2.022   0.930 -0.0003 -0.1637  0.6990
 8508TIP3    H146939   2.248   2.050   0.896 -0.6122 -1.1268 -1.8859
 8508TIP3    H246940   2.180   1.938   0.971  0.8595  1.2776  3.5684
 8509TIP3   OH246941   4.334   5.163   5.796  0.1991  0.1291  0.0520
 8509TIP3    H146942   4.366   5.231   5.856  0.0701 -1.4095  1.9697
 8509TIP3    H246943   4.384   5.178   5.715  1.0189  1.7668  0.7981
 8510TIP3   OH246944   0.246   5.779   5.890 -0.1254  0.0104  0.2329
 8510TIP3    H146945   0.189   5.811   5.960  2.7574 -0.7587  3.1743
 8510TIP3    H246946   0.229   5.684   5.888 -0.0348 -0.0011  0.0695
 8511TIP3   OH246947   4.037   5.217   5.420 -0.2105 -1.0175 -0.0549
 8511TIP3    H146948   3.980   5.265   5.361  0.1087 -0.2119  0.2748
 8511TIP3    H246949   4.008   5.243   5.508  0.0940 -1.2698  0.1248
 8512TIP3   OH246950   0.119   6.048  16.514 -0.3135  0.4420  0.1856
 8512TIP3    H146951   0.087   6.063  16.603 -0.3190  0.7410  0.1332
 8512TIP3    H246952   0.117   5.953  16.504 -0.2536  0.4028  0.5264
 8513TIP3   OH246953   4.885   3.401   1.108 -0.0136  0.1914  0.2397
 8513TIP3    H146954   4.883   3.381   1.015 -0.0315 -0.5956  0.3993
 8513TIP3    H246955   4.828   3.335   1.148 -0.7468  1.0896  0.7078
 8514TIP3   OH246956   2.343   4.040   0.855 -0.2391 -0.1320  0.0893
 8514TIP3    H146957   2.404   3.983   0.807 -0.6829  0.1863 -0.8763
 8514TIP3    H246958   2.257   4.020   0.817 -0.4102  1.1171 -0.2086
 8515TIP3   OH246959   6.589   1.464  15.843  0.0235 -0.4535  0.1904
 8515TIP3    H146960   6.514   1.519  15.820  0.1425  0.2347  1.4027
 8515TIP3    H246961   6.580   1.449  15.937  1.7427  0.1539  0.4683
 8516TIP3   OH246962   1.644   1.635  11.641 -0.1431  0.6409  0.1042
 8516TIP3    H146963   1.690   1.607  11.562 -0.6863  1.8733 -0.6861
 8516TIP3    H246964   1.675   1.576  11.710  2.0596  0.9617 -0.5340
 8517TIP3   OH246965   5.732   3.242   3.507  0.0432  0.2649  0.3311
 8517TIP3    H146966   5.723   3.334   3.530  1.1854  0.9332 -1.6319
 8517TIP3    H246967   5.825   3.230   3.488 -0.2445 -1.0189 -0.4451
 8518TIP3   OH246968   3.056   4.126  15.047 -0.0096  0.1325 -0.4927
 8518TIP3    H146969   3.032   4.035  15.025 -1.1583 -0.4297  2.5733
 8518TIP3    H246970   3.146   4.135  15.017  0.3231 -2.2139 -0.4071
 8519TIP3   OH246971   3.872   3.881  10.936 -0.0253 -0.0672  0.0594
 8519TIP3    H146972   3.814   3.946  10.895 -0.6069 -0.7960 -0.3158
 8519TIP3    H246973   3.862   3.803  10.881  0.4469 -0.5622  0.6618
 8520TIP3   OH246974   4.844   6.208  16.049 -0.0045  0.2431 -0.6955
 8520TIP3    H146975   4.871   6.213  16.141 -1.0866 -2.3984 -0.1493
 8520TIP3    H246976   4.754   6.238  16.049 -0.1536 -0.2023 -0.8004
 8521TIP3   OH246977   5.972   2.473  14.499 -0.2495  0.1888  0.2555
 8521TIP3    H146978   5.955   2.494  14.591  0.3408  2.9866 -0.1679
 8521TIP3    H246979   5.887   2.484  14.456  0.0057  1.7499  0.0785
 8522TIP3   OH246980   6.371   5.739   4.105 -0.8880 -0.3684 -0.3651
 8522TIP3    H146981   6.356   5.818   4.053 -2.1046  0.2019  0.7963
 8522TIP3    H246982   6.291   5.728   4.156  0.0005 -1.2788  0.8861
 8523TIP3   OH246983   0.481   0.500  15.634  0.1730  0.3940  0.2338
 8523TIP3    H146984   0.526   0.418  15.654 -0.0583  0.2580  0.1979
 8523TIP3    H246985   0.496   0.555  15.711 -0.9140 -0.2087  0.8915
 8524TIP3   OH246986   0.670   3.876   0.972  0.0722  0.0454 -0.3533
 8524TIP3    H146987   0.662   3.829   0.889 -0.3629  1.7551 -1.3198
 8524TIP3    H246988   0.736   3.826   1.021 -0.1218 -1.3575 -1.4564
 8525TIP3   OH246989   1.490   4.445  16.044 -0.1392  0.2059  0.1234
 8525TIP3    H146990   1.500   4.534  16.009  0.6563  0.1477  0.1920
 8525TIP3    H246991   1.396   4.434  16.055 -0.1862  1.3998  1.0482
 8526TIP3   OH246992   5.054   0.815  17.055  0.0091  0.6504 -0.0749
 8526TIP3    H146993   5.118   0.749  17.084  0.6632  0.7694 -1.1815
 8526TIP3    H246994   5.036   0.867  17.134 -1.9093 -1.9017  1.3273
 8527TIP3   OH246995   3.433   4.273  13.469  0.1496 -0.2289 -0.0007
 8527TIP3    H146996   3.446   4.214  13.395 -0.8436 -0.2659 -0.1686
 8527TIP3    H246997   3.510   4.330  13.469 -0.9540  1.4969 -2.7181
 8528TIP3   OH246998   1.242   4.314  16.485  0.0338 -0.2152 -0.6234
 8528TIP3    H146999   1.198   4.328  16.401 -0.9355 -0.3076 -0.1470
 8528TIP3    H247000   1.313   4.254  16.464 -0.4172 -0.5272 -1.3197
 8529TIP3   OH247001   5.808   1.854  14.212 -0.2961  0.1203 -0.0346
 8529TIP3    H147002   5.756   1.780  14.182  0.9768 -0.8900  0.1715
 8529TIP3    H247003   5.852   1.823  14.291  2.8163 -0.1191 -1.6788
 8530TIP3   OH247004   5.340   2.753  11.570 -0.2968  0.1072  0.3948
 8530TIP3    H147005   5.372   2.796  11.491 -0.7491 -2.0471 -1.0606
 8530TIP3    H247006   5.402   2.778  11.639  0.5578  1.4088 -0.8144
 8531TIP3   OH247007   2.443   2.750  15.863 -0.3014  0.0215  0.4587
 8531TIP3    H147008   2.398   2.820  15.816 -0.3984  0.4952  1.2299
 8531TIP3    H247009   2.507   2.716  15.800  1.2961  2.2831  0.7022
 8532TIP3   OH247010   5.825   3.982  14.934  0.8592 -0.1861  0.1744
 8532TIP3    H147011   5.734   3.954  14.923  0.9508 -0.4575  0.0993
 8532TIP3    H247012   5.825   4.075  14.911  0.5989 -0.1861  0.1796
 8533TIP3   OH247013   0.164   1.230   3.310  0.2869 -0.0925  0.7963
 8533TIP3    H147014   0.255   1.206   3.330  0.5776  0.6615  0.4042
 8533TIP3    H247015   0.171   1.310   3.259 -0.5327 -0.9338 -0.6880
 8534TIP3   OH247016   6.517   4.170  15.163 -0.3636 -0.0824 -0.1203
 8534TIP3    H147017   6.516   4.166  15.259 -3.2238  2.7147  0.1409
 8534TIP3    H247018   6.425   4.181  15.139  0.1623 -1.6023 -3.3213
 8535TIP3   OH247019   2.442   2.719   4.202 -0.4477  0.2582  0.1919
 8535TIP3    H147020   2.477   2.630   4.200 -0.0355  0.4286 -0.9129
 8535TIP3    H247021   2.359   2.711   4.251  0.4192 -0.3993  1.6258
 8536TIP3   OH247022   2.366   1.097   3.155 -0.1134  0.1399 -0.1436
 8536TIP3    H147023   2.373   1.143   3.072 -0.8123 -0.1115 -0.3489
 8536TIP3    H247024   2.437   1.033   3.153  1.4040  1.7471  0.5124
 8537TIP3   OH247025   1.588   5.525   0.250  0.0919  0.8767  0.2642
 8537TIP3    H147026   1.573   5.612   0.212  0.8915  0.7302 -0.4130
 8537TIP3    H247027   1.553   5.531   0.339 -0.5829  1.6458 -0.0442
 8538TIP3   OH247028   5.273   4.587  13.267 -0.5749 -0.0988 -0.3857
 8538TIP3    H147029   5.313   4.593  13.353  0.1346 -2.0763 -0.5416
 8538TIP3    H247030   5.208   4.657  13.266 -0.0051  0.5076  1.4152
 8539TIP3   OH247031   2.740   5.017   3.832 -0.3096  0.0374  0.3447
 8539TIP3    H147032   2.817   4.963   3.852  0.0378  0.0969 -0.7733
 8539TIP3    H247033   2.665   4.959   3.849 -0.1213  0.4427  2.8874
 8540TIP3   OH247034   0.981   3.349  16.875  0.9458 -0.1294 -0.2796
 8540TIP3    H147035   0.968   3.263  16.915 -1.5178  0.2879 -0.0431
 8540TIP3    H247036   0.893   3.385  16.865  1.7337  1.4021 -2.5779
 8541TIP3   OH247037   5.913   2.289  11.227  0.0262  0.0538 -0.4085
 8541TIP3    H147038   5.889   2.265  11.317 -2.5199 -3.7943 -1.8807
 8541TIP3    H247039   5.871   2.373  11.213  1.1543  1.1611  2.1621
 8542TIP3   OH247040   4.501   3.405  16.159  0.2804 -0.5906  0.0956
 8542TIP3    H147041   4.542   3.395  16.073 -0.2209  1.4662 -0.4239
 8542TIP3    H247042   4.568   3.377  16.221  1.9793  1.3044 -0.7972
 8543TIP3   OH247043   1.224   6.260   0.558 -0.0472  0.4712  0.5325
 8543TIP3    H147044   1.262   6.198   0.495 -0.2313  0.5637  0.3288
 8543TIP3    H247045   1.292   6.325   0.572 -0.1772  0.7099  0.0679
 8544TIP3   OH247046   3.933   0.210   3.179 -0.9621  0.1587  0.5744
 8544TIP3    H147047   3.943   0.234   3.272  0.5431 -1.5911  0.9146
 8544TIP3    H247048   3.979   0.280   3.132  0.3082 -0.1495  1.3156
 8545TIP3   OH247049   0.962   1.031   1.172 -0.2311  0.0580  0.1627
 8545TIP3    H147050   0.995   0.949   1.210  1.2275  0.1019 -0.9031
 8545TIP3    H247051   0.928   1.005   1.086  2.1080  0.7984 -1.0726
 8546TIP3   OH247052   6.527   2.864   1.810  0.2442  0.0134 -0.1395
 8546TIP3    H147053   6.536   2.784   1.758 -0.7922  0.7794 -1.5811
 8546TIP3    H247054   6.615   2.882   1.842  0.5015 -1.6663  0.1675
 8547TIP3   OH247055   2.685   0.124   4.686  0.2937  0.0241 -0.1323
 8547TIP3    H147056   2.617   0.107   4.622  0.3429  2.7091 -1.0440
 8547TIP3    H247057   2.756   0.064   4.663 -0.2952 -0.1357 -1.6472
 8548TIP3   OH247058   4.040   0.525   4.081  0.1410 -0.6306 -0.0226
 8548TIP3    H147059   3.986   0.604   4.091  0.6933 -0.3520  0.9090
 8548TIP3    H247060   4.111   0.537   4.144  1.6154 -0.7262 -1.5973
 8549TIP3   OH247061   0.902   4.534  16.317 -0.4711  0.1554  0.0309
 8549TIP3    H147062   0.971   4.468  16.326 -0.9082 -0.3640 -0.3057
 8549TIP3    H247063   0.944   4.607  16.272  0.4574  0.8126  1.8666
 8550TIP3   OH247064   1.652   1.786   3.305  0.1756  0.1570 -0.1334
 8550TIP3    H147065   1.716   1.849   3.339  0.3519 -0.8915  1.5840
 8550TIP3    H247066   1.699   1.739   3.237  0.0625  1.7924 -1.4193
 8551TIP3   OH247067   0.904   4.536   4.003  0.6886 -0.4909 -0.4515
 8551TIP3    H147068   0.959   4.472   3.958 -0.1670 -2.2906  0.9656
 8551TIP3    H247069   0.915   4.517   4.096  0.5079  1.5368  0.0393
 8552TIP3   OH247070   3.015   0.086   6.634  0.2824 -0.5027 -0.5576
 8552TIP3    H147071   2.998   0.121   6.547 -0.5740  0.6646  0.0479
 8552TIP3    H247072   3.106   0.111   6.653 -0.1462  1.0170 -0.3454
 8553TIP3   OH247073   2.672   5.854   3.361 -0.0926 -0.1217  0.3222
 8553TIP3    H147074   2.645   5.789   3.296 -2.2634  1.1807 -0.1673
 8553TIP3    H247075   2.590   5.881   3.403  0.9393  1.2304  1.5407
 8554TIP3   OH247076   2.616   0.187  15.272  0.3193 -0.1617  0.1284
 8554TIP3    H147077   2.592   0.231  15.353  1.0759 -0.5890  0.6040
 8554TIP3    H247078   2.657   0.255  15.219 -1.4106  0.4395 -0.4759
 8555TIP3   OH247079   3.391   5.423  14.871 -0.2749 -0.3442 -0.1298
 8555TIP3    H147080   3.450   5.370  14.817  0.6396 -0.9328  1.3936
 8555TIP3    H247081   3.446   5.457  14.941 -1.5343 -0.0694  0.7620
 8556TIP3   OH247082   0.266   4.733  11.578 -0.7351  0.2156 -0.0954
 8556TIP3    H147083   0.328   4.666  11.551 -0.7316  0.2340 -0.1336
 8556TIP3    H247084   0.266   4.796  11.506 -1.7057 -0.3991 -0.6565
 8557TIP3   OH247085   1.382   6.105  14.695  0.1560 -0.0796 -0.0598
 8557TIP3    H147086   1.478   6.112  14.691  0.1835 -0.5585 -0.3283
 8557TIP3    H247087   1.359   6.047  14.622 -0.2933 -0.3757  0.3069
 8558TIP3   OH247088   2.410   0.123  13.997 -0.3901  0.3710 -0.2102
 8558TIP3    H147089   2.374   0.133  13.909 -0.6658 -0.9370 -0.2641
 8558TIP3    H247090   2.337   0.090  14.049 -0.1599  0.8980  0.4606
 8559TIP3   OH247091   0.046   0.684  14.484  0.0115 -0.4192  0.1985
 8559TIP3    H147092   0.139   0.691  14.507  0.1593 -0.7592 -0.2680
 8559TIP3    H247093   0.024   0.592  14.501  0.4889 -1.0529 -2.2641
 8560TIP3   OH247094   3.202   4.706   6.124 -0.5898 -0.4989  0.2322
 8560TIP3    H147095   3.268   4.755   6.074 -1.6844 -0.3949 -1.1834
 8560TIP3    H247096   3.197   4.621   6.080 -2.0683 -0.1625 -0.3143
 8561TIP3   OH247097   0.324   1.042  11.391 -0.3496  0.4478  0.2905
 8561TIP3    H147098   0.330   1.079  11.303 -1.3900  0.2671  0.1317
 8561TIP3    H247099   0.344   0.949  11.380 -2.2120  0.0637 -0.0596
 8562TIP3   OH247100   5.108   1.210   4.375 -0.2749  0.1414 -0.0983
 8562TIP3    H147101   5.190   1.220   4.327  0.7906 -1.3626  1.3014
 8562TIP3    H247102   5.049   1.166   4.314  0.6808 -0.7231 -0.4264
 8563TIP3   OH247103   3.083   6.041   4.550 -0.5939 -0.0708  0.1072
 8563TIP3    H147104   3.115   6.037   4.460  0.0520  1.2278  0.2569
 8563TIP3    H247105   3.150   5.995   4.601  1.1507  2.6065  0.4158
 8564TIP3   OH247106   4.824   5.912  12.792 -0.1360 -0.8501  0.4427
 8564TIP3    H147107   4.882   5.881  12.723 -1.1692  0.6793 -1.1904
 8564TIP3    H247108   4.841   6.006  12.797 -1.2669 -0.6630  1.0948
 8565TIP3   OH247109   3.819   3.400  15.777 -0.1966  0.1611 -0.0134
 8565TIP3    H147110   3.837   3.333  15.711 -1.6082  0.1903 -0.4512
 8565TIP3    H247111   3.727   3.390  15.798 -0.1923  1.3064  0.6602
 8566TIP3   OH247112   4.982   6.006  13.786 -0.1703 -0.0953  0.2371
 8566TIP3    H147113   4.982   6.070  13.715  0.5861 -1.4011 -0.9875
 8566TIP3    H247114   4.897   5.962  13.778  0.0284 -0.4275 -0.0235
 8567TIP3   OH247115   0.794   3.495  14.462  0.2476  0.1257  0.1297
 8567TIP3    H147116   0.803   3.402  14.438  3.0221 -0.0894  1.5010
 8567TIP3    H247117   0.787   3.494  14.558  0.8299  1.3222  0.2059
 8568TIP3   OH247118   4.811   6.033  11.340  0.2188 -0.3136 -0.0132
 8568TIP3    H147119   4.761   6.053  11.419  0.9423  3.7599 -0.3791
 8568TIP3    H247120   4.757   6.065  11.268  2.3089  2.3223 -0.5533
 8569TIP3   OH247121   4.807   0.477  14.003 -0.5987  0.5539  0.2177
 8569TIP3    H147122   4.863   0.457  14.078  0.5163  0.5047 -0.6146
 8569TIP3    H247123   4.840   0.421  13.932 -3.0733 -1.1280  0.2503
 8570TIP3   OH247124   4.720   0.445  13.049 -0.4230  0.1117  0.2423
 8570TIP3    H147125   4.814   0.442  13.067 -0.6819  0.1298  1.7525
 8570TIP3    H247126   4.713   0.478  12.960  1.0922 -2.2620 -0.8481
 8571TIP3   OH247127   5.478   1.172  16.441 -0.0513  0.2457 -0.2952
 8571TIP3    H147128   5.418   1.143  16.372 -1.2193  0.5924  0.5350
 8571TIP3    H247129   5.484   1.267  16.429 -0.9927  0.4391  0.6093
 8572TIP3   OH247130   1.848   4.041   6.086 -0.4926 -0.2187  0.1173
 8572TIP3    H147131   1.761   4.008   6.065 -0.6021  0.3402 -0.3101
 8572TIP3    H247132   1.896   3.963   6.114 -0.7216 -0.7863 -0.9832
 8573TIP3   OH247133   5.996   4.307  15.044 -0.2887  0.0582  0.8290
 8573TIP3    H147134   5.939   4.278  14.973  0.1065 -1.1650  0.9885
 8573TIP3    H247135   5.935   4.337  15.112 -0.7961 -1.5325  1.1243
 8574TIP3   OH247136   0.585   2.235   3.566  0.8055 -0.1314  0.2479
 8574TIP3    H147137   0.648   2.301   3.593  2.1592 -1.3003  0.0690
 8574TIP3    H247138   0.528   2.223   3.642  1.5232  0.1075  0.8307
 8575TIP3   OH247139   0.730   5.979  16.432 -0.0139 -0.3319  0.1224
 8575TIP3    H147140   0.817   5.942  16.446 -0.1630 -1.1283 -0.9417
 8575TIP3    H247141   0.686   5.917  16.375 -0.7996  0.7580 -0.4984
 8576TIP3   OH247142   6.298   2.697   0.693  0.2344  0.1177 -0.1300
 8576TIP3    H147143   6.294   2.760   0.765 -0.3830 -1.3873  1.1985
 8576TIP3    H247144   6.206   2.685   0.667  0.5089  1.3993 -1.9105
 8577TIP3   OH247145   1.597   5.784   0.164 -0.7508 -0.1828 -0.5954
 8577TIP3    H147146   1.624   5.858   0.219  1.1653 -1.0441 -0.3070
 8577TIP3    H247147   1.627   5.807   0.076  1.1355 -1.1973 -0.2535
 8578TIP3   OH247148   3.721   0.359  12.127  0.7548 -0.2775  0.1427
 8578TIP3    H147149   3.685   0.447  12.137  1.5964 -0.1134  2.3617
 8578TIP3    H247150   3.645   0.301  12.129  0.2822  0.3279 -0.0797
 8579TIP3   OH247151   4.249   4.544   1.905 -0.0333  0.0128 -0.5909
 8579TIP3    H147152   4.342   4.549   1.928 -0.0731 -0.3890 -0.3302
 8579TIP3    H247153   4.231   4.450   1.900 -0.8212  0.0490  0.9981
 8580TIP3   OH247154   4.284   0.067   0.746  0.4474  0.0416 -0.3700
 8580TIP3    H147155   4.191   0.054   0.729  0.7284 -1.2086 -1.0871
 8580TIP3    H247156   4.289   0.084   0.840 -0.2339 -3.5781  0.4936
 8581TIP3   OH247157   2.269   3.216  13.041 -0.8343 -0.1597  0.2456
 8581TIP3    H147158   2.335   3.197  12.974 -0.6605  3.1837 -0.7201
 8581TIP3    H247159   2.289   3.155  13.112  2.3507 -0.3592 -0.6390
 8582TIP3   OH247160   5.614   3.446   2.720 -0.1131  0.7915  0.4692
 8582TIP3    H147161   5.586   3.364   2.681  1.4538 -0.2256  1.3831
 8582TIP3    H247162   5.535   3.501   2.720 -1.5085 -1.0942  0.8610
 8583TIP3   OH247163   1.126   4.398  12.797 -0.7191  0.2199 -0.1758
 8583TIP3    H147164   1.038   4.406  12.760 -0.9839  0.4148  0.4877
 8583TIP3    H247165   1.112   4.392  12.892 -0.0389 -0.0914 -0.0904
 8584TIP3   OH247166   0.763   0.348   5.398 -0.3814  0.1151  0.1832
 8584TIP3    H147167   0.811   0.418   5.441 -1.1731 -0.0817  1.4454
 8584TIP3    H247168   0.706   0.313   5.466 -1.9104 -0.0225 -1.1078
 8585TIP3   OH247169   4.098   3.264  14.506  0.1211 -0.1339  0.1188
 8585TIP3    H147170   4.063   3.182  14.541  0.6945 -0.8622 -0.9535
 8585TIP3    H247171   4.165   3.236  14.443  1.2222  1.1933  0.6683
 8586TIP3   OH247172   0.042   2.461   0.965  0.1141 -0.5384 -0.6233
 8586TIP3    H147173  -0.013   2.539   0.963  1.0420  0.1478 -0.2566
 8586TIP3    H247174   0.026   2.423   1.052 -1.6778 -1.7894 -1.4340
 8587TIP3   OH247175   3.212   5.313   2.928 -0.3187  0.1575 -0.4146
 8587TIP3    H147176   3.298   5.353   2.943  1.0439 -2.3593 -0.9027
 8587TIP3    H247177   3.183   5.285   3.014  1.0398 -2.0497 -0.6087
 8588TIP3   OH247178   0.438   2.508  15.779  0.1452  0.0118 -0.3107
 8588TIP3    H147179   0.426   2.548  15.693  1.2517  2.6197  0.6385
 8588TIP3    H247180   0.533   2.497  15.788 -0.0700 -2.5889 -0.3265
 8589TIP3   OH247181   6.266   0.945   3.332  0.1026 -0.2073 -0.3412
 8589TIP3    H147182   6.334   0.890   3.291 -0.3642 -1.4700  0.5252
 8589TIP3    H247183   6.252   1.016   3.269  3.3697  1.0617  0.1338
 8590TIP3   OH247184   3.428   3.540  14.235 -0.5026 -0.0424 -0.1575
 8590TIP3    H147185   3.507   3.490  14.212 -1.7216 -2.3396  0.2926
 8590TIP3    H247186   3.402   3.504  14.320 -2.7260 -0.2813 -0.8930
 8591TIP3   OH247187   0.289   2.744   4.373 -0.4115 -0.1897  0.0948
 8591TIP3    H147188   0.210   2.704   4.410 -0.8915 -1.1312 -1.8046
 8591TIP3    H247189   0.260   2.781   4.289  1.0553 -0.1059 -0.4062
 8592TIP3   OH247190   0.246   0.921   1.577 -0.2817  0.2021 -0.4026
 8592TIP3    H147191   0.202   0.990   1.527 -3.5988 -2.0613 -0.9342
 8592TIP3    H247192   0.267   0.854   1.513  1.0262 -0.1830  0.3912
 8593TIP3   OH247193   4.164   1.748   3.593 -0.3836  0.3914  0.2157
 8593TIP3    H147194   4.129   1.670   3.549 -0.8124  1.0072 -0.5731
 8593TIP3    H247195   4.130   1.742   3.682 -0.5020 -0.2652  0.1347
 8594TIP3   OH247196   1.473   3.011   3.931  0.5865  0.2607 -0.4836
 8594TIP3    H147197   1.443   2.943   3.871  1.3353 -2.1494  1.6865
 8594TIP3    H247198   1.393   3.041   3.974  0.2533  0.7575 -1.4236
 8595TIP3   OH247199   0.375   1.343  13.009  0.0820  0.3349  0.0022
 8595TIP3    H147200   0.350   1.400  12.936  1.2320  1.2569  0.2986
 8595TIP3    H247201   0.401   1.261  12.968  1.5057  1.1162 -0.7103
 8596TIP3   OH247202   6.754   1.965  11.129  0.3377  0.8300  0.6458
 8596TIP3    H147203   6.741   1.925  11.215 -0.1069  0.2237  0.3057
 8596TIP3    H247204   6.667   1.963  11.089  0.6166  0.7619  0.0391
 8597TIP3   OH247205   0.315   4.575  14.226 -1.1875  0.1015  0.4751
 8597TIP3    H147206   0.235   4.550  14.271 -0.9637  1.0247  1.4432
 8597TIP3    H247207   0.290   4.584  14.134 -0.9253 -5.2883 -0.4300
 8598TIP3   OH247208   3.286   1.071  12.872 -0.3114  0.2282  0.1544
 8598TIP3    H147209   3.218   1.133  12.898 -0.2026  1.8366 -2.9440
 8598TIP3    H247210   3.272   0.995  12.929 -2.2227  1.9753  2.2107
 8599TIP3   OH247211   6.451   4.369  14.749  0.2587 -0.1133 -0.3847
 8599TIP3    H147212   6.487   4.335  14.667 -0.8732 -2.6155  0.0386
 8599TIP3    H247213   6.495   4.318  14.817  1.4207  2.1491  0.6411
 8600TIP3   OH247214   5.703   2.017   4.243 -0.3709  0.3833 -0.0658
 8600TIP3    H147215   5.743   1.933   4.221  0.5639  0.7741  0.0744
 8600TIP3    H247216   5.733   2.077   4.175  0.3027  0.9635  0.7050
 8601TIP3   OH247217   2.310   3.480   3.227 -0.7281  0.0433 -0.4036
 8601TIP3    H147218   2.227   3.528   3.227 -0.4928  0.5004  1.0615
 8601TIP3    H247219   2.373   3.542   3.189 -1.0107 -0.2413 -1.3558
 8602TIP3   OH247220   3.745   1.856   2.107  0.1933 -0.2866  0.1107
 8602TIP3    H147221   3.709   1.772   2.135 -2.0986  1.2030  2.0708
 8602TIP3    H247222   3.718   1.864   2.016  1.1799 -1.9919 -0.3736
 8603TIP3   OH247223   3.164   6.368  13.385  0.5419  0.1469  0.1864
 8603TIP3    H147224   3.098   6.395  13.321 -0.5645 -2.2579  0.2144
 8603TIP3    H247225   3.239   6.342  13.332  0.8753  1.3053  0.0693
 8604TIP3   OH247226   1.783   5.375   2.429 -0.5896 -0.0594  0.4569
 8604TIP3    H147227   1.805   5.350   2.519  0.0706  0.8584  0.5636
 8604TIP3    H247228   1.802   5.297   2.378  0.4143 -0.1356  0.9251
 8605TIP3   OH247229   1.454   5.174   1.807 -0.0324  0.1244 -0.2856
 8605TIP3    H147230   1.422   5.223   1.883 -0.6125  0.6012 -0.8278
 8605TIP3    H247231   1.470   5.241   1.741  2.6503 -0.0088  0.1210
 8606TIP3   OH247232   6.678   4.175  17.250 -0.7776  0.0860 -0.5472
 8606TIP3    H147233   6.702   4.266  17.270 -0.1776 -0.2523  0.3372
 8606TIP3    H247234   6.758   4.138  17.212 -1.1086  0.0021 -1.1618
 8607TIP3   OH247235   5.641   3.375   5.306  0.0202  0.0620 -0.0445
 8607TIP3    H147236   5.636   3.459   5.351  0.0717  0.6098 -1.0335
 8607TIP3    H247237   5.583   3.384   5.230 -0.0586 -0.8334 -0.1070
 8608TIP3   OH247238   1.425   5.756   4.557 -0.9383  0.0356  0.1858
 8608TIP3    H147239   1.413   5.843   4.595  0.3809 -0.4224  1.7922
 8608TIP3    H247240   1.388   5.696   4.622  1.5367 -0.7878  0.9606
 8609TIP3   OH247241   1.972   3.292  14.922  0.0164 -0.3015  0.2893
 8609TIP3    H147242   2.036   3.253  14.981  0.2589  0.9930  0.9110
 8609TIP3    H247243   1.897   3.313  14.979  0.1169  0.6370  0.0943
 8610TIP3   OH247244   3.354   1.476   5.683 -0.5713 -0.1311  0.3734
 8610TIP3    H147245   3.348   1.518   5.769  1.3703  0.4378  0.2795
 8610TIP3    H247246   3.389   1.389   5.701  1.5205  0.5969  0.0675
 8611TIP3   OH247247   1.077   6.713  13.028 -0.1205 -0.2778  0.3920
 8611TIP3    H147248   1.074   6.684  13.119  1.4068 -0.0930  0.5227
 8611TIP3    H247249   0.992   6.755  13.013 -0.3759 -0.2859  1.7419
 8612TIP3   OH247250   0.055   6.494   3.111  0.1396  0.3185  0.2241
 8612TIP3    H147251   0.025   6.582   3.132  1.5785  0.8274  0.2422
 8612TIP3    H247252   0.149   6.503   3.097  0.4882 -1.3880  1.1894
 8613TIP3   OH247253   0.131   4.055  16.146  0.0863 -0.0805  0.5364
 8613TIP3    H147254   0.163   4.127  16.200 -1.8794  0.6356  0.8154
 8613TIP3    H247255   0.114   3.984  16.208  0.6824 -0.3171  0.4402
 8614TIP3   OH247256   6.467   4.522   5.213  0.2906 -0.2979 -0.2204
 8614TIP3    H147257   6.401   4.592   5.209 -0.0904 -0.6590 -0.3851
 8614TIP3    H247258   6.535   4.549   5.152  1.4278  1.2022  1.5971
 8615TIP3   OH247259   5.811   1.134   3.047 -0.4848  0.4072 -0.1599
 8615TIP3    H147260   5.858   1.080   2.984 -0.6432 -0.5185  0.5079
 8615TIP3    H247261   5.723   1.097   3.051 -1.3114  2.0972 -1.3650
 8616TIP3   OH247262   1.049   6.455   4.072 -0.5281  0.3200 -0.2414
 8616TIP3    H147263   1.112   6.389   4.043 -0.9239 -1.7363  3.0937
 8616TIP3    H247264   1.081   6.484   4.157 -1.2536  3.3278 -0.8834
 8617TIP3   OH247265   5.107   5.235   5.931 -0.0464 -0.1065  0.0789
 8617TIP3    H147266   5.034   5.286   5.964  0.7271  0.8880  0.3129
 8617TIP3    H247267   5.179   5.298   5.923  1.1373 -1.2750  0.9765
 8618TIP3   OH247268   2.588   3.055  16.996  0.4610 -0.3283  0.1241
 8618TIP3    H147269   2.596   2.968  16.958  0.8475 -0.1371 -0.2293
 8618TIP3    H247270   2.534   3.104  16.934  0.1729 -0.3384  0.3644
 8619TIP3   OH247271   1.508   4.047  16.810 -0.3528  0.1943  0.0849
 8619TIP3    H147272   1.418   4.040  16.841 -0.2798 -0.2580  0.2022
 8619TIP3    H247273   1.509   3.995  16.729 -0.3185  0.6178 -0.1908
 8620TIP3   OH247274   6.368   1.254  17.136  0.0126 -0.0853  0.4099
 8620TIP3    H147275   6.358   1.289  17.225  0.1094 -0.1010  0.4261
 8620TIP3    H247276   6.458   1.223  17.132 -0.7625 -2.8005  1.3106
 8621TIP3   OH247277   2.701   1.300  12.164  0.0016 -0.2658 -0.1553
 8621TIP3    H147278   2.762   1.255  12.106  0.6416  0.2004  0.1529
 8621TIP3    H247279   2.734   1.390  12.169 -0.1594 -0.2531  0.7838
 8622TIP3   OH247280   3.376   4.859   5.981 -0.1772 -0.4139 -0.5761
 8622TIP3    H147281   3.425   4.933   6.015  0.5069 -0.0746 -2.1788
 8622TIP3    H247282   3.346   4.887   5.895 -1.4654 -1.3582 -0.4636
 8623TIP3   OH247283   5.360   2.399  10.147 -0.0085 -0.3788 -0.0382
 8623TIP3    H147284   5.281   2.450  10.166 -0.4328 -0.8841 -0.4419
 8623TIP3    H247285   5.432   2.461  10.163 -0.4757  0.0580  0.4156
 8624TIP3   OH247286   0.185   3.713   0.757  0.4012  0.0112 -0.2310
 8624TIP3    H147287   0.131   3.687   0.832  1.1790  0.5706  0.5455
 8624TIP3    H247288   0.275   3.700   0.787  0.7596  1.6406 -0.5250
 8625TIP3   OH247289   6.140   4.475   3.309 -0.3991 -0.3945 -0.1081
 8625TIP3    H147290   6.190   4.540   3.360 -2.7365  2.5347 -1.2226
 8625TIP3    H247291   6.206   4.416   3.275  2.2480  2.4890 -0.4786
 8626TIP3   OH247292   2.464   0.993   4.223  0.2264  0.4897 -0.1374
 8626TIP3    H147293   2.478   1.060   4.157  0.9601  0.8975  0.4259
 8626TIP3    H247294   2.498   0.913   4.183  0.0293  0.5949 -0.5196
 8627TIP3   OH247295   0.022   3.807  13.309  0.0162 -0.5249 -0.7155
 8627TIP3    H147296  -0.013   3.772  13.227 -0.5957  3.0006 -2.1392
 8627TIP3    H247297  -0.052   3.805  13.370 -0.5852  0.0910 -1.4083
 8628TIP3   OH247298   2.598   2.999   5.387 -0.0930  0.2413 -0.4355
 8628TIP3    H147299   2.563   2.911   5.372 -1.7869  0.9727 -0.9691
 8628TIP3    H247300   2.684   2.998   5.344 -0.4113 -0.9299 -1.0923
 8629TIP3   OH247301   5.721   1.083   0.094  0.0836 -0.3069 -0.4838
 8629TIP3    H147302   5.634   1.114   0.066 -0.0084 -1.8951 -2.1404
 8629TIP3    H247303   5.783   1.135   0.043  0.0991  0.3737  0.2166
 8630TIP3   OH247304   4.863   2.095   4.446  0.4044  0.6371  0.4086
 8630TIP3    H147305   4.906   2.176   4.474  0.3065  0.6210  0.6122
 8630TIP3    H247306   4.909   2.026   4.495  1.5243  0.3978 -0.9099
 8631TIP3   OH247307   6.011   1.839   5.609 -0.2330  0.1320 -0.3300
 8631TIP3    H147308   6.039   1.824   5.699 -2.0736 -2.6816 -0.1186
 8631TIP3    H247309   6.015   1.934   5.599  1.3985  0.4362  2.2097
 8632TIP3   OH247310   5.729   5.702   2.983  0.0717  0.3808 -0.4498
 8632TIP3    H147311   5.797   5.709   2.915  0.6286  0.6908  0.1264
 8632TIP3    H247312   5.764   5.752   3.057 -0.8593  0.6780 -0.1951
 8633TIP3   OH247313   4.321   1.630  16.867  0.0886 -0.4180 -0.1398
 8633TIP3    H147314   4.342   1.671  16.784 -1.1930  3.8966  1.4016
 8633TIP3    H247315   4.400   1.644  16.921  0.4205 -1.9972 -0.1745
 8634TIP3   OH247316   2.827   2.389   1.154  0.4966 -0.2533  0.3864
 8634TIP3    H147317   2.743   2.396   1.199  0.1846 -2.2258  0.1946
 8634TIP3    H247318   2.866   2.309   1.189  1.8973  0.1541 -0.1909
 8635TIP3   OH247319   3.469   3.085   0.528 -0.1000 -0.5366 -0.2956
 8635TIP3    H147320   3.521   3.059   0.452  2.5051  0.1421  1.1127
 8635TIP3    H247321   3.440   3.173   0.508  0.2487 -0.5046 -0.6771
 8636TIP3   OH247322   1.194   2.881  13.673 -0.7301  0.1187 -0.1243
 8636TIP3    H147323   1.181   2.966  13.714  0.4308  0.1380  0.2445
 8636TIP3    H247324   1.184   2.818  13.744  0.4749  0.1013  0.0596
 8637TIP3   OH247325   4.322   4.226  11.875  0.1581 -0.3548  1.0407
 8637TIP3    H147326   4.393   4.273  11.831 -0.9678  1.4410  1.0400
 8637TIP3    H247327   4.297   4.157  11.813  0.6352  0.2009  0.2029
 8638TIP3   OH247328   2.359   1.189   4.420 -0.1842 -0.2816  0.3427
 8638TIP3    H147329   2.412   1.189   4.500 -0.6874  0.1178  0.6897
 8638TIP3    H247330   2.386   1.111   4.372 -0.3909 -0.9344  1.2619
 8639TIP3   OH247331   1.481   4.022  14.580 -0.1474  0.0360  0.2331
 8639TIP3    H147332   1.446   3.973  14.654  0.8575  0.0681  0.7503
 8639TIP3    H247333   1.509   3.955  14.517  0.7404 -0.0670  0.7142
 8640TIP3   OH247334   0.419   4.991   2.507 -0.3872  0.3694  0.1144
 8640TIP3    H147335   0.483   5.061   2.522 -0.1192  0.1920 -0.1931
 8640TIP3    H247336   0.471   4.918   2.473 -0.8581  0.4654 -0.8238
 8641TIP3   OH247337   1.213   3.964  13.681 -0.6227  0.0195 -0.1849
 8641TIP3    H147338   1.129   3.991  13.645 -0.8067  0.8096  0.7731
 8641TIP3    H247339   1.237   4.035  13.741  0.9078 -0.0080 -0.7086
 8642TIP3   OH247340   5.274   2.508   4.798 -0.4167  0.2965  0.0346
 8642TIP3    H147341   5.187   2.543   4.817  0.1037  1.8818 -0.3238
 8642TIP3    H247342   5.334   2.572   4.835  0.6706 -1.7704  2.0952
 8643TIP3   OH247343   0.898   1.853  11.857  0.4207  0.7635 -0.1894
 8643TIP3    H147344   0.904   1.938  11.900 -1.7570  0.5579  0.6221
 8643TIP3    H247345   0.989   1.829  11.839  1.1035  3.1130 -0.1988
 8644TIP3   OH247346   5.064   4.136  16.737  0.1306 -1.2818  0.2159
 8644TIP3    H147347   5.067   4.167  16.647  0.3096  0.0241  0.6373
 8644TIP3    H247348   5.121   4.197  16.785 -0.0576 -1.8699  1.2244
 8645TIP3   OH247349   2.833   1.486  13.238  0.2913 -0.2236  0.4654
 8645TIP3    H147350   2.895   1.426  13.282  1.4114 -1.3582 -2.3874
 8645TIP3    H247351   2.749   1.440  13.241  0.5345 -0.6601  0.7376
 8646TIP3   OH247352   1.952   1.589   5.390  0.2093 -1.2546  0.1693
 8646TIP3    H147353   1.933   1.613   5.300  0.8791 -1.1647  0.0482
 8646TIP3    H247354   1.871   1.608   5.438  0.2881 -0.0370 -0.1652
 8647TIP3   OH247355   2.514   4.869  17.158 -0.8146  0.2349 -0.2791
 8647TIP3    H147356   2.511   4.776  17.138 -3.4692  0.2438 -0.3695
 8647TIP3    H247357   2.538   4.874  17.250  1.2942 -0.3694 -0.7408
 8648TIP3   OH247358   0.413   4.876  16.686  0.1728  0.3293  0.0292
 8648TIP3    H147359   0.318   4.870  16.695  0.1739  0.4418  0.1157
 8648TIP3    H247360   0.427   4.892  16.593  0.1697 -1.0370 -0.2329
 8649TIP3   OH247361   4.626   5.150   1.819 -0.0890  0.6998  0.0453
 8649TIP3    H147362   4.535   5.165   1.793 -0.8246 -0.2126  1.8405
 8649TIP3    H247363   4.677   5.162   1.739 -2.0613 -1.3076 -1.6619
 8650TIP3   OH247364   3.769   3.741  16.116 -0.1876  0.0532  0.2689
 8650TIP3    H147365   3.828   3.670  16.091 -0.1055  0.7549 -1.7175
 8650TIP3    H247366   3.681   3.704  16.107 -0.1232 -0.0753  0.1759
 8651TIP3   OH247367   6.366   4.279   5.747  0.6102 -0.0913 -0.3222
 8651TIP3    H147368   6.310   4.343   5.790  0.3842 -1.8906  2.2511
 8651TIP3    H247369   6.453   4.320   5.744  0.3293  0.6042  0.7029
 8652TIP3   OH247370   5.178   2.315   4.606  0.2951 -0.0234  0.1387
 8652TIP3    H147371   5.090   2.339   4.576 -0.8376 -3.4797  0.2259
 8652TIP3    H247372   5.206   2.388   4.661 -1.0188  2.7438 -2.5901
 8653TIP3   OH247373   2.774   0.311  12.618 -0.8438 -0.6234  0.3830
 8653TIP3    H147374   2.856   0.266  12.636 -0.1461  0.2919 -0.4451
 8653TIP3    H247375   2.754   0.356  12.700  0.1824  0.2226  0.1863
 8654TIP3   OH247376   1.586   3.892  10.717 -0.0246  0.0887  0.1537
 8654TIP3    H147377   1.565   3.828  10.649 -0.4448  0.6570 -0.2623
 8654TIP3    H247378   1.551   3.974  10.684  1.6031  0.8026  0.1041
 8655TIP3   OH247379   4.479   5.700   5.927 -0.2830 -0.1675  0.1188
 8655TIP3    H147380   4.426   5.778   5.914 -0.5874  0.3180  3.4829
 8655TIP3    H247381   4.566   5.733   5.951  0.8871 -0.9587 -2.5946
 8656TIP3   OH247382   0.859   2.571   0.495  0.1694 -0.2318  0.2534
 8656TIP3    H147383   0.885   2.519   0.419 -1.2618  0.1079 -0.4957
 8656TIP3    H247384   0.808   2.644   0.459  0.7173  0.7735  1.4226
 8657TIP3   OH247385   3.313   5.508  16.121  0.2869  0.3827 -0.3973
 8657TIP3    H147386   3.263   5.485  16.043  1.0026  0.9668 -1.0520
 8657TIP3    H247387   3.394   5.458  16.113  0.8835  1.3698 -0.6704
 8658TIP3   OH247388   2.970   3.936  14.436 -0.6957 -0.5347 -0.0183
 8658TIP3    H147389   3.014   3.853  14.457  0.3102 -0.6521 -2.2943
 8658TIP3    H247390   3.040   4.001  14.439 -1.1746 -0.0253  0.1920
 8659TIP3   OH247391   0.809   2.381   5.518 -0.3387 -0.2673  0.2285
 8659TIP3    H147392   0.764   2.347   5.595  0.2624  3.6756  2.6140
 8659TIP3    H247393   0.741   2.388   5.451 -1.2141 -2.3995  0.8300
 8660TIP3   OH247394   2.551   4.908   5.706  0.4205 -0.1084  0.1941
 8660TIP3    H147395   2.527   4.924   5.797 -0.0634 -1.3961  0.3156
 8660TIP3    H247396   2.646   4.923   5.704  0.3875  0.2413  0.8367
 8661TIP3   OH247397   2.158   1.007  10.924  0.0076 -0.6151  0.4528
 8661TIP3    H147398   2.196   1.093  10.904 -1.9651  0.2388  0.1615
 8661TIP3    H247399   2.173   0.955  10.845 -0.6983  0.1727 -0.2059
 8662TIP3   OH247400   2.681   0.709  11.446 -0.0258 -0.1060 -0.2911
 8662TIP3    H147401   2.654   0.748  11.529  0.3678 -1.5921  0.5715
 8662TIP3    H247402   2.757   0.760  11.419  1.2308 -0.9767  1.4373
 8663TIP3   OH247403   6.694   5.758  16.094  0.2104 -0.3019 -0.7605
 8663TIP3    H147404   6.778   5.713  16.103 -0.6006 -1.5756  1.2562
 8663TIP3    H247405   6.671   5.749  16.001  2.7755  1.0949 -1.6127
 8664TIP3   OH247406   5.088   4.826  12.234 -0.1853 -0.1427  0.7422
 8664TIP3    H147407   5.029   4.865  12.170 -0.6112 -1.4886  0.2822
 8664TIP3    H247408   5.161   4.887  12.240 -0.7225  0.6077 -0.0976
 8665TIP3   OH247409   1.389   2.437   6.498 -0.0081 -0.2130 -0.1039
 8665TIP3    H147410   1.434   2.507   6.544 -0.1682  0.7437 -1.3631
 8665TIP3    H247411   1.454   2.367   6.492  0.7789  0.5340 -0.4732
 8666TIP3   OH247412   5.778   2.232  13.432 -0.7754 -0.0665  0.1813
 8666TIP3    H147413   5.747   2.319  13.454 -2.3277 -0.7512  0.8712
 8666TIP3    H247414   5.765   2.181  13.512  0.1033 -0.9234 -0.2060
 8667TIP3   OH247415   5.763   1.506  12.611  0.0029 -0.0513 -0.1573
 8667TIP3    H147416   5.730   1.595  12.596  1.0523  0.4197  0.2319
 8667TIP3    H247417   5.736   1.486  12.701  0.8531  0.3958  0.2180
 8668TIP3   OH247418   5.930   2.173   5.798 -0.0517  0.3688 -0.4113
 8668TIP3    H147419   5.984   2.161   5.720 -0.8584 -1.0732 -0.7917
 8668TIP3    H247420   5.961   2.107   5.859 -2.0468 -1.2531 -1.0539
 8669TIP3   OH247421   1.616   1.912   6.229  0.2974  1.1149  0.3527
 8669TIP3    H147422   1.612   1.996   6.274  1.0894  1.6934 -0.5977
 8669TIP3    H247423   1.595   1.847   6.296  1.8325  1.9001  1.6648
 8670TIP3   OH247424   5.917   2.555  12.026 -0.5237 -0.4811 -0.0453
 8670TIP3    H147425   5.824   2.532  12.024 -0.1503 -2.1971  0.2998
 8670TIP3    H247426   5.951   2.512  12.105  0.0612  2.4029  1.4086
 8671TIP3   OH247427   2.558   2.837  16.795 -0.6687 -0.4837 -0.2336
 8671TIP3    H147428   2.469   2.852  16.825 -0.2990  0.5718  0.3822
 8671TIP3    H247429   2.573   2.903  16.728 -0.5359 -1.0135 -0.7301
 8672TIP3   OH247430   4.501   2.123  13.434 -0.0015 -0.3174 -0.0500
 8672TIP3    H147431   4.435   2.151  13.370  1.4541  1.4413 -0.9067
 8672TIP3    H247432   4.467   2.153  13.518 -1.6019 -2.0023 -0.0446
 8673TIP3   OH247433   5.716   6.066  14.280 -0.0540 -0.4699 -0.2368
 8673TIP3    H147434   5.704   6.133  14.213  1.3111 -1.2206 -1.2755
 8673TIP3    H247435   5.663   6.096  14.354  1.3662  2.3575 -0.2271
 8674TIP3   OH247436   2.980   2.187   5.827 -0.2422 -0.1402  0.0903
 8674TIP3    H147437   2.996   2.136   5.748  0.7535 -1.1810  0.9261
 8674TIP3    H247438   2.893   2.223   5.815 -0.1591 -0.3901 -1.4197
 8675TIP3   OH247439   1.341   0.512  16.256 -0.2653 -0.0596 -0.4557
 8675TIP3    H147440   1.299   0.432  16.287 -0.8304  1.1840  2.3140
 8675TIP3    H247441   1.434   0.497  16.267 -0.3303 -0.5558 -0.5664
 8676TIP3   OH247442   3.790   1.615  16.280 -0.1062  0.0562  0.9478
 8676TIP3    H147443   3.694   1.613  16.276 -0.0715  0.0684 -1.1159
 8676TIP3    H247444   3.817   1.563  16.204  1.4965  1.7477  0.2946
 8677TIP3   OH247445   1.488   4.108  17.151  1.0028  0.2578  0.4032
 8677TIP3    H147446   1.436   4.159  17.089  0.0982  0.4481  1.3044
 8677TIP3    H247447   1.470   4.016  17.128  0.6551  0.3271  0.3971
 8678TIP3   OH247448   0.768   4.315  17.033 -0.3631  0.3341 -0.2507
 8678TIP3    H147449   0.782   4.231  17.076  1.7246  1.8127  2.2868
 8678TIP3    H247450   0.831   4.317  16.961 -0.9772 -0.5631 -0.8203
 8679TIP3   OH247451   4.220   5.432  13.130  0.1916 -0.2506  0.2590
 8679TIP3    H147452   4.176   5.395  13.206  0.8623  0.6288  1.0865
 8679TIP3    H247453   4.162   5.411  13.057 -0.3991 -1.2109  0.9811
 8680TIP3   OH247454   6.541   6.583   6.049 -1.0396  0.1399  0.1352
 8680TIP3    H147455   6.629   6.555   6.073  0.3896  4.7341  1.2776
 8680TIP3    H247456   6.509   6.631   6.125 -2.8644  1.9495 -1.6283
 8681TIP3   OH247457   0.959   0.202   4.247 -0.2882  0.3057  0.2107
 8681TIP3    H147458   1.007   0.183   4.167 -0.3268 -2.8218  0.8012
 8681TIP3    H247459   0.903   0.126   4.260 -2.2679  1.8976  1.8501
 8682TIP3   OH247460   0.156   3.782  15.450  0.4330  0.4884 -0.1603
 8682TIP3    H147461   0.174   3.821  15.364 -1.4634  0.6563 -0.5217
 8682TIP3    H247462   0.190   3.846  15.513  1.3589  0.6140 -0.7604
 8683TIP3   OH247463   4.772   3.168  12.215  0.1502  0.3017 -0.3013
 8683TIP3    H147464   4.800   3.142  12.303  2.7736 -0.4896 -1.2724
 8683TIP3    H247465   4.712   3.241  12.230  0.2302 -0.0454  2.1540
 8684TIP3   OH247466   2.156   4.128   0.242 -0.2296 -0.2511  0.3679
 8684TIP3    H147467   2.103   4.190   0.292  0.0282  0.3889 -0.1406
 8684TIP3    H247468   2.093   4.064   0.210 -0.7793  0.7160 -0.5589
 8685TIP3   OH247469   4.783   1.573  15.949 -0.2486 -0.4258  0.1316
 8685TIP3    H147470   4.764   1.542  15.861  0.6647  1.4345 -0.7759
 8685TIP3    H247471   4.756   1.665  15.949 -1.9526 -0.8230  2.3953
 8686TIP3   OH247472   1.259   3.856   4.360 -0.0370  0.1806 -0.0943
 8686TIP3    H147473   1.237   3.940   4.400  2.8867  0.8184  0.4287
 8686TIP3    H247474   1.280   3.799   4.434  1.6719  0.2038 -0.5114
 8687TIP3   OH247475   6.231   1.759  13.016 -0.2581  0.1214  0.1611
 8687TIP3    H147476   6.313   1.788  12.975  0.6554 -1.8602  0.4737
 8687TIP3    H247477   6.184   1.840  13.035  2.6078  1.5425  1.9746
 8688TIP3   OH247478   5.706   6.300  11.283 -0.2005  0.6952 -0.0844
 8688TIP3    H147479   5.750   6.345  11.211  0.4139  1.0318  0.4970
 8688TIP3    H247480   5.746   6.213  11.284 -1.5139  0.0161 -1.3259
 8689TIP3   OH247481   1.629   6.044  12.164  0.4374  0.2397  0.5309
 8689TIP3    H147482   1.574   6.120  12.144  2.7035  1.8506  0.0155
 8689TIP3    H247483   1.575   5.990  12.221 -1.3255  2.1909  0.8481
 8690TIP3   OH247484   0.681   3.835   5.904  0.2696 -0.5553 -0.7098
 8690TIP3    H147485   0.621   3.860   5.974  0.3426  0.2647 -0.9306
 8690TIP3    H247486   0.768   3.840   5.944  0.3235  0.0857 -0.9097
 8691TIP3   OH247487   3.089   3.131  13.952 -0.5935 -0.3698 -0.0671
 8691TIP3    H147488   3.082   3.184  14.032 -2.8879 -0.3862 -0.2113
 8691TIP3    H247489   3.179   3.097  13.954 -0.8090 -1.0299  2.9289
 8692TIP3   OH247490   1.447   3.304  15.530 -0.4144  0.1405  0.6882
 8692TIP3    H147491   1.493   3.266  15.455 -0.7038  0.3234  0.4192
 8692TIP3    H247492   1.517   3.338  15.586 -0.2169  0.3498  0.3158
 8693TIP3   OH247493   4.238   5.824   3.241 -0.4138  0.0825 -0.4535
 8693TIP3    H147494   4.223   5.875   3.161  0.9544 -0.7557 -1.2949
 8693TIP3    H247495   4.167   5.849   3.299 -0.3308  2.2145 -1.1846
 8694TIP3   OH247496   3.987   0.826  10.603 -0.1668  0.0334 -0.4795
 8694TIP3    H147497   4.054   0.802  10.666  0.1222  2.5512  0.3012
 8694TIP3    H247498   4.030   0.888  10.544 -1.2505  0.1041 -1.2345
 8695TIP3   OH247499   1.665   1.058   1.933 -0.3584 -0.1280 -0.4333
 8695TIP3    H147500   1.626   1.123   1.874  0.9029  2.0109  0.9394
 8695TIP3    H247501   1.592   1.002   1.959 -1.6368  1.1172 -1.1934
 8696TIP3   OH247502   1.806   0.940   0.480  0.5523  0.0416  0.7460
 8696TIP3    H147503   1.806   1.017   0.538  1.2197  0.7099 -0.1044
 8696TIP3    H247504   1.829   0.976   0.394 -1.1019 -0.8136 -0.0890
 8697TIP3   OH247505   1.094   5.100  11.594 -0.2309 -0.3724 -0.3597
 8697TIP3    H147506   1.089   5.119  11.688  0.1476 -0.1423 -0.3835
 8697TIP3    H247507   1.003   5.091  11.566 -0.3447 -0.3994  0.0219
 8698TIP3   OH247508   1.685   2.409  13.715  0.0481  0.1650  0.3876
 8698TIP3    H147509   1.716   2.377  13.630  0.9956 -2.6151  1.6304
 8698TIP3    H247510   1.675   2.329  13.768  0.2418  1.8233  3.1169
 8699TIP3   OH247511   6.117   4.321  12.434 -0.2676 -0.1623 -0.0158
 8699TIP3    H147512   6.185   4.337  12.369 -1.6159  1.6237 -1.0850
 8699TIP3    H247513   6.162   4.275  12.505  1.7465 -0.1601 -1.2011
 8700TIP3   OH247514   4.470   4.087  12.273  0.2582 -0.1797 -0.3134
 8700TIP3    H147515   4.433   4.067  12.359 -0.1428 -0.3617 -0.5301
 8700TIP3    H247516   4.535   4.018  12.258  1.6060  0.8296  0.6163
 8701TIP3   OH247517   1.189   1.183   5.681  0.2221 -0.0091  0.5626
 8701TIP3    H147518   1.117   1.200   5.621 -0.4042  1.4365  1.6497
 8701TIP3    H247519   1.159   1.219   5.765  1.2395 -1.5373  1.6427
 8702TIP3   OH247520   1.354   3.236  13.958 -0.1685  0.1449 -0.5494
 8702TIP3    H147521   1.436   3.224  14.007 -0.2447  0.4019 -0.3581
 8702TIP3    H247522   1.304   3.298  14.010 -2.2828 -3.0713  1.5430
 8703TIP3   OH247523   5.132   1.149   0.098 -0.0614  0.5691  0.0251
 8703TIP3    H147524   5.084   1.072   0.068  1.3581 -0.3288 -0.0369
 8703TIP3    H247525   5.186   1.117   0.171 -0.6609  1.8730  1.0830
 8704TIP3   OH247526   0.279   6.166   6.037 -0.2915  0.5851 -0.0817
 8704TIP3    H147527   0.286   6.098   6.104  0.5385 -1.0209 -1.6812
 8704TIP3    H247528   0.251   6.244   6.084  1.6757 -0.0513  2.3678
 8705TIP3   OH247529   1.003   3.890  15.044  0.1382 -0.2429  0.1227
 8705TIP3    H147530   1.016   3.943  15.122  0.2270  0.3633 -0.2943
 8705TIP3    H247531   0.978   3.804  15.077 -0.7616  0.2620  0.7941
 8706TIP3   OH247532   6.632   0.770   5.170 -0.4991  0.1843 -0.0063
 8706TIP3    H147533   6.549   0.732   5.142 -0.9878  0.5478  0.8736
 8706TIP3    H247534   6.624   0.863   5.149  1.2118 -0.2946 -3.3650
 8707TIP3   OH247535   2.615   0.977   3.131  0.9090 -0.2081 -0.0959
 8707TIP3    H147536   2.695   0.934   3.100  0.6003 -1.0381  0.2288
 8707TIP3    H247537   2.589   1.034   3.059 -0.1359 -2.5319 -1.6815
 8708TIP3   OH247538   6.595   1.045   5.065  0.6171 -0.0378  0.4710
 8708TIP3    H147539   6.533   1.055   4.994  1.7187  1.0702 -0.3753
 8708TIP3    H247540   6.624   1.134   5.086  2.0769 -0.5235  0.6668
 8709TIP3   OH247541   6.768   1.874  14.505  0.1369 -0.0974  0.1064
 8709TIP3    H147542   6.715   1.949  14.533  1.3075  1.0794 -0.7001
 8709TIP3    H247543   6.719   1.797  14.534 -1.6139  0.9551  0.0612
 8710TIP3   OH247544   5.044   6.243  10.894  0.0642  0.2671  0.3686
 8710TIP3    H147545   5.130   6.284  10.899  0.0393  0.5176 -0.9434
 8710TIP3    H247546   5.061   6.155  10.863 -0.0917  0.0542  0.8791
 8711TIP3   OH247547   4.093   6.244  12.407  0.6044 -0.1140 -0.2141
 8711TIP3    H147548   4.040   6.240  12.327  0.0580  0.6842  0.0868
 8711TIP3    H247549   4.067   6.167  12.458  0.4712 -0.2688 -0.5183
 8712TIP3   OH247550   1.147   2.686  16.651 -0.2142  0.5894  0.0632
 8712TIP3    H147551   1.084   2.718  16.716 -0.7646  1.1671 -0.7379
 8712TIP3    H247552   1.199   2.763  16.628  0.5080  0.2103  0.3885
 8713TIP3   OH247553   0.250   2.300   1.197 -0.0126  0.1228  0.1972
 8713TIP3    H147554   0.326   2.246   1.176  0.6446  0.5662  1.4249
 8713TIP3    H247555   0.264   2.330   1.286 -1.3132  0.7571  0.2182
 8714TIP3   OH247556   5.529   3.016   3.241  0.0439 -0.0899  1.0653
 8714TIP3    H147557   5.532   3.101   3.284 -0.6259  0.0249  0.8924
 8714TIP3    H247558   5.601   2.966   3.280  0.7043  0.6899  0.8683
 8715TIP3   OH247559   3.965   5.193   4.139  0.6746  0.1001  0.7271
 8715TIP3    H147560   4.038   5.155   4.089  0.9355 -0.9030  1.8122
 8715TIP3    H247561   3.996   5.280   4.164  1.4971 -0.3052  1.1529
 8716TIP3   OH247562   0.043   4.427  15.480  0.4537  0.0169 -0.0525
 8716TIP3    H147563   0.070   4.441  15.389  0.4797  0.0246 -0.0436
 8716TIP3    H247564   0.049   4.333  15.493  0.8918  0.0626  0.0805
 8717TIP3   OH247565   2.193   5.345  15.370  0.0581  0.0755  0.1010
 8717TIP3    H147566   2.288   5.332  15.376 -0.1193 -0.7050  1.9513
 8717TIP3    H247567   2.171   5.396  15.448 -1.1390 -0.3852  0.0792
 8718TIP3   OH247568   2.414   5.795   2.053  0.2252  0.1748 -0.2519
 8718TIP3    H147569   2.507   5.777   2.069  0.4382 -0.4676 -1.9917
 8718TIP3    H247570   2.408   5.806   1.959 -1.5845 -0.5125 -0.2506
 8719TIP3   OH247571   5.392   6.038  15.941 -0.0541  0.2044 -0.0921
 8719TIP3    H147572   5.483   6.030  15.913  0.0569 -1.9959  0.7297
 8719TIP3    H247573   5.388   6.123  15.985  0.9549  1.4744 -2.2586
 8720TIP3   OH247574   2.800   4.460  15.751 -0.0494 -0.6603  0.2084
 8720TIP3    H147575   2.866   4.523  15.781 -0.7242 -0.6050  1.6780
 8720TIP3    H247576   2.717   4.494  15.785 -0.8996 -0.6257 -1.7816
 8721TIP3   OH247577   0.932   3.740  14.158  0.0888 -0.0507  0.3988
 8721TIP3    H147578   0.927   3.734  14.062 -1.1506 -1.2897  0.5017
 8721TIP3    H247579   0.971   3.657  14.185 -0.4445 -0.1125  1.0126
 8722TIP3   OH247580   3.991   2.775  15.022 -0.6857  0.0113  0.3285
 8722TIP3    H147581   3.901   2.748  15.037 -0.1495 -2.3317 -0.2937
 8722TIP3    H247582   4.044   2.711  15.070  0.6808 -0.1535 -1.2972
 8723TIP3   OH247583   0.379   2.089  16.428  0.5164 -0.2021 -0.6697
 8723TIP3    H147584   0.357   2.099  16.335 -3.5268  1.3418  0.2615
 8723TIP3    H247585   0.410   2.176  16.455 -1.8652  0.4612  0.1237
 8724TIP3   OH247586   0.979   6.348   4.570  0.1266 -0.0211  0.5258
 8724TIP3    H147587   0.928   6.406   4.627  1.3277  2.2174 -0.5320
 8724TIP3    H247588   1.066   6.347   4.609  0.4801  0.0351 -0.2471
 8725TIP3   OH247589   2.022   1.356  14.991 -0.2675 -0.2075 -0.5227
 8725TIP3    H147590   2.053   1.445  15.006 -0.2653 -0.4157  0.9573
 8725TIP3    H247591   1.946   1.365  14.934  1.7204  0.4231 -3.2685
 8726TIP3   OH247592   4.163   5.546  14.795 -0.2216 -0.1612  0.9454
 8726TIP3    H147593   4.081   5.536  14.843 -1.6050  1.1269 -1.0227
 8726TIP3    H247594   4.189   5.637  14.810  0.3946 -0.3103  0.8354
 8727TIP3   OH247595   1.307   4.205  10.544 -0.4495 -0.3889  0.1141
 8727TIP3    H147596   1.228   4.153  10.561 -0.9061  0.4740  0.6887
 8727TIP3    H247597   1.276   4.295  10.541  0.5474 -0.0292  0.4900
 8728TIP3   OH247598   4.333   6.283   4.838 -0.3329 -0.0145 -0.0339
 8728TIP3    H147599   4.368   6.275   4.927  0.5128  1.5421 -0.1968
 8728TIP3    H247600   4.376   6.360   4.802 -1.6144  0.1236 -1.3616
 8729TIP3   OH247601   1.539   4.676  14.515 -0.3077 -0.2875 -0.0276
 8729TIP3    H147602   1.605   4.624  14.468 -0.9850  0.9652 -2.5470
 8729TIP3    H247603   1.455   4.646  14.480 -0.8930  0.2262  0.9010
 8730TIP3   OH247604   2.952   0.663  16.104 -0.1311  0.2555  0.2531
 8730TIP3    H147605   2.908   0.582  16.077 -0.3297  0.3795  0.2044
 8730TIP3    H247606   2.919   0.680  16.192  0.4525 -0.1016  0.5453
 8731TIP3   OH247607   4.433   0.110   3.748 -0.2876  0.3777 -0.0908
 8731TIP3    H147608   4.405   0.167   3.677 -1.5641  0.2766  0.3167
 8731TIP3    H247609   4.372   0.128   3.819 -0.1318 -0.8098  0.3624
 8732TIP3   OH247610   0.658   5.804  16.183 -0.5153 -0.0323  0.6860
 8732TIP3    H147611   0.724   5.742  16.213  0.5468  0.9129  0.3663
 8732TIP3    H247612   0.699   5.848  16.108 -1.8092  0.0393 -0.0107
 8733TIP3   OH247613   1.764   4.334   0.020  0.3486  0.6485  0.1407
 8733TIP3    H147614   1.784   4.247  -0.014 -2.0144 -0.4493  1.3794
 8733TIP3    H247615   1.725   4.380  -0.055 -0.3637 -0.1004  0.0390
 8734TIP3   OH247616   3.397   0.036   2.772  0.0065  0.4197  0.5997
 8734TIP3    H147617   3.353  -0.010   2.844  0.9255  0.2521  1.0712
 8734TIP3    H247618   3.333   0.035   2.700 -0.7079  0.0896  1.2255
 8735TIP3   OH247619   1.785   5.404   0.100  0.0158  0.3345  0.5581
 8735TIP3    H147620   1.796   5.475   0.037 -0.7878  0.5504  0.6559
 8735TIP3    H247621   1.715   5.433   0.157 -1.1776 -1.0580 -0.1382
 8736TIP3   OH247622   5.383   1.655   5.163 -0.1854  0.3579  0.0138
 8736TIP3    H147623   5.359   1.748   5.158  0.3361  0.4590 -0.8680
 8736TIP3    H247624   5.300   1.609   5.155 -0.6529  0.7535  2.1453
 8737TIP3   OH247625   4.187   5.569  15.749  0.6567  0.8806 -0.4204
 8737TIP3    H147626   4.207   5.477  15.762 -0.4298  0.5676 -0.8445
 8737TIP3    H247627   4.168   5.577  15.656 -0.9251  1.1662 -0.1070
 8738TIP3   OH247628   2.354   6.187  12.509 -0.1417  0.0913 -0.4396
 8738TIP3    H147629   2.363   6.128  12.434  2.3107  0.2496 -0.3292
 8738TIP3    H247630   2.370   6.274  12.473 -0.7269  0.3803 -0.0296
 8739TIP3   OH247631   3.208   3.579  16.025  0.8497  0.1034 -0.5574
 8739TIP3    H147632   3.236   3.616  15.942  0.8629 -0.5624 -0.8528
 8739TIP3    H247633   3.113   3.570  16.017  1.1185 -2.7669 -1.6998
 8740TIP3   OH247634   5.200   5.399   6.211  0.1183 -0.1040 -0.0310
 8740TIP3    H147635   5.169   5.325   6.263  2.2013 -0.6573  0.5206
 8740TIP3    H247636   5.122   5.431   6.166 -0.8970 -2.5168 -0.1520
 8741TIP3   OH247637   0.436   3.030  16.206 -0.6094 -0.3689  0.5790
 8741TIP3    H147638   0.513   3.042  16.150 -0.7671  0.8282  0.6107
 8741TIP3    H247639   0.462   2.960  16.266 -0.6715 -2.1917 -1.3574
 8742TIP3   OH247640   4.877   4.571   5.970  0.3177  0.3776  0.2921
 8742TIP3    H147641   4.897   4.612   6.054  0.4572 -1.3022  1.1169
 8742TIP3    H247642   4.939   4.498   5.963 -0.9038 -0.6441 -0.3684
 8743TIP3   OH247643   2.124   5.678   0.829  0.2922 -0.1342 -0.0850
 8743TIP3    H147644   2.045   5.651   0.878  1.2689 -1.6046  0.7782
 8743TIP3    H247645   2.091   5.706   0.744 -1.0757 -2.3515 -0.3838
 8744TIP3   OH247646   5.833   1.802   4.908  0.0300 -0.7813  0.5079
 8744TIP3    H147647   5.864   1.788   4.997 -1.1733 -1.8549  0.7965
 8744TIP3    H247648   5.745   1.839   4.919  0.6957  1.1140 -0.2659
 8745TIP3   OH247649   3.066   0.719   5.227  0.4584 -0.0071 -0.3151
 8745TIP3    H147650   3.049   0.765   5.309 -0.2510 -0.1066 -0.3981
 8745TIP3    H247651   3.094   0.787   5.166  1.7454 -0.0458  0.2144
 8746TIP3   OH247652   5.035   0.515  11.451 -0.1593  0.2066  0.5823
 8746TIP3    H147653   5.045   0.557  11.366  2.4239 -2.6841 -0.7099
 8746TIP3    H247654   5.101   0.557  11.506 -0.3295  0.5466  0.5320
 8747TIP3   OH247655   1.760   0.116   4.324 -0.2459 -0.8281  0.6003
 8747TIP3    H147656   1.717   0.053   4.382  0.0530 -1.1370  0.4897
 8747TIP3    H247657   1.726   0.095   4.237  0.7898 -1.6716  0.3726
 8748TIP3   OH247658   3.106   2.644   4.937  0.3080 -0.4348 -0.7199
 8748TIP3    H147659   3.040   2.625   5.003  1.0594 -1.0302 -0.1188
 8748TIP3    H247660   3.066   2.712   4.882  0.2832  1.3251  1.3212
 8749TIP3   OH247661   2.605   1.872  14.818  0.3242 -0.3435  0.0196
 8749TIP3    H147662   2.581   1.928  14.744 -0.0639 -1.1308 -0.4643
 8749TIP3    H247663   2.636   1.790  14.778  1.7153 -0.1799  0.6884
 8750TIP3   OH247664   0.689   5.881  12.916 -0.0263 -1.0429 -0.1322
 8750TIP3    H147665   0.690   5.786  12.918 -1.1254 -1.0531  0.8094
 8750TIP3    H247666   0.691   5.907  13.008 -0.7753 -0.1833 -0.3443
 8751TIP3   OH247667   3.200   0.978   5.685  1.4843  0.4955 -0.5144
 8751TIP3    H147668   3.141   0.963   5.760 -0.5107 -0.3443 -2.1635
 8751TIP3    H247669   3.217   1.072   5.687  0.1578  0.7608  0.1027
 8752TIP3   OH247670   0.195   4.011  13.304 -0.1903 -0.3784 -0.2204
 8752TIP3    H147671   0.139   3.934  13.298  1.1987 -1.2827 -2.6800
 8752TIP3    H247672   0.257   3.991  13.374 -1.1427 -0.5472  0.5999
 8753TIP3   OH247673   5.255   1.380   3.083  0.1378 -0.2018 -0.6462
 8753TIP3    H147674   5.253   1.333   3.166  0.7559  0.7846 -0.0494
 8753TIP3    H247675   5.189   1.337   3.029 -2.7190  1.2008  1.4826
 8754TIP3   OH247676   3.564   4.971  12.198 -0.1002  0.2588  0.2481
 8754TIP3    H147677   3.538   4.897  12.252 -1.0069  0.9151  0.7247
 8754TIP3    H247678   3.590   5.039  12.260  1.7803  0.0067 -0.1876
 8755TIP3   OH247679   0.735   1.254   5.857  0.4022 -0.2103 -0.0122
 8755TIP3    H147680   0.650   1.244   5.899  0.2536  1.4645  0.1439
 8755TIP3    H247681   0.773   1.332   5.898  1.4907 -0.2262 -0.9448
 8756TIP3   OH247682   4.924   4.220  16.974  0.0144  0.0242  0.3276
 8756TIP3    H147683   4.957   4.153  16.914 -0.0283  1.1238 -0.9856
 8756TIP3    H247684   4.842   4.184  17.008  0.8106 -1.2764  0.9635
 8757TIP3   OH247685   2.454   2.598  15.457 -0.0246 -0.0026  0.0748
 8757TIP3    H147686   2.381   2.622  15.401 -1.0786  0.1097  1.4554
 8757TIP3    H247687   2.464   2.504  15.444 -0.4319 -0.0223 -0.1033
 8758TIP3   OH247688   5.200   1.768  13.046 -0.4560  0.0146  0.1245
 8758TIP3    H147689   5.263   1.707  13.085 -0.1606  0.3070  0.1077
 8758TIP3    H247690   5.138   1.711  13.000 -1.4834 -0.4187  1.9420
 8759TIP3   OH247691   1.068   0.218  12.707  0.4122  0.0756  0.7287
 8759TIP3    H147692   1.025   0.237  12.791  0.0106  0.8843  0.3457
 8759TIP3    H247693   1.141   0.160  12.731 -0.1097 -0.2632  1.5468
 8760TIP3   OH247694   2.059   1.399  11.381  0.5635  0.5688  0.6070
 8760TIP3    H147695   2.123   1.419  11.313 -0.0518  1.1784  0.1907
 8760TIP3    H247696   2.085   1.313  11.414  1.4112  0.6750  0.2362
 8761TIP3   OH247697   4.920   1.064  14.168  0.2524  0.0600  0.2446
 8761TIP3    H147698   4.879   0.981  14.146  0.0986  0.0334  0.6307
 8761TIP3    H247699   4.980   1.043  14.239  1.6189 -0.0782 -0.8963
 8762TIP3   OH247700   0.464   5.732   0.404  0.4134  0.8921  0.1827
 8762TIP3    H147701   0.441   5.754   0.495 -1.2848  0.2748 -0.0507
 8762TIP3    H247702   0.455   5.815   0.357 -1.3287  0.7259  0.1424
 8763TIP3   OH247703   5.929   6.437  10.711  0.1457 -0.1468 -0.0664
 8763TIP3    H147704   5.838   6.425  10.738  0.2618 -0.0507  0.3787
 8763TIP3    H247705   5.925   6.500  10.640 -0.2519 -1.0792 -0.8974
 8764TIP3   OH247706   0.749   4.889   1.876 -0.1356 -0.7525  0.0805
 8764TIP3    H147707   0.665   4.863   1.915 -0.6171 -1.4108 -1.3331
 8764TIP3    H247708   0.725   4.944   1.802  0.6189 -1.5919 -0.8219
 8765TIP3   OH247709   5.349   6.763   0.689 -0.2460 -0.1801  0.4975
 8765TIP3    H147710   5.386   6.702   0.625  0.1665  1.7206 -1.1959
 8765TIP3    H247711   5.270   6.797   0.647 -0.6133  0.2487  1.5131
 8766TIP3   OH247712   4.662   4.744  14.869 -0.3257 -0.0170  0.0105
 8766TIP3    H147713   4.705   4.666  14.835  1.1070  0.2993  1.0298
 8766TIP3    H247714   4.726   4.814  14.858 -2.1098  1.4026 -2.2565
 8767TIP3   OH247715   6.687   3.958  12.796  0.9513  0.1837 -0.2010
 8767TIP3    H147716   6.743   3.956  12.874  0.1144  0.6827  0.4373
 8767TIP3    H247717   6.720   4.033  12.745  2.5220 -1.0884 -1.1473
 8768TIP3   OH247718   2.717   3.894  11.526  0.2284  0.1991 -0.2242
 8768TIP3    H147719   2.735   3.819  11.469  0.7322 -0.8599  1.2668
 8768TIP3    H247720   2.692   3.855  11.609 -1.0831  1.7022  0.1371
 8769TIP3   OH247721   6.197   0.656  15.858 -0.3080  0.1904  1.1318
 8769TIP3    H147722   6.201   0.665  15.763  0.2998  0.3213  1.1661
 8769TIP3    H247723   6.209   0.563  15.874 -0.7451  0.1202  1.0678
 8770TIP3   OH247724   1.200   3.294  15.163  0.5728 -0.2863 -0.3130
 8770TIP3    H147725   1.189   3.281  15.069 -0.8628  1.2675 -0.4036
 8770TIP3    H247726   1.125   3.247  15.202  2.3130 -2.8002  0.2965
 8771TIP3   OH247727   5.684   5.945  16.220  0.1038 -0.2845 -0.5606
 8771TIP3    H147728   5.743   6.013  16.190 -0.6968  0.5804 -0.2270
 8771TIP3    H247729   5.741   5.875  16.251  0.9489  0.5822 -0.1229
 8772TIP3   OH247730   6.674   3.354   3.438 -0.0487  0.1393 -0.0512
 8772TIP3    H147731   6.648   3.405   3.362 -0.7713  0.1627  0.2041
 8772TIP3    H247732   6.735   3.410   3.486  2.2691 -0.7462 -1.7880
 8773TIP3   OH247733   4.588   3.032   2.552 -0.4079  0.1949 -0.0408
 8773TIP3    H147734   4.649   3.031   2.479  1.0706  1.3165  1.1178
 8773TIP3    H247735   4.566   3.124   2.564  0.7777  0.2580  2.0136
 8774TIP3   OH247736   3.617   1.201  11.285  0.1206 -0.3303  0.1712
 8774TIP3    H147737   3.633   1.202  11.379  0.0773 -1.7174  0.2109
 8774TIP3    H247738   3.681   1.139  11.250 -1.5966 -1.9037 -0.3465
 8775TIP3   OH247739   1.104   3.660  11.285 -0.3612  0.4102 -0.4909
 8775TIP3    H147740   1.189   3.617  11.294 -0.3060  0.8408  1.4189
 8775TIP3    H247741   1.120   3.730  11.220  0.9135  0.8612  0.2661
 8776TIP3   OH247742   4.871   3.561   6.035  0.1918  0.1520  0.1471
 8776TIP3    H147743   4.916   3.485   5.997 -0.0272 -1.0151  2.0542
 8776TIP3    H247744   4.893   3.557   6.128 -1.9707  0.8945  0.7463
 8777TIP3   OH247745   2.809   3.383  13.054 -0.4582 -0.5755 -0.6458
 8777TIP3    H147746   2.879   3.427  13.103  1.2852 -2.2734 -1.4594
 8777TIP3    H247747   2.842   3.379  12.964 -1.2962 -2.0185 -0.9196
 8778TIP3   OH247748   1.605   3.653  13.735  0.5748 -0.2914 -0.3281
 8778TIP3    H147749   1.594   3.703  13.815  0.1667 -0.3028 -0.3719
 8778TIP3    H247750   1.603   3.562  13.763  1.9575 -0.2855 -0.1688
 8779TIP3   OH247751   6.307   4.756  16.590 -0.3840 -0.2695 -0.1834
 8779TIP3    H147752   6.238   4.821  16.579  0.2417  0.7973  1.7571
 8779TIP3    H247753   6.279   4.682  16.536 -1.9045  0.9856 -1.2035
 8780TIP3   OH247754   2.670   4.084   1.641  0.4509  0.2067 -0.3129
 8780TIP3    H147755   2.641   4.173   1.621  0.1960 -0.1346 -1.4866
 8780TIP3    H247756   2.605   4.050   1.703  1.6042  1.4961  1.7349
 8781TIP3   OH247757   0.710   4.638   6.259 -0.2232  0.1250  0.3253
 8781TIP3    H147758   0.717   4.549   6.293 -0.3151 -0.1564 -0.3748
 8781TIP3    H247759   0.751   4.693   6.326  3.0185 -0.7850 -0.7226
 8782TIP3   OH247760   4.576   5.488   2.062  0.1555 -0.0448  0.9535
 8782TIP3    H147761   4.638   5.454   1.997  0.9400  0.6486  1.3172
 8782TIP3    H247762   4.516   5.415   2.079 -0.2790 -0.1395 -0.7901
 8783TIP3   OH247763   5.666   0.360   1.221 -0.6064 -0.3163 -0.2920
 8783TIP3    H147764   5.748   0.407   1.204 -0.2803 -0.5078  0.6818
 8783TIP3    H247765   5.627   0.348   1.134 -0.3753  1.1580 -0.6237
 8784TIP3   OH247766   0.013   4.533  14.707  0.2327  0.2529  0.3116
 8784TIP3    H147767   0.037   4.622  14.731  1.3096 -0.0715  0.5081
 8784TIP3    H247768   0.087   4.502  14.654  0.3566 -0.8624  1.1041
 8785TIP3   OH247769   3.304   5.190   0.802 -0.5194  0.1095  0.1816
 8785TIP3    H147770   3.369   5.244   0.846 -0.5291  1.2365 -1.1069
 8785TIP3    H247771   3.352   5.112   0.775 -0.7108 -1.0310  2.8475
 8786TIP3   OH247772   5.832   4.834   2.669  0.2211 -0.2607  0.3210
 8786TIP3    H147773   5.790   4.774   2.608  1.0408  0.7441 -1.3263
 8786TIP3    H247774   5.924   4.809   2.668  0.5127  0.7529 -0.1116
 8787TIP3   OH247775   4.653   3.485  13.137 -0.3663  0.3375  0.3683
 8787TIP3    H147776   4.628   3.410  13.191 -0.0969 -1.9570 -2.4594
 8787TIP3    H247777   4.584   3.491  13.071 -0.5472  2.8605  0.7200
 8788TIP3   OH247778   1.675   1.156   1.446 -0.6058 -0.5357 -0.2595
 8788TIP3    H147779   1.623   1.220   1.494 -1.0883  0.1994 -1.7225
 8788TIP3    H247780   1.642   1.071   1.475 -2.2500 -0.0879 -0.7568
 8789TIP3   OH247781   4.348   1.690   1.175 -0.0342  0.4413 -0.1966
 8789TIP3    H147782   4.272   1.748   1.184  1.7044  2.7223  0.9521
 8789TIP3    H247783   4.409   1.739   1.120  1.7062  0.0042  1.2354
 8790TIP3   OH247784   2.152   4.064   3.079 -0.4210  0.4934 -0.0737
 8790TIP3    H147785   2.170   4.070   3.173 -2.1930  0.0019  0.3345
 8790TIP3    H247786   2.214   3.998   3.047 -0.9403 -0.6035  1.0959
 8791TIP3   OH247787   0.130   4.685   0.399 -0.6386 -0.1189  0.0560
 8791TIP3    H147788   0.174   4.756   0.353 -1.3210  0.6129  0.5054
 8791TIP3    H247789   0.197   4.648   0.456  0.5942 -1.8283 -2.2813
 8792TIP3   OH247790   6.547   2.316  13.186  0.0107 -0.2028  0.1018
 8792TIP3    H147791   6.516   2.399  13.150 -0.2035 -0.2322  0.2205
 8792TIP3    H247792   6.506   2.249  13.132  0.2028 -0.2325 -0.0092
 8793TIP3   OH247793   2.593   2.210  13.929  0.3276  0.1794  0.0369
 8793TIP3    H147794   2.537   2.196  14.006 -0.0213 -0.9868 -0.4012
 8793TIP3    H247795   2.631   2.297  13.942  0.0148  0.1403  1.3619
 8794TIP3   OH247796   5.016   3.327   2.532 -0.6596 -0.4478 -1.1053
 8794TIP3    H147797   5.008   3.235   2.505 -1.7377  0.0369 -2.5996
 8794TIP3    H247798   4.926   3.353   2.552 -0.2515  0.0805  0.1246
 8795TIP3   OH247799   5.566   3.342  10.637 -0.5440  0.8808 -0.0996
 8795TIP3    H147800   5.490   3.293  10.606  0.3531 -0.0261 -0.9448
 8795TIP3    H247801   5.533   3.430  10.652 -2.1770  0.1062  1.3059
 8796TIP3   OH247802   0.790   0.804   3.668 -0.2691  0.1737 -0.1531
 8796TIP3    H147803   0.879   0.779   3.641  0.5632  1.1616  1.5407
 8796TIP3    H247804   0.755   0.725   3.709 -0.6430 -0.5698 -1.7836
 8797TIP3   OH247805   3.710   2.054   3.103 -1.3747 -0.3544 -0.0994
 8797TIP3    H147806   3.671   2.020   3.022 -0.0856 -2.1731 -0.0063
 8797TIP3    H247807   3.802   2.026   3.099 -1.4518 -1.1118  2.3290
 8798TIP3   OH247808   5.585   6.608   2.357  0.3110  0.2708 -0.1340
 8798TIP3    H147809   5.514   6.672   2.353 -0.0070 -0.1010 -0.8885
 8798TIP3    H247810   5.628   6.615   2.271 -1.6991 -2.6540 -1.5677
 8799TIP3   OH247811   0.948   5.314   4.510  0.9411 -0.6998  0.3989
 8799TIP3    H147812   0.966   5.408   4.510  1.3118 -0.6902  2.9302
 8799TIP3    H247813   0.921   5.294   4.420  0.2631  1.9288 -0.0613
 8800TIP3   OH247814   1.842   0.080  14.203  0.0376  0.2704  0.5344
 8800TIP3    H147815   1.851   0.080  14.107 -1.8114  0.6695  0.3108
 8800TIP3    H247816   1.890   0.003  14.232  1.9208  0.9845 -0.5524
 8801TIP3   OH247817   4.058   2.077   6.569 -0.4961 -0.1938  0.3901
 8801TIP3    H147818   3.996   2.036   6.508 -0.7370  0.8767 -0.1101
 8801TIP3    H247819   4.105   2.141   6.516  1.4104 -1.3007  0.6475
 8802TIP3   OH247820   3.214   1.592  10.703  0.4626  0.1001 -0.1907
 8802TIP3    H147821   3.121   1.570  10.711  0.3477  0.8986  0.9648
 8802TIP3    H247822   3.258   1.535  10.767  0.7569 -0.1757 -0.6323
 8803TIP3   OH247823   5.981   0.429   3.741  0.2213 -0.3325 -0.3749
 8803TIP3    H147824   5.976   0.524   3.742  1.9146 -0.2139  0.5800
 8803TIP3    H247825   5.896   0.400   3.775  0.9785  0.9665  2.9906
 8804TIP3   OH247826   0.920   3.208   0.143 -0.1714 -0.5432 -0.2310
 8804TIP3    H147827   0.904   3.219   0.237  0.2278  0.0550 -0.2281
 8804TIP3    H247828   1.010   3.239   0.130 -0.5517  0.2860 -0.9704
 8805TIP3   OH247829   0.362   2.094  13.829 -0.4073  0.2701 -0.2253
 8805TIP3    H147830   0.319   2.179  13.818 -1.2026 -0.0241  0.4278
 8805TIP3    H247831   0.425   2.108  13.900 -0.6817  0.2731  0.0212
 8806TIP3   OH247832   4.732   2.638  11.716  0.2205 -0.2280  0.4809
 8806TIP3    H147833   4.776   2.712  11.757 -0.5704 -0.2075  1.3550
 8806TIP3    H247834   4.734   2.569  11.783 -1.2742 -0.1303  0.6707
 8807TIP3   OH247835   3.711   6.022  14.357 -0.6101 -0.1412 -0.2053
 8807TIP3    H147836   3.642   6.085  14.337  0.3902  0.6131 -1.4008
 8807TIP3    H247837   3.735   6.041  14.448  0.0926  1.6495 -0.7163
 8808TIP3   OH247838   5.118   5.597   5.921 -0.4950 -0.4749  0.1767
 8808TIP3    H147839   5.087   5.643   5.843 -1.0982 -1.5862 -0.2593
 8808TIP3    H247840   5.175   5.528   5.887 -1.0372 -1.1845  0.6819
 8809TIP3   OH247841   5.939   6.063   4.288  0.7172 -0.2854  0.9838
 8809TIP3    H147842   5.921   5.997   4.221  0.9977 -1.3851  1.9641
 8809TIP3    H247843   6.024   6.038   4.323  0.4177  0.0718  1.9867
 8810TIP3   OH247844   1.108   1.395   0.349  0.5191  0.2413  0.5537
 8810TIP3    H147845   1.182   1.334   0.353  0.6163  0.3304  0.1441
 8810TIP3    H247846   1.084   1.409   0.441  0.8692  0.0393  0.6786
 8811TIP3   OH247847   3.538   5.111   1.205 -0.0594 -0.5174  0.4603
 8811TIP3    H147848   3.544   5.115   1.109 -4.1767  0.2523  0.0628
 8811TIP3    H247849   3.544   5.017   1.225  0.1481 -0.7510 -0.6088
 8812TIP3   OH247850   4.705   1.768  14.320 -0.3247  0.0575 -0.1491
 8812TIP3    H147851   4.614   1.799  14.318 -0.8091 -1.2470  0.2929
 8812TIP3    H247852   4.697   1.673  14.312  0.9804 -0.1095  0.3670
 8813TIP3   OH247853   5.555   5.411   2.775 -0.5592  0.9315 -0.6824
 8813TIP3    H147854   5.616   5.336   2.775 -0.8040  0.7237  0.0191
 8813TIP3    H247855   5.611   5.486   2.796 -0.7864  0.4951  1.7909
 8814TIP3   OH247856   2.702   5.206   0.869 -0.4640  0.2247 -0.3596
 8814TIP3    H147857   2.648   5.279   0.837 -0.0902 -0.7157 -3.5015
 8814TIP3    H247858   2.718   5.153   0.791  0.0745 -2.7410  1.6129
 8815TIP3   OH247859   2.707   4.089  15.242 -0.3752  0.1074 -0.4831
 8815TIP3    H147860   2.688   3.996  15.244  0.6378 -0.1490 -1.8772
 8815TIP3    H247861   2.725   4.109  15.151  2.8722  0.9125  0.1920
 8816TIP3   OH247862   4.287   1.398   3.053  0.1981 -0.3543  0.2307
 8816TIP3    H147863   4.214   1.380   3.112  0.3201 -0.9239  0.2119
 8816TIP3    H247864   4.306   1.491   3.066  0.3494 -0.5153  1.2288
 8817TIP3   OH247865   1.407   4.397  15.097  0.0187 -0.7070  0.4137
 8817TIP3    H147866   1.395   4.312  15.055  0.3536 -0.1430 -0.8629
 8817TIP3    H247867   1.501   4.408  15.103  0.0025  0.0516 -0.4725
 8818TIP3   OH247868   5.509   3.875   3.122  0.8098  0.2617  0.1110
 8818TIP3    H147869   5.470   3.962   3.114 -1.9002 -0.9327 -0.7974
 8818TIP3    H247870   5.584   3.877   3.063  0.5558  1.8469 -0.1994
 8819TIP3   OH247871   6.218   6.217  14.408  0.4641 -0.3641  0.1000
 8819TIP3    H147872   6.266   6.249  14.331  1.1931  1.4160  1.2216
 8819TIP3    H247873   6.126   6.220  14.382  0.7433 -0.7665 -1.0180
 8820TIP3   OH247874   2.035   3.114  11.659 -0.1136 -0.0837  0.2578
 8820TIP3    H147875   2.111   3.114  11.718 -0.0159  1.0960  0.1612
 8820TIP3    H247876   1.962   3.144  11.715 -0.3107 -0.2913  0.1138
 8821TIP3   OH247877   2.068   3.942  14.905 -0.0891 -0.2103 -0.4339
 8821TIP3    H147878   2.030   3.857  14.883 -1.3273  0.0700  0.5014
 8821TIP3    H247879   2.099   3.931  14.995  2.8237 -0.6461 -1.3549
 8822TIP3   OH247880   3.448   4.013  11.555 -0.7381 -0.2321  0.3046
 8822TIP3    H147881   3.381   3.970  11.502 -0.5333 -1.9302  1.3353
 8822TIP3    H247882   3.503   4.059  11.492  0.0578 -2.9053 -1.1327
 8823TIP3   OH247883   5.402   3.130   0.012 -0.1752 -0.0056  0.5691
 8823TIP3    H147884   5.456   3.201  -0.022  0.4070 -1.0602 -0.8064
 8823TIP3    H247885   5.451   3.050  -0.010 -0.9135 -0.8532  1.8666
 8824TIP3   OH247886   1.637   6.125   1.682 -0.6929  0.1924  0.2104
 8824TIP3    H147887   1.574   6.104   1.614  1.0876 -2.5159 -0.7787
 8824TIP3    H247888   1.639   6.048   1.738  2.4133 -0.3362 -0.4396
 8825TIP3   OH247889   2.474   0.861  14.765  0.3954  0.2058 -0.0420
 8825TIP3    H147890   2.475   0.765  14.764  1.6021  0.1576 -2.3532
 8825TIP3    H247891   2.438   0.884  14.850  0.3743 -2.2962  0.7086
 8826TIP3   OH247892   6.035   6.637  12.891  0.2885  0.1667  0.2355
 8826TIP3    H147893   5.966   6.681  12.941 -0.5469 -1.2226  0.3575
 8826TIP3    H247894   6.046   6.691  12.813 -2.4157 -0.6240 -0.7992
 8827TIP3   OH247895   3.663   5.448  11.169  0.4349 -0.6589 -0.0952
 8827TIP3    H147896   3.625   5.393  11.101 -0.9069 -0.4509  0.4478
 8827TIP3    H247897   3.588   5.477  11.221  1.2274  0.7670  0.3104
 8828TIP3   OH247898   3.066   4.826   5.887 -0.1532  0.1596  0.5209
 8828TIP3    H147899   3.103   4.890   5.948 -2.4615  1.1778  0.9867
 8828TIP3    H247900   3.073   4.742   5.932  4.6246 -0.4589 -0.8461
 8829TIP3   OH247901   4.027   4.936  14.116 -0.4223 -0.4117  0.3419
 8829TIP3    H147902   4.081   4.911  14.191  1.3842  1.8946 -0.0676
 8829TIP3    H247903   4.086   4.985  14.059 -2.6020  0.9660 -0.8865
 8830TIP3   OH247904   0.561   2.089   2.867  0.0200  0.9937  0.5482
 8830TIP3    H147905   0.613   2.042   2.802 -1.4953  0.5956 -0.4310
 8830TIP3    H247906   0.622   2.108   2.938  1.6003  0.9595 -0.7447
 8831TIP3   OH247907   5.836   5.553   3.824 -0.0873  0.1314 -0.0276
 8831TIP3    H147908   5.887   5.630   3.847  0.7932  0.1744 -1.9833
 8831TIP3    H247909   5.897   5.480   3.836 -0.6520 -0.1972  0.9685
 8832TIP3   OH247910   6.141   5.660  12.964 -0.5121  0.4239  0.0506
 8832TIP3    H147911   6.107   5.740  13.004 -1.4512  1.0587 -1.9360
 8832TIP3    H247912   6.069   5.597  12.972 -0.0982  0.0283  0.7990
 8833TIP3   OH247913   5.021   1.977  14.856 -0.0860  0.0307 -0.1492
 8833TIP3    H147914   5.087   1.966  14.788 -1.2998 -1.1304 -1.2007
 8833TIP3    H247915   5.019   1.893  14.901 -1.4552 -0.2842 -0.7373
 8834TIP3   OH247916   4.154   5.958  13.145 -0.2756  0.1646 -0.4414
 8834TIP3    H147917   4.180   6.027  13.207  2.2560 -2.1102  1.2942
 8834TIP3    H247918   4.076   5.919  13.183 -0.4805  0.7216 -0.2894
 8835TIP3   OH247919   2.678   5.479  13.656  0.2464  0.1623  0.3185
 8835TIP3    H147920   2.699   5.514  13.570  0.9998 -1.1861 -0.0780
 8835TIP3    H247921   2.716   5.542  13.718  0.1372  0.8804 -0.3326
 8836TIP3   OH247922   3.458   5.148  11.817  0.2033 -0.1462  0.5978
 8836TIP3    H147923   3.473   5.240  11.839  1.9768 -0.3737  0.4928
 8836TIP3    H247924   3.441   5.148  11.723  1.0897  0.0015  0.4299
 8837TIP3   OH247925   5.665   0.847  13.049 -0.1366 -0.0718 -0.1999
 8837TIP3    H147926   5.667   0.804  12.964 -1.0590  0.1252 -0.3292
 8837TIP3    H247927   5.738   0.909  13.047  1.2287 -1.6010 -0.0079
 8838TIP3   OH247928   1.722   4.465   5.008  0.0643  0.4277 -0.3392
 8838TIP3    H147929   1.667   4.527   4.961 -0.1209  0.5443  0.0239
 8838TIP3    H247930   1.694   4.473   5.099 -1.0772 -1.3475 -0.4937
 8839TIP3   OH247931   4.832   2.342  15.687 -0.3477 -0.1311  0.3642
 8839TIP3    H147932   4.781   2.262  15.698  1.8941 -1.5230  1.2626
 8839TIP3    H247933   4.880   2.351  15.769  0.3554  1.4849 -0.1875
 8840TIP3   OH247934   0.481   4.446  16.453 -0.1992 -0.6403 -0.2764
 8840TIP3    H147935   0.451   4.527  16.412  2.2453  1.2017  1.3136
 8840TIP3    H247936   0.494   4.468  16.545  1.5717 -2.5244 -0.0019
 8841TIP3   OH247937   6.086   2.256   3.289 -0.0383  0.0203 -0.1925
 8841TIP3    H147938   6.044   2.173   3.314  0.2302 -0.4467 -1.2758
 8841TIP3    H247939   6.159   2.231   3.233  0.4164  0.9616 -0.0425
 8842TIP3   OH247940   5.848   6.172  14.788  0.1545  0.1776 -0.0673
 8842TIP3    H147941   5.879   6.107  14.725 -0.5556 -1.3873  1.1429
 8842TIP3    H247942   5.926   6.224  14.808  0.0424  1.9600 -3.5434
 8843TIP3   OH247943   3.224   6.614  14.002 -0.1033 -0.5533 -0.3900
 8843TIP3    H147944   3.287   6.577  14.064 -1.5374  2.3230  3.1707
 8843TIP3    H247945   3.141   6.618  14.051 -1.7540  0.6187 -3.0273
 8844TIP3   OH247946   0.313   3.908  13.902 -0.3994  0.1690 -0.8922
 8844TIP3    H147947   0.273   3.914  13.815 -1.6254 -0.7923 -0.4259
 8844TIP3    H247948   0.388   3.850  13.890 -1.5860 -1.4237 -1.0165
 8845TIP3   OH247949   5.405   2.342  12.052 -0.4539  0.1811  0.1415
 8845TIP3    H147950   5.430   2.258  12.012 -0.5626 -0.0689  0.5868
 8845TIP3    H247951   5.488   2.381  12.079 -0.3985  0.2385 -0.1172
 8846TIP3   OH247952   3.943   6.720  10.945  0.1004  0.0378 -0.4609
 8846TIP3    H147953   3.900   6.751  10.866  0.3503  0.0451 -0.5934
 8846TIP3    H247954   3.882   6.741  11.016  0.1345  0.5496 -0.5858
 8847TIP3   OH247955   3.093   3.114  15.176  0.4277 -0.0608 -0.2907
 8847TIP3    H147956   3.111   3.117  15.082 -0.7048  0.2829 -0.5035
 8847TIP3    H247957   3.095   3.021  15.198 -0.7350 -0.2509 -0.9463
 8848TIP3   OH247958   1.538   3.580  16.427  0.3899 -0.1322  0.0602
 8848TIP3    H147959   1.625   3.612  16.403 -0.5178  2.1780 -0.3733
 8848TIP3    H247960   1.545   3.560  16.521  1.8891 -1.9876 -0.3696
 8849TIP3   OH247961   5.600   2.651  16.510  0.0396 -0.1994 -0.6545
 8849TIP3    H147962   5.599   2.742  16.541  0.4401 -0.7750  1.1884
 8849TIP3    H247963   5.693   2.631  16.497  0.0004 -0.5543 -0.3984
 8850TIP3   OH247964   2.232   6.718   3.967  0.0162 -0.3097 -0.1423
 8850TIP3    H147965   2.288   6.674   3.903 -0.0762 -0.2599 -0.2571
 8850TIP3    H247966   2.149   6.671   3.963  0.7046 -1.7793  1.5685
 8851TIP3   OH247967   0.519   5.314  12.340  0.1980 -0.0545 -0.1138
 8851TIP3    H147968   0.501   5.235  12.288  0.0609 -0.2788  0.2718
 8851TIP3    H247969   0.474   5.384  12.292  1.1597 -0.0271 -1.0127
 8852TIP3   OH247970   1.309   0.196   2.842 -0.1679 -0.0153 -0.5794
 8852TIP3    H147971   1.227   0.179   2.889  1.5226 -0.9902  2.2448
 8852TIP3    H247972   1.354   0.262   2.896  0.8681  0.6341 -2.1654
 8853TIP3   OH247973   1.519   3.598   1.509  0.3922 -0.3497  0.1798
 8853TIP3    H147974   1.578   3.634   1.443  1.5511 -1.1500  0.7533
 8853TIP3    H247975   1.548   3.636   1.591 -0.2863 -0.2861  0.3994
 8854TIP3   OH247976   5.625   0.479  17.034  0.1326  1.1069  0.0043
 8854TIP3    H147977   5.622   0.527  17.116 -0.3131 -0.6167  1.0549
 8854TIP3    H247978   5.561   0.523  16.978 -0.8245  1.2923  1.1970
 8855TIP3   OH247979   6.007   3.354  16.760  0.3168  0.5409 -0.2076
 8855TIP3    H147980   6.093   3.395  16.759  0.4713  0.2206 -1.2219
 8855TIP3    H247981   6.010   3.290  16.688  0.7050 -2.5597  2.3122
 8856TIP3   OH247982   0.923   1.037   2.943 -0.1758  0.1356  0.0983
 8856TIP3    H147983   0.929   1.113   2.885 -1.6373 -0.5294 -0.9925
 8856TIP3    H247984   0.986   0.975   2.908  1.5083  1.0350  1.3883
 8857TIP3   OH247985   5.969   1.132  14.328  0.1683 -0.2841 -0.1640
 8857TIP3    H147986   6.061   1.158  14.338  0.0240  0.1680  0.0058
 8857TIP3    H247987   5.922   1.214  14.313  0.0412 -0.6812 -2.1966
 8858TIP3   OH247988   0.012   2.056   0.387 -0.7405  0.5182  0.4023
 8858TIP3    H147989   0.017   1.974   0.339  1.1617  0.4714  0.6261
 8858TIP3    H247990   0.082   2.110   0.351 -1.3169  1.6746  0.9535
 8859TIP3   OH247991   4.201   4.190   2.666  0.3371  0.1797 -0.3967
 8859TIP3    H147992   4.145   4.112   2.656 -0.8830  0.9673  0.0263
 8859TIP3    H247993   4.202   4.205   2.761 -0.2202  1.2084 -0.5412
 8860TIP3   OH247994   2.013   2.077  15.658 -0.2224 -0.4061 -1.0494
 8860TIP3    H147995   2.106   2.055  15.655  0.4026  2.0456 -1.3974
 8860TIP3    H247996   1.981   2.058  15.570  0.6607  1.4262 -1.8076
 8861TIP3   OH247997   0.047   6.097   3.331  0.0466  0.0027 -0.2445
 8861TIP3    H147998   0.127   6.091   3.384 -1.5838 -0.8970  2.2966
 8861TIP3    H247999   0.041   6.012   3.288  0.6616  0.2341 -0.8075
 8862TIP3   OH248000   2.286   1.689  13.015  0.1054 -0.2252 -0.3466
 8862TIP3    H148001   2.334   1.669  13.095  0.0415 -2.0727 -0.7243
 8862TIP3    H248002   2.321   1.628  12.950 -0.4521  0.6439 -1.4990
 8863TIP3   OH248003   5.399   2.874   0.472 -0.4002 -0.2803 -0.0249
 8863TIP3    H148004   5.444   2.838   0.395 -0.4801 -0.0242 -0.1934
 8863TIP3    H248005   5.468   2.920   0.519 -0.2049 -1.0033  0.4164
 8864TIP3   OH248006   0.014   6.657   4.440  0.2767  0.2643  0.2489
 8864TIP3    H148007   0.001   6.629   4.530 -0.7388 -1.6203 -0.4381
 8864TIP3    H248008  -0.032   6.741   4.434  2.1834  1.5594  1.9801
 8865TIP3   OH248009   5.186   3.360  13.881  0.0891 -0.4517  0.1023
 8865TIP3    H148010   5.155   3.276  13.914 -0.9008 -0.1490 -0.0301
 8865TIP3    H248011   5.123   3.384  13.814 -0.6069  1.1642  1.2661
 8866TIP3   OH248012   3.219   1.051   1.447  0.2478  0.2139  0.1098
 8866TIP3    H148013   3.206   1.038   1.541 -1.2115 -3.8215 -0.4821
 8866TIP3    H248014   3.137   1.090   1.416 -0.7479 -1.8283  0.0568
 8867TIP3   OH248015   1.583   1.704   0.048  0.0314  0.3276  0.0635
 8867TIP3    H148016   1.562   1.797   0.060  0.1538  0.0964  2.7825
 8867TIP3    H248017   1.515   1.671  -0.011 -1.7027  1.5775  1.2747
 8868TIP3   OH248018   0.358   1.113  11.124  0.3971  0.0722 -0.3819
 8868TIP3    H148019   0.369   1.060  11.045 -1.8535  0.5940 -1.0944
 8868TIP3    H248020   0.348   1.202  11.093  1.6852  0.6191  0.6710
 8869TIP3   OH248021   5.574   0.788   2.269 -0.0123  0.3734 -0.3368
 8869TIP3    H148022   5.654   0.839   2.264  0.7656 -0.6698  0.8612
 8869TIP3    H248023   5.598   0.701   2.238 -0.8923  0.2590 -0.7319
 8870TIP3   OH248024   1.338   6.277   2.289 -0.2082  0.1982 -0.5520
 8870TIP3    H148025   1.329   6.227   2.371 -2.2916  0.6183 -0.4578
 8870TIP3    H248026   1.343   6.368   2.317  2.5309  0.2032 -0.7839
 8871TIP3   OH248027   3.592   6.683  14.929 -0.4815 -0.2390  0.4706
 8871TIP3    H148028   3.678   6.722  14.914 -0.8627  0.5310  0.1806
 8871TIP3    H248029   3.576   6.629  14.852 -1.0646  1.1698 -0.4544
 8872TIP3   OH248030   4.191   3.193   0.420 -0.5175  0.3490 -0.0029
 8872TIP3    H148031   4.264   3.232   0.468 -0.0562 -0.0781 -0.3495
 8872TIP3    H248032   4.228   3.168   0.335 -1.0711  0.1569 -0.1940
 8873TIP3   OH248033   3.210   2.057   5.266 -0.1020  0.4539 -0.6719
 8873TIP3    H148034   3.173   2.137   5.305 -2.6095 -0.4506 -0.9859
 8873TIP3    H248035   3.229   2.081   5.176  1.0434  1.2094 -0.2498
 8874TIP3   OH248036   1.537   0.443  15.540 -0.0399 -0.2187  0.2774
 8874TIP3    H148037   1.603   0.374  15.532 -0.1971 -0.2930 -0.5311
 8874TIP3    H248038   1.522   0.452  15.634  0.1310 -1.1453  0.4043
 8875TIP3   OH248039   0.880   2.683  16.502 -0.3232  0.2132 -0.1932
 8875TIP3    H148040   0.919   2.698  16.416  0.8795  0.0618  0.3029
 8875TIP3    H248041   0.913   2.755  16.556 -1.7363  0.7835 -0.0509
 8876TIP3   OH248042   0.567   1.817   5.008 -0.2674  0.4704 -0.1089
 8876TIP3    H148043   0.525   1.828   5.094 -0.8225  0.4073 -0.3643
 8876TIP3    H248044   0.548   1.726   4.985  0.4113  0.3020 -0.0274
 8877TIP3   OH248045   6.589   0.002   2.663 -0.6085 -0.2798 -0.1318
 8877TIP3    H148046   6.506  -0.002   2.615 -1.0614  1.8497  0.3664
 8877TIP3    H248047   6.574   0.068   2.730  0.9096 -1.1998  1.1979
 8878TIP3   OH248048   6.452   1.049  13.591 -0.4752  0.4427  0.3882
 8878TIP3    H148049   6.442   1.083  13.680  0.5630  2.4286 -0.1835
 8878TIP3    H248050   6.424   0.958  13.596 -1.5668  0.8472  2.4795
 8879TIP3   OH248051   0.217   3.053   2.484  0.2573 -0.0783  0.0494
 8879TIP3    H148052   0.305   3.018   2.472  0.8764  0.6545  2.0070
 8879TIP3    H248053   0.172   2.987   2.538  0.1666  0.3332  0.4816
 8880TIP3   OH248054   0.957   5.945  13.984 -0.1368  0.3056  0.8970
 8880TIP3    H148055   0.882   6.003  13.975  0.2346  0.6517 -0.1649
 8880TIP3    H248056   1.019   5.976  13.918  0.1933 -1.0986  0.5058
 8881TIP3   OH248057   6.686   3.508   2.051  0.2313  0.5088 -0.1274
 8881TIP3    H148058   6.738   3.583   2.024  0.4970  0.5892  0.6001
 8881TIP3    H248059   6.686   3.450   1.975  1.6397  0.3677 -0.0403
 8882TIP3   OH248060   4.685   0.070  15.353  0.2460  0.0498  0.3201
 8882TIP3    H148061   4.773   0.046  15.324 -0.2562 -1.3481 -0.1217
 8882TIP3    H248062   4.690   0.165  15.367  2.0224 -0.1063  1.0507
 8883TIP3   OH248063   1.560   3.106  11.816 -0.4104  0.0947  0.1836
 8883TIP3    H148064   1.476   3.093  11.771 -0.3844 -0.7387  0.3593
 8883TIP3    H248065   1.612   3.030  11.791  0.6941  1.1300 -0.7970
 8884TIP3   OH248066   1.550   2.994   5.170 -0.0696 -0.9093 -0.3112
 8884TIP3    H148067   1.487   3.024   5.236  1.2976 -0.6947  0.9411
 8884TIP3    H248068   1.547   2.898   5.176 -1.1045 -0.9501 -1.1025
 8885TIP3   OH248069   5.040   0.325  13.820 -0.0386  0.1326 -0.1022
 8885TIP3    H148070   4.979   0.349  13.751  0.5766 -0.5961 -0.9221
 8885TIP3    H248071   5.021   0.233  13.839 -1.0387  0.6416  1.6031
 8886TIP3   OH248072   1.648   4.653  16.354  0.2041 -0.0558  0.0754
 8886TIP3    H148073   1.627   4.667  16.261 -0.8119  1.2360  0.4557
 8886TIP3    H248074   1.567   4.619  16.391  0.6456 -0.6822  0.4685
 8887TIP3   OH248075   5.684   4.552  11.391 -0.1561 -0.1122 -0.0164
 8887TIP3    H148076   5.728   4.616  11.335  1.7745 -2.5324 -1.4843
 8887TIP3    H248077   5.737   4.550  11.471 -0.8693  0.8379  0.5056
 8888TIP3   OH248078   4.771   3.417  16.943 -0.1573  0.0225  0.1663
 8888TIP3    H148079   4.852   3.391  16.899  1.4636 -0.2754  3.0416
 8888TIP3    H248080   4.709   3.347  16.923  0.4480 -0.0446 -1.6192
 8889TIP3   OH248081   2.413   2.803  14.367 -0.5022 -0.3312 -0.5050
 8889TIP3    H148082   2.347   2.853  14.320 -1.1523 -1.7387 -1.1444
 8889TIP3    H248083   2.379   2.713  14.367  0.5669 -0.7570  0.7011
 8890TIP3   OH248084   1.142   5.333  15.950 -0.2164  1.0413 -0.5754
 8890TIP3    H148085   1.084   5.402  15.981 -0.5734  1.3067 -1.8014
 8890TIP3    H248086   1.094   5.252  15.966 -0.4735  1.1866 -0.6085
 8891TIP3   OH248087   0.204   6.128   4.285 -0.0939  0.3501 -0.5386
 8891TIP3    H148088   0.247   6.168   4.360 -2.7622 -0.4006  1.5616
 8891TIP3    H248089   0.247   6.043   4.274 -0.0974  0.1941  0.6004
 8892TIP3   OH248090   1.893   5.250  16.244  0.8646  0.6603 -0.1491
 8892TIP3    H148091   1.889   5.211  16.157  0.6185 -1.0945  0.6054
 8892TIP3    H248092   1.866   5.180  16.303  1.8682  1.5367  1.4285
 8893TIP3   OH248093   0.404   6.558   4.241  0.0816 -0.0159  0.0985
 8893TIP3    H148094   0.483   6.583   4.194 -0.0332 -0.2664 -0.2343
 8893TIP3    H248095   0.369   6.640   4.275  0.8684  0.0117  0.8664
 8894TIP3   OH248096   6.388   3.266   2.412  0.2886 -0.0921 -0.1966
 8894TIP3    H148097   6.442   3.255   2.491  0.5489 -2.4370 -0.6354
 8894TIP3    H248098   6.449   3.300   2.347  0.9171 -1.2878 -0.2665
 8895TIP3   OH248099   3.066   1.746  16.158 -0.2270 -0.3673 -0.2934
 8895TIP3    H148100   3.008   1.805  16.110  1.2307  2.0415  0.7546
 8895TIP3    H248101   3.050   1.660  16.119 -3.3847  0.4194 -1.0271
 8896TIP3   OH248102   1.783   5.852   3.052  0.3119  0.2671 -0.4575
 8896TIP3    H148103   1.864   5.805   3.072  0.1262 -0.3859 -1.1800
 8896TIP3    H248104   1.758   5.893   3.134  0.6690 -0.6219  0.1126
 8897TIP3   OH248105   6.409   0.262  11.572 -0.1010 -0.0398  0.3232
 8897TIP3    H148106   6.459   0.214  11.506 -0.4001 -0.9316  0.7282
 8897TIP3    H248107   6.326   0.213  11.580 -0.2000  0.2391  1.1130
 8898TIP3   OH248108   2.494   6.480   0.980  0.7575 -0.1659 -0.4692
 8898TIP3    H148109   2.431   6.409   0.990  1.3325 -0.5964  0.1746
 8898TIP3    H248110   2.445   6.550   0.937  0.1836 -0.9481 -1.1170
 8899TIP3   OH248111   0.172   3.336  15.404 -0.9510  0.0580 -0.2596
 8899TIP3    H148112   0.232   3.409  15.414 -0.1502 -0.8943  3.2580
 8899TIP3    H248113   0.226   3.258  15.415 -2.2746 -0.9538 -0.6104
 8900TIP3   OH248114   2.564   6.705  15.264  0.8908  0.3121 -1.1308
 8900TIP3    H148115   2.587   6.798  15.259  0.7073  0.3006 -3.5026
 8900TIP3    H248116   2.635   6.666  15.314  0.6277  1.7923  0.5017
 8901TIP3   OH248117   6.355   2.472   1.253 -0.6906  0.1150 -0.4126
 8901TIP3    H148118   6.384   2.396   1.203  4.9364  0.7806  1.0591
 8901TIP3    H248119   6.395   2.547   1.209 -1.6435  1.5760  1.0627
 8902TIP3   OH248120   6.359   3.134  15.874  0.4610  0.1545  0.3561
 8902TIP3    H148121   6.387   3.095  15.791  1.2094  2.0529 -0.3320
 8902TIP3    H248122   6.400   3.079  15.941 -0.6430 -1.7798 -0.4619
 8903TIP3   OH248123   5.766   3.279  12.949 -0.0903 -0.9957  0.0349
 8903TIP3    H148124   5.811   3.320  12.875 -0.4170 -1.1267 -0.2395
 8903TIP3    H248125   5.763   3.186  12.927  0.2010 -1.1012  0.4221
 8904TIP3   OH248126   6.158   1.430  15.309 -0.3316  0.0745  0.0143
 8904TIP3    H148127   6.205   1.512  15.321 -3.1697  1.4787  3.0054
 8904TIP3    H248128   6.227   1.364  15.298  2.0640  2.7940 -3.5708
 8905TIP3   OH248129   3.261   3.741   4.661 -0.1068  0.1188  0.4773
 8905TIP3    H148130   3.245   3.835   4.673 -0.8150  0.3339 -1.5986
 8905TIP3    H248131   3.266   3.705   4.749  0.1835  2.1040  1.3204
 8906TIP3   OH248132   5.680   3.272  10.887  0.1274 -0.3138  0.0041
 8906TIP3    H148133   5.648   3.183  10.898 -1.2339  0.2861  1.3171
 8906TIP3    H248134   5.625   3.310  10.818  1.2749 -0.7147 -1.1696
 8907TIP3   OH248135   2.648   4.334  13.377  0.6441 -0.2618  0.2026
 8907TIP3    H148136   2.592   4.291  13.312 -1.2756  2.1758  0.0749
 8907TIP3    H248137   2.700   4.396  13.327  0.7232  0.1297  0.7614
 8908TIP3   OH248138   5.775   4.633  10.622  0.3169  0.0538 -0.0167
 8908TIP3    H148139   5.751   4.578  10.547  0.3445  0.2753 -0.1906
 8908TIP3    H248140   5.870   4.643  10.615  0.4222 -0.5966  0.5151
 8909TIP3   OH248141   2.494   0.010   4.510  0.2923  0.4996 -0.7147
 8909TIP3    H148142   2.456  -0.047   4.576  1.8811  0.0048 -0.1821
 8909TIP3    H248143   2.420   0.058   4.475 -0.8031 -0.3737  0.3073
 8910TIP3   OH248144   3.919   3.880  15.948  0.0762  0.6127  0.3411
 8910TIP3    H148145   3.878   3.825  15.881  0.8526  1.2478 -0.6843
 8910TIP3    H248146   3.867   3.866  16.027  1.3988 -3.1668  0.7286
 8911TIP3   OH248147   0.778   1.223  16.840 -0.4997  0.0105  0.2868
 8911TIP3    H148148   0.765   1.201  16.747 -0.1798 -1.9793  0.6732
 8911TIP3    H248149   0.860   1.182  16.863 -0.4509  0.7053  1.4189
 8912TIP3   OH248150   5.686   1.118  10.458 -0.2990 -0.4698 -0.1738
 8912TIP3    H148151   5.659   1.031  10.428 -1.6309 -0.2797  0.3961
 8912TIP3    H248152   5.603   1.165  10.474  0.3510  0.2316  1.4037
 8913TIP3   OH248153   5.711   2.824   3.296 -0.4259 -0.3539 -0.8371
 8913TIP3    H148154   5.754   2.823   3.381 -1.4666  2.8229 -0.1380
 8913TIP3    H248155   5.782   2.831   3.233  0.2980 -1.4673 -0.1671
 8914TIP3   OH248156   3.879   3.126  16.039 -0.2482  0.1540  0.8007
 8914TIP3    H148157   3.928   3.192  16.089 -1.1336  1.3047  0.2200
 8914TIP3    H248158   3.792   3.127  16.078  0.0747 -1.6765  1.6546
 8915TIP3   OH248159   6.540   5.759  13.724 -0.1361  0.2509  0.3542
 8915TIP3    H148160   6.580   5.840  13.691  0.7068  0.6933  2.2921
 8915TIP3    H248161   6.460   5.788  13.767 -0.3067 -0.0703  0.2532
 8916TIP3   OH248162   3.801   5.999  17.125 -0.2588  0.7496 -0.0966
 8916TIP3    H148163   3.720   5.982  17.076 -1.0971  0.4440  1.3404
 8916TIP3    H248164   3.789   5.953  17.208  0.8215  1.8156  0.6864
 8917TIP3   OH248165   1.567   3.149   1.557 -0.0062 -0.2883 -0.0704
 8917TIP3    H148166   1.647   3.103   1.531  0.3374  0.8527 -1.1528
 8917TIP3    H248167   1.590   3.192   1.640  0.5264  0.0620 -0.3933
 8918TIP3   OH248168   3.743   1.080   1.708  0.3579 -0.2348 -0.6165
 8918TIP3    H148169   3.672   1.132   1.672 -0.0003 -0.4073 -0.1638
 8918TIP3    H248170   3.809   1.144   1.734  1.2279 -0.1520 -2.7964
 8919TIP3   OH248171   1.879   3.476   0.641  0.2496  0.4464  0.0795
 8919TIP3    H148172   1.847   3.421   0.570  2.0748  0.6026 -0.9178
 8919TIP3    H248173   1.898   3.415   0.712 -0.5080  0.1532  0.0358
 8920TIP3   OH248174   6.201   5.218   2.451  0.3820  0.4683 -0.0670
 8920TIP3    H148175   6.288   5.205   2.412 -0.3252 -0.5630 -1.4025
 8920TIP3    H248176   6.147   5.149   2.412 -1.4417  2.0590 -0.4948
 8921TIP3   OH248177   2.263   4.199  14.638  0.0460  0.1455 -0.3397
 8921TIP3    H148178   2.287   4.108  14.653 -0.0614  0.2924  0.8281
 8921TIP3    H248179   2.264   4.239  14.725  1.4059  1.5901 -0.9627
 8922TIP3   OH248180   6.684   2.394  15.623 -0.5480  0.3705  0.0854
 8922TIP3    H148181   6.629   2.449  15.568  1.1038  0.7903 -1.2485
 8922TIP3    H248182   6.625   2.329  15.660 -2.0780  1.3930 -0.4814
 8923TIP3   OH248183   0.727   2.280   3.865  0.1255 -0.3169  0.6222
 8923TIP3    H148184   0.652   2.301   3.920 -0.2911  0.3610 -0.1741
 8923TIP3    H248185   0.714   2.333   3.786 -0.1347 -2.4481 -0.8372
 8924TIP3   OH248186   0.909   1.240   0.865 -0.2037 -0.3688  0.2089
 8924TIP3    H148187   0.840   1.297   0.832  2.5635  2.6660 -0.8515
 8924TIP3    H248188   0.910   1.165   0.805 -0.0479  1.4934 -2.2315
 8925TIP3   OH248189   6.502   4.449   3.684  0.4912  0.0780 -0.2102
 8925TIP3    H148190   6.558   4.439   3.760 -0.7076 -1.6787  0.5316
 8925TIP3    H248191   6.544   4.397   3.616  1.4656  1.4972 -0.7268
 8926TIP3   OH248192   5.966   3.089   3.086 -0.4766 -0.7897 -0.1229
 8926TIP3    H148193   6.009   3.004   3.096  0.6956 -0.2161 -0.1426
 8926TIP3    H248194   5.891   3.071   3.029  0.9243 -1.4523 -1.8371
 8927TIP3   OH248195   1.278   5.805   1.063 -0.3739 -0.5317 -0.5450
 8927TIP3    H148196   1.345   5.872   1.078  0.8194 -1.8486  0.2603
 8927TIP3    H248197   1.215   5.818   1.133 -1.8352  1.6338 -2.1115
 8928TIP3   OH248198   0.467   4.380   4.650 -0.0035  0.5560 -0.2176
 8928TIP3    H148199   0.456   4.293   4.613  2.0303 -1.3812  3.1357
 8928TIP3    H248200   0.550   4.411   4.615 -0.7876  1.2424 -1.5077
 8929TIP3   OH248201   2.603   4.036   2.475  0.1146 -0.0870  0.2994
 8929TIP3    H148202   2.621   4.130   2.471 -0.4852 -0.0083 -0.7949
 8929TIP3    H248203   2.650   4.006   2.553 -1.4951  1.5011  1.9639
 8930TIP3   OH248204   4.316   5.592  16.224  0.0628  0.2037  0.4820
 8930TIP3    H148205   4.318   5.518  16.163 -0.6605 -0.0165  0.7056
 8930TIP3    H248206   4.312   5.551  16.311 -1.8549  0.4541  0.5635
 8931TIP3   OH248207   0.794   6.737   3.801 -0.4085 -0.6951 -0.4593
 8931TIP3    H148208   0.807   6.830   3.823  0.4689 -1.1229  0.9737
 8931TIP3    H248209   0.856   6.720   3.731  2.4117 -1.1049  1.9441
 8932TIP3   OH248210   4.362   1.765   1.854 -0.0169  0.4655  0.5570
 8932TIP3    H148211   4.413   1.692   1.819 -1.3295  0.0976 -0.6610
 8932TIP3    H248212   4.298   1.723   1.911  0.8862  0.9141  1.9541
 8933TIP3   OH248213   2.551   3.976  13.173  0.6716  0.2900 -0.6067
 8933TIP3    H148214   2.631   3.923  13.170  0.5218  0.0894 -1.2021
 8933TIP3    H248215   2.572   4.053  13.120 -0.1039 -0.5950 -2.2954
 8934TIP3   OH248216   2.586   0.417   5.988  0.0588  0.7856  0.1717
 8934TIP3    H148217   2.601   0.506   6.021 -1.1493  1.3237 -0.6647
 8934TIP3    H248218   2.615   0.421   5.897  0.7899  0.0745  0.3646
 8935TIP3   OH248219   0.304   4.933  11.401  0.1120  0.0810 -0.5683
 8935TIP3    H148220   0.348   4.966  11.479  1.3976 -0.1663 -1.1561
 8935TIP3    H248221   0.347   4.978  11.328 -0.7626 -0.0210 -1.1693
 8936TIP3   OH248222   6.071   2.793   3.804  1.1221 -0.5040  0.1787
 8936TIP3    H148223   6.078   2.825   3.714  1.5233 -1.9672 -0.3413
 8936TIP3    H248224   6.079   2.698   3.797 -0.5717 -0.8042  1.5874
 8937TIP3   OH248225   3.697   1.290   4.731  0.0564  0.0767  0.0085
 8937TIP3    H148226   3.769   1.234   4.760  1.4221  1.9116  0.3688
 8937TIP3    H248227   3.673   1.340   4.810 -1.1054  0.0404 -0.3028
 8938TIP3   OH248228   3.220   0.028  16.328  0.4901  0.0365 -0.3854
 8938TIP3    H148229   3.185   0.102  16.376  0.4039 -1.0309  1.2880
 8938TIP3    H248230   3.182   0.036  16.240 -0.2664  1.4179  0.0404
 8939TIP3   OH248231   1.187   0.413  17.240  0.0516  0.9773  0.3508
 8939TIP3    H148232   1.149   0.328  17.219 -0.0678  1.3395 -0.9868
 8939TIP3    H248233   1.180   0.420  17.335 -0.0059 -0.4657  0.4646
 8940TIP3   OH248234   1.223   4.465   4.997 -0.0687 -0.1301  0.4040
 8940TIP3    H148235   1.289   4.397   5.007  0.0971  0.0979  0.8848
 8940TIP3    H248236   1.241   4.504   4.911 -1.8729 -2.5102 -1.2150
 8941TIP3   OH248237   4.099   6.329   5.766  0.0673 -0.1741  0.2766
 8941TIP3    H148238   4.191   6.333   5.794 -0.0115 -0.3914  0.5687
 8941TIP3    H248239   4.073   6.239   5.784  0.0246 -0.3286 -0.5366
 8942TIP3   OH248240   4.229   1.421  15.602 -0.0110  0.6591  0.3294
 8942TIP3    H148241   4.179   1.344  15.573  1.7038 -0.7801  1.0240
 8942TIP3    H248242   4.250   1.403  15.693  2.6718  0.6576 -0.2178
 8943TIP3   OH248243   1.387   4.569  16.403  0.1319  0.0395 -0.2199
 8943TIP3    H148244   1.338   4.565  16.320 -0.9856  0.0491  0.4228
 8943TIP3    H248245   1.336   4.515  16.463  0.9809 -0.0284  0.4435
 8944TIP3   OH248246   2.207   5.774   4.125 -0.4273  0.3329 -0.3598
 8944TIP3    H148247   2.222   5.868   4.117  1.7030  0.1490  0.7621
 8944TIP3    H248248   2.134   5.767   4.188 -1.7566  1.2103 -1.7341
 8945TIP3   OH248249   0.316   0.266   4.337 -0.0323  0.1253  0.5250
 8945TIP3    H148250   0.268   0.312   4.267 -0.1616 -2.0309 -0.8846
 8945TIP3    H248251   0.404   0.255   4.301 -0.1196 -1.0587  0.6649
 8946TIP3   OH248252   3.210   3.291   0.748  0.1142 -0.7556 -0.1137
 8946TIP3    H148253   3.165   3.208   0.765 -3.0554  0.2526 -2.7208
 8946TIP3    H248254   3.156   3.357   0.791  0.8380  0.2813 -0.7507
 8947TIP3   OH248255   1.538   0.705  13.866  0.2316 -0.7738 -0.0365
 8947TIP3    H148256   1.527   0.631  13.926  0.8604 -1.7506 -1.0882
 8947TIP3    H248257   1.477   0.687  13.795 -1.9092  1.3238  1.1079
 8948TIP3   OH248258   6.595   1.984   3.487 -0.3181  0.0745 -0.2998
 8948TIP3    H148259   6.562   2.060   3.439  0.9182  0.5816 -0.3905
 8948TIP3    H248260   6.578   2.005   3.579  1.2925  1.1537 -0.2068
 8949TIP3   OH248261   2.960   4.559   2.888 -0.4527 -0.1404  0.0058
 8949TIP3    H148262   2.948   4.466   2.867  0.9245 -0.4722  0.5777
 8949TIP3    H248263   2.886   4.602   2.847 -0.2805 -1.3046 -1.6406
 8950TIP3   OH248264   3.234   3.392   2.446  0.0344  0.1336 -0.2630
 8950TIP3    H148265   3.297   3.432   2.385  0.4775  0.1758  0.2171
 8950TIP3    H248266   3.223   3.457   2.515  0.9492 -0.6477  0.6495
 8951TIP3   OH248267   1.581   1.855   4.798 -0.1859 -0.1617 -0.0727
 8951TIP3    H148268   1.543   1.939   4.823  0.9766  1.1396 -2.2853
 8951TIP3    H248269   1.534   1.830   4.718 -0.4720 -1.6187  0.5143
 8952TIP3   OH248270   2.391   0.165  16.826 -0.2455  0.1404  0.0817
 8952TIP3    H148271   2.456   0.226  16.860 -0.7153  1.0086 -0.5132
 8952TIP3    H248272   2.307   0.201  16.855 -0.4788 -0.9963  0.8913
 8953TIP3   OH248273   2.842   3.104  15.550 -0.0961 -0.0913  0.1314
 8953TIP3    H148274   2.826   3.150  15.632 -1.2761  1.6019 -0.9705
 8953TIP3    H248275   2.855   3.013  15.575 -0.1326  0.4323  2.2010
 8954TIP3   OH248276   5.316   2.905  11.031 -0.2995  0.1415 -0.1919
 8954TIP3    H148277   5.311   2.814  11.061 -1.1828  0.2060 -0.1289
 8954TIP3    H248278   5.251   2.911  10.961 -0.6978  0.8796  0.2298
 8955TIP3   OH248279   2.051   1.329   3.322  0.0605  0.1149 -0.1258
 8955TIP3    H148280   1.998   1.369   3.390  0.5246  1.2780 -0.4255
 8955TIP3    H248281   2.105   1.265   3.368  1.5354  1.9996  0.9227
 8956TIP3   OH248282   4.695   3.047   3.489  0.7664 -0.1676  0.1287
 8956TIP3    H148283   4.757   3.074   3.557 -0.4227 -0.5148  1.3888
 8956TIP3    H248284   4.644   2.977   3.530 -1.5071  1.1516 -0.3280
 8957TIP3   OH248285   5.016   1.196  10.986  0.1360 -0.0837  0.3512
 8957TIP3    H148286   5.018   1.164  10.895 -1.3855  1.7266 -0.4011
 8957TIP3    H248287   4.996   1.118  11.038  0.2128 -1.0272 -0.9619
 8958TIP3   OH248288   6.671   0.940   0.805  0.1553 -0.5695  0.3537
 8958TIP3    H148289   6.741   0.881   0.834  0.7645  0.9260  2.1427
 8958TIP3    H248290   6.693   1.024   0.845 -1.6403  0.4406 -0.6529
 8959TIP3   OH248291   2.210   0.718   3.228 -0.1856  0.2465  0.1694
 8959TIP3    H148292   2.123   0.719   3.267  0.3516  1.0086  1.3759
 8959TIP3    H248293   2.242   0.629   3.245 -0.2700  0.3253  0.7623
 8960TIP3   OH248294   4.626   6.693   2.336 -0.2312 -0.8166  0.2230
 8960TIP3    H148295   4.569   6.652   2.401  0.2915  1.2973  2.1513
 8960TIP3    H248296   4.676   6.758   2.386  1.3729 -0.2077 -2.0343
 8961TIP3   OH248297   0.651   4.773  11.143  0.6632  0.3039 -0.0455
 8961TIP3    H148298   0.722   4.785  11.080 -0.9228 -0.6457 -2.1754
 8961TIP3    H248299   0.602   4.855  11.141  0.0762 -0.0452 -0.8428
 8962TIP3   OH248300   0.150   2.554   3.492 -0.2003 -0.2189 -0.2789
 8962TIP3    H148301   0.195   2.487   3.543  1.6607  0.1251 -1.3747
 8962TIP3    H248302   0.191   2.636   3.518 -0.2498  0.1245 -1.2471
 8963TIP3   OH248303   2.229   4.641   1.827  0.7838 -0.2784  0.0137
 8963TIP3    H148304   2.277   4.678   1.753  0.0346 -0.9637 -0.8307
 8963TIP3    H248305   2.283   4.567   1.856  1.1822  0.1179  0.3056
 8964TIP3   OH248306   0.572   1.660   3.349  0.6270 -0.1357 -0.3650
 8964TIP3    H148307   0.554   1.754   3.351 -0.6607 -0.3725  0.8194
 8964TIP3    H248308   0.666   1.653   3.366  0.7532  0.9451 -0.5722
 8965TIP3   OH248309   3.896   5.272   5.668 -0.2841  0.2034 -0.0253
 8965TIP3    H148310   3.939   5.341   5.719  0.4462 -0.0948 -0.2236
 8965TIP3    H248311   3.814   5.256   5.714 -0.2821  0.9249  0.2489
 8966TIP3   OH248312   2.059   6.360   1.371 -0.2360 -0.2804 -0.0763
 8966TIP3    H148313   2.124   6.380   1.438 -0.2838 -0.2701 -0.0328
 8966TIP3    H248314   1.996   6.303   1.416 -0.6069  0.2322  0.0639
 8967TIP3   OH248315   0.590   0.481  13.561 -0.2933  0.4505  0.3520
 8967TIP3    H148316   0.566   0.550  13.500  2.1289  0.6123 -0.5292
 8967TIP3    H248317   0.556   0.510  13.646  1.3068  3.1672  0.1760
 8968TIP3   OH248318   4.004   2.856  13.598  0.1348 -0.1666  0.2461
 8968TIP3    H148319   4.063   2.930  13.614  0.1752 -0.4884  1.7617
 8968TIP3    H248320   3.924   2.879  13.645  0.4171 -1.3933  1.3992
 8969TIP3   OH248321   5.521   6.230   6.606 -0.2661 -0.6127  0.9160
 8969TIP3    H148322   5.475   6.313   6.619  1.0977  0.3197  0.1188
 8969TIP3    H248323   5.596   6.235   6.664  0.2597 -0.9283  0.2802
 8970TIP3   OH248324   3.062   5.791   2.703 -0.3263 -0.2180  0.4224
 8970TIP3    H148325   3.138   5.805   2.646 -0.4328 -0.1240  0.3034
 8970TIP3    H248326   3.099   5.750   2.781 -0.4511 -2.1582 -0.4894
 8971TIP3   OH248327   2.227   0.802   1.857  0.3413 -0.3007 -0.5463
 8971TIP3    H148328   2.228   0.894   1.884  1.3225 -0.3120 -0.5210
 8971TIP3    H248329   2.318   0.781   1.838 -0.1870 -0.5251 -3.1148
 8972TIP3   OH248330   2.347   0.049  11.248 -0.5887 -0.1013  0.4465
 8972TIP3    H148331   2.353   0.144  11.244  0.4015 -0.1511  0.3057
 8972TIP3    H248332   2.426   0.019  11.202 -1.3430 -0.9958 -0.2821
 8973TIP3   OH248333   2.027   6.066  15.782  0.5405  0.4648 -0.5570
 8973TIP3    H148334   1.962   6.049  15.850  0.5070  1.1746 -0.4026
 8973TIP3    H248335   2.057   6.155  15.799  1.4449  0.2010 -0.7225
 8974TIP3   OH248336   2.306   4.598  15.318 -0.2649  0.2848  0.0202
 8974TIP3    H148337   2.265   4.661  15.377 -0.2205 -0.5340  0.9372
 8974TIP3    H248338   2.394   4.631  15.305 -0.4034  0.6843  0.0891
 8975TIP3   OH248339   4.080   0.156   3.519  0.0810  0.0686  0.2227
 8975TIP3    H148340   4.130   0.220   3.570  0.4572  0.0139 -0.0693
 8975TIP3    H248341   3.989   0.170   3.546  0.1105  0.9871 -0.1208
 8976TIP3   OH248342   0.596   1.579   3.081 -0.2171 -0.0024 -0.1442
 8976TIP3    H148343   0.591   1.618   3.168  0.6059  0.6601 -0.3813
 8976TIP3    H248344   0.588   1.652   3.021  2.8062  0.0803 -0.5855
 8977TIP3   OH248345   5.983   0.688   3.701 -0.2863  0.1420 -0.0280
 8977TIP3    H148346   5.912   0.740   3.738  0.3557  1.6173 -0.7941
 8977TIP3    H248347   6.035   0.750   3.650  0.8285 -1.1501 -0.5411
 8978TIP3   OH248348   4.639   5.205  14.650  0.1137  0.2203  0.1631
 8978TIP3    H148349   4.549   5.172  14.648 -0.0827  0.7543 -1.0097
 8978TIP3    H248350   4.673   5.179  14.735 -1.6327  1.2267  1.2359
 8979TIP3   OH248351   1.349   2.510  13.052 -0.2909 -0.4357 -0.0255
 8979TIP3    H148352   1.308   2.451  13.115 -2.1792 -0.1903 -0.9481
 8979TIP3    H248353   1.350   2.595  13.096 -0.8526 -0.4345 -0.0056
 8980TIP3   OH248354   2.368   2.193   2.504  0.1068 -0.1063  0.4501
 8980TIP3    H148355   2.420   2.114   2.485  1.0605  1.0778 -2.4230
 8980TIP3    H248356   2.424   2.244   2.562  0.2302 -0.7719  0.9327
 8981TIP3   OH248357   3.326   1.684   5.883 -0.2007  0.4000  0.1621
 8981TIP3    H148358   3.421   1.671   5.884 -0.0230  1.5781  0.7791
 8981TIP3    H248359   3.312   1.761   5.937 -1.6863 -0.8249  1.6410
 8982TIP3   OH248360   3.136   6.601   4.024  0.2908 -0.3637 -0.1184
 8982TIP3    H148361   3.064   6.564   4.074 -0.1080 -1.4006 -1.4180
 8982TIP3    H248362   3.096   6.635   3.944  0.9347  1.1330  0.1553
 8983TIP3   OH248363   3.228   2.960   5.354 -0.5485 -0.4871  0.4340
 8983TIP3    H148364   3.187   2.936   5.271  0.9124 -2.7323  0.2741
 8983TIP3    H248365   3.185   2.904   5.419 -1.2210  0.7889  1.1381
 8984TIP3   OH248366   6.687   1.260   4.753 -0.0114  0.1477 -0.1643
 8984TIP3    H148367   6.621   1.310   4.801 -0.0916 -0.7977  0.7447
 8984TIP3    H248368   6.769   1.278   4.799 -0.1867 -1.2494  0.7587
 8985TIP3   OH248369   2.509   0.660   1.488 -0.6768 -0.5287  0.2684
 8985TIP3    H148370   2.428   0.615   1.465 -1.3281  0.5159  0.4343
 8985TIP3    H248371   2.493   0.751   1.463  0.8399 -0.4974 -0.6765
 8986TIP3   OH248372   0.740   0.742  16.397  0.4178 -0.1271 -0.6376
 8986TIP3    H148373   0.766   0.812  16.337 -0.5300 -1.0150 -2.1430
 8986TIP3    H248374   0.823   0.711  16.434  0.8846  1.5289 -0.1766
 8987TIP3   OH248375   2.456   2.011   3.102 -0.6285 -0.6713 -0.6015
 8987TIP3    H148376   2.469   1.996   3.195 -1.7207 -2.3422 -0.6712
 8987TIP3    H248377   2.471   2.104   3.090 -2.5326  0.0162  1.6268
 8988TIP3   OH248378   1.130   4.636  13.376 -0.5007 -0.3548  0.0935
 8988TIP3    H148379   1.168   4.570  13.318 -1.0558 -0.0849 -0.5844
 8988TIP3    H248380   1.047   4.660  13.335  0.0425  1.3546 -0.1145
 8989TIP3   OH248381   1.883   6.553   5.962 -0.0624 -0.3103  0.1942
 8989TIP3    H148382   1.955   6.537   5.901 -0.8425 -0.3756 -0.7403
 8989TIP3    H248383   1.925   6.566   6.047  1.1712  1.1558 -0.5940
 8990TIP3   OH248384   4.982   1.894   3.340 -0.3448  0.2380  0.1856
 8990TIP3    H148385   4.904   1.927   3.385  1.1588  1.6894  1.8787
 8990TIP3    H248386   4.980   1.936   3.254 -0.5567  1.6522  0.8533
 8991TIP3   OH248387   5.626   3.927   5.412  0.0555  0.3169  0.5250
 8991TIP3    H148388   5.627   3.959   5.321  0.2628 -0.1009  0.3799
 8991TIP3    H248389   5.701   3.868   5.417 -0.0889  0.1675  0.9074
 8992TIP3   OH248390   0.666   6.232   3.495  0.2755 -0.4652  0.2076
 8992TIP3    H148391   0.653   6.326   3.504  0.7178 -0.2977 -0.7768
 8992TIP3    H248392   0.704   6.221   3.408  0.3394 -1.5449  0.3556
 8993TIP3   OH248393   2.759   0.321   4.151  0.1057  0.1899  0.2020
 8993TIP3    H148394   2.711   0.298   4.071 -0.5513  0.4037  0.5303
 8993TIP3    H248395   2.724   0.262   4.218  1.3135 -0.6440  0.1478
 8994TIP3   OH248396   4.359   3.637   5.664  0.0034  0.5031  0.0895
 8994TIP3    H148397   4.308   3.579   5.607 -0.2338  1.0009 -0.2140
 8994TIP3    H248398   4.415   3.686   5.604  0.3114  0.4857  0.3582
 8995TIP3   OH248399   2.948   4.650   5.177 -0.5682  0.6810 -0.0694
 8995TIP3    H148400   2.885   4.656   5.105  0.9742  0.1101 -1.5401
 8995TIP3    H248401   3.027   4.614   5.137 -0.8877 -3.9048  2.6751
 8996TIP3   OH248402   6.222   1.965  12.358 -0.2857 -0.0424 -0.2181
 8996TIP3    H148403   6.144   2.019  12.369 -1.1906 -1.0592 -1.3402
 8996TIP3    H248404   6.276   2.014  12.296 -0.5770  0.1333 -0.3356
 8997TIP3   OH248405   2.143   5.098  15.570 -0.0298  0.5339  0.3896
 8997TIP3    H148406   2.127   5.088  15.476 -1.7780  1.1930  0.5897
 8997TIP3    H248407   2.238   5.112  15.576  0.3434 -0.9688 -1.1256
 8998TIP3   OH248408   6.738   3.020  15.754 -0.0428  0.3132  0.2348
 8998TIP3    H148409   6.714   3.074  15.829 -0.0124 -0.0219  0.4900
 8998TIP3    H248410   6.677   2.946  15.757 -1.0050  1.0265 -0.9235
 8999TIP3   OH248411   4.322   6.192   1.966 -0.2438 -0.0256 -0.0247
 8999TIP3    H148412   4.358   6.207   2.054  2.4682  0.1802 -1.0580
 8999TIP3    H248413   4.302   6.099   1.964 -1.3250  0.1645  1.1238
 9000TIP3   OH248414   1.396   1.218  15.697 -0.0807 -0.2677 -0.4451
 9000TIP3    H148415   1.382   1.172  15.780  0.3453 -0.8843 -0.7126
 9000TIP3    H248416   1.464   1.168  15.653 -0.9517 -0.4765 -1.5823
 9001TIP3   OH248417   0.710   3.636  15.257 -0.6824  0.4224 -0.2374
 9001TIP3    H148418   0.683   3.588  15.335 -0.2123 -0.4888 -0.6185
 9001TIP3    H248419   0.673   3.586  15.184  0.2067  0.3643 -0.6652
 9002TIP3   OH248420   4.756   0.558   1.004 -0.2656  0.4089  0.2487
 9002TIP3    H148421   4.724   0.586   1.089  0.0411 -2.4296  1.4280
 9002TIP3    H248422   4.677   0.536   0.954 -0.4416  2.0041 -0.2129
 9003TIP3   OH248423   3.028   5.682   0.022  0.1507 -0.3113 -0.1150
 9003TIP3    H148424   2.949   5.678  -0.032  0.8297  0.9074 -1.2243
 9003TIP3    H248425   3.053   5.774   0.023  0.2901 -0.3035  2.1361
 9004TIP3   OH248426   5.060   2.308  14.194  0.4096 -0.3312 -0.0801
 9004TIP3    H148427   5.037   2.259  14.116 -1.4094  0.5322 -0.1276
 9004TIP3    H248428   5.147   2.343  14.175 -0.4125  0.7415 -2.1890
 9005TIP3   OH248429   5.041   3.305  14.449 -0.3346 -0.2338 -0.6069
 9005TIP3    H148430   5.030   3.232  14.511 -1.4623  1.4391  1.2962
 9005TIP3    H248431   5.024   3.266  14.363  1.5362 -2.7058  0.0303
 9006TIP3   OH248432   3.077   6.723  14.828 -0.5729  0.1257 -0.4805
 9006TIP3    H148433   3.025   6.796  14.861 -1.2759  0.3598 -2.0200
 9006TIP3    H248434   3.143   6.764  14.772  1.0334 -0.2055  1.0733
 9007TIP3   OH248435   1.571   1.413  11.330 -0.1977  0.1342  0.0261
 9007TIP3    H148436   1.536   1.339  11.379  0.4589 -0.6927 -0.7265
 9007TIP3    H248437   1.543   1.399  11.240  2.0865 -0.6451 -0.6412
 9008TIP3   OH248438   1.901   4.315  11.394  0.4977 -0.0881 -0.1149
 9008TIP3    H148439   1.983   4.311  11.346 -0.0523 -1.0361 -1.0307
 9008TIP3    H248440   1.924   4.290  11.483  1.1487 -0.6672 -0.4360
 9009TIP3   OH248441   1.701   4.161   5.173 -0.0197 -0.5779  0.7480
 9009TIP3    H148442   1.773   4.145   5.113  0.6340  0.2182  1.2981
 9009TIP3    H248443   1.722   4.110   5.251  0.1479 -0.0705  1.0457
 9010TIP3   OH248444   5.450   5.572  12.094  0.0711  0.2334 -0.1584
 9010TIP3    H148445   5.381   5.507  12.105  0.7946 -0.3860  0.9843
 9010TIP3    H248446   5.449   5.593  12.001  0.4309 -2.1356 -0.7623
 9011TIP3   OH248447   5.755   0.953  11.631 -0.4229  0.2743 -0.0433
 9011TIP3    H148448   5.800   0.949  11.547  1.6703  1.3226  0.9518
 9011TIP3    H248449   5.823   0.933  11.696 -1.6984  0.6278  1.4732
 9012TIP3   OH248450   1.353   5.361  11.771  0.1971  0.0458 -0.3492
 9012TIP3    H148451   1.337   5.455  11.772 -0.9612 -0.1348  0.1146
 9012TIP3    H248452   1.416   5.346  11.841 -0.7156  0.3197  0.5589
 9013TIP3   OH248453   1.786   5.492  16.299 -0.3510  0.0402  0.0553
 9013TIP3    H148454   1.841   5.550  16.351 -0.2512 -1.4692  1.6998
 9013TIP3    H248455   1.834   5.410  16.296 -0.7681 -0.1764 -1.7359
 9014TIP3   OH248456   0.803   5.703   5.764  0.5272 -0.3972 -0.3061
 9014TIP3    H148457   0.839   5.737   5.846  1.7366 -0.0391 -0.9542
 9014TIP3    H248458   0.836   5.763   5.697 -1.4273  0.0285 -0.9416
 9015TIP3   OH248459   5.263   2.996  15.325  0.4010  0.2863 -0.4269
 9015TIP3    H148460   5.357   2.979  15.333  0.1210 -1.4366 -0.3990
 9015TIP3    H248461   5.238   2.953  15.243 -0.4583  0.2750 -0.1698
 9016TIP3   OH248462   0.323   0.381   2.587  0.0143  0.0871  0.2773
 9016TIP3    H148463   0.231   0.402   2.569  0.7069  2.3451 -1.0263
 9016TIP3    H248464   0.328   0.374   2.682 -1.6834 -1.1644  0.3237
 9017TIP3   OH248465   5.989   3.884   0.146  0.3261  0.1130 -0.2809
 9017TIP3    H148466   5.901   3.915   0.166  0.6186  1.2998 -0.7297
 9017TIP3    H248467   6.019   3.940   0.074  1.2763 -0.5635 -0.4397
 9018TIP3   OH248468   5.106   3.674   3.320 -0.0159 -0.1214 -0.2068
 9018TIP3    H148469   5.120   3.602   3.381  0.8867 -0.7799 -1.1475
 9018TIP3    H248470   5.175   3.737   3.341  0.2853 -0.3414 -0.5136
 9019TIP3   OH248471   2.368   3.514   5.216 -0.1630 -0.4187 -0.5631
 9019TIP3    H148472   2.308   3.441   5.209 -0.0394 -0.6978  0.9571
 9019TIP3    H248473   2.431   3.488   5.283 -0.5205  1.3376  0.5214
 9020TIP3   OH248474   2.547   4.005  12.482  0.0091  0.1930 -0.3157
 9020TIP3    H148475   2.637   3.973  12.490 -0.0332  0.0922 -0.2376
 9020TIP3    H248476   2.545   4.051  12.398  0.1633  0.2951 -0.2627
 9021TIP3   OH248477   5.571   1.387   4.345 -0.8816  0.4037 -0.1196
 9021TIP3    H148478   5.539   1.463   4.394  1.6964  1.5004  0.0356
 9021TIP3    H248479   5.611   1.424   4.266  3.2252 -0.2588  1.3824
 9022TIP3   OH248480   5.698   6.281  15.626  0.3917  0.4614 -0.2402
 9022TIP3    H148481   5.659   6.194  15.631  1.8071 -0.2158 -0.6658
 9022TIP3    H248482   5.623   6.340  15.618 -0.8238 -0.4041  3.0172
 9023TIP3   OH248483   0.214   2.309   0.773 -0.1078 -0.4380 -0.2859
 9023TIP3    H148484   0.156   2.359   0.831  0.6329 -0.9722  0.9364
 9023TIP3    H248485   0.157   2.282   0.701 -0.6402  1.7553 -0.7844
 9024TIP3   OH248486   5.988   6.079  13.557  0.1263 -0.1362 -0.1438
 9024TIP3    H148487   6.038   6.147  13.601 -0.1717  1.5711 -2.2685
 9024TIP3    H248488   5.919   6.057  13.619 -0.8796  2.8775 -0.0001
 9025TIP3   OH248489   2.961   2.586   4.091 -0.2051  0.5344  0.4084
 9025TIP3    H148490   2.897   2.622   4.029  0.2240  0.3396 -0.1632
 9025TIP3    H248491   2.958   2.492   4.075  1.4768  0.6612 -0.8839
 9026TIP3   OH248492   5.540   3.504   2.332 -0.1455  0.0260 -0.2531
 9026TIP3    H148493   5.552   3.544   2.418 -1.6626 -1.2504  0.6040
 9026TIP3    H248494   5.446   3.509   2.315  0.0692 -0.1028 -1.6730
 9027TIP3   OH248495   3.646   2.705  11.513  0.4508 -0.4870 -0.0334
 9027TIP3    H148496   3.647   2.778  11.576  2.9652  0.8925 -1.5222
 9027TIP3    H248497   3.634   2.627  11.568  0.9071  0.7790  1.9865
 9028TIP3   OH248498   4.688   4.490  15.120 -0.2284 -0.4389  0.1605
 9028TIP3    H148499   4.724   4.504  15.208 -0.3739 -0.5836  0.2435
 9028TIP3    H248500   4.645   4.405  15.125  0.7588 -0.9852 -0.3738
 9029TIP3   OH248501   4.889   3.785   3.999  0.8794  0.7088  0.0804
 9029TIP3    H148502   4.896   3.702   3.952  0.9196  1.1940 -0.7938
 9029TIP3    H248503   4.977   3.822   3.996  0.6186  1.3113 -0.5577
 9030TIP3   OH248504   1.457   3.244  15.229 -0.2724 -0.0152  0.3472
 9030TIP3    H148505   1.490   3.215  15.143  1.3989  0.0592  0.9166
 9030TIP3    H248506   1.370   3.279  15.211 -0.2364 -0.6392 -1.2054
 9031TIP3   OH248507   2.867   5.176   2.681  0.7388  0.1068  0.8913
 9031TIP3    H148508   2.848   5.240   2.750  0.0658  0.7964  0.0904
 9031TIP3    H248509   2.781   5.138   2.660  1.0447 -0.6039  0.9185
 9032TIP3   OH248510   1.296   4.772   5.326  0.2071  0.0920  0.1296
 9032TIP3    H148511   1.242   4.717   5.270 -2.0004  0.6793  1.5634
 9032TIP3    H248512   1.234   4.823   5.378  2.1154  3.4375 -0.5614
 9033TIP3   OH248513   4.561   6.752  11.154 -0.0596  0.2293  0.2687
 9033TIP3    H148514   4.517   6.693  11.215  1.6266 -2.2125 -0.7531
 9033TIP3    H248515   4.548   6.713  11.068  0.5205  1.7445 -0.5540
 9034TIP3   OH248516   0.662   4.566  15.712 -0.5366  0.1448  0.1049
 9034TIP3    H148517   0.702   4.646  15.679 -0.2250  0.6728  1.6522
 9034TIP3    H248518   0.630   4.520  15.634  2.3387  0.0770 -1.1516
 9035TIP3   OH248519   2.397   6.167  14.509  0.2269  0.5554 -0.5724
 9035TIP3    H148520   2.315   6.172  14.559  0.4108 -0.0350 -0.2038
 9035TIP3    H248521   2.368   6.147  14.419 -0.0045 -0.5742 -0.2683
 9036TIP3   OH248522   1.717   6.244  16.837 -0.0144 -0.1358  0.1702
 9036TIP3    H148523   1.700   6.293  16.918 -0.9478  1.3296 -0.8589
 9036TIP3    H248524   1.804   6.207  16.849 -1.2155 -2.5019  3.0485
 9037TIP3   OH248525   4.012   3.995   1.394  0.7451  0.2559  0.6510
 9037TIP3    H148526   3.958   3.918   1.411  1.3476 -0.4230 -0.4510
 9037TIP3    H248527   3.951   4.069   1.400 -0.3777 -0.5148 -0.8801
 9038TIP3   OH248528   6.413   0.279   2.210  0.0007 -0.7290  0.4019
 9038TIP3    H148529   6.371   0.359   2.239 -0.8486 -0.8045 -0.5748
 9038TIP3    H248530   6.501   0.306   2.182 -0.4137 -0.0785 -0.2760
 9039TIP3   OH248531   5.572   0.895  14.760  0.5589  0.1420  0.5805
 9039TIP3    H148532   5.561   0.986  14.736 -0.2078 -0.0548  0.1522
 9039TIP3    H248533   5.526   0.887  14.845 -0.8976 -0.2074 -0.1988
 9040TIP3   OH248534   4.908   3.036  11.459 -0.0201 -0.4351  0.3529
 9040TIP3    H148535   4.864   2.994  11.386 -0.6994  1.6374 -0.5162
 9040TIP3    H248536   4.847   3.104  11.488  0.8976 -0.1974  1.8467
 9041TIP3   OH248537   4.613   6.003   5.870  0.1530 -0.4301 -0.0584
 9041TIP3    H148538   4.564   6.079   5.901 -0.1726 -0.5297 -0.3336
 9041TIP3    H248539   4.551   5.953   5.818 -0.0468 -1.6283  1.2700
 9042TIP3   OH248540   0.700   0.134   0.846 -0.2514  0.7089 -0.5884
 9042TIP3    H148541   0.670   0.088   0.767  0.9508 -1.4408  0.1324
 9042TIP3    H248542   0.789   0.162   0.825  0.6591 -1.2269  0.4595
 9043TIP3   OH248543   5.833   2.729  14.188  0.4524 -0.7439  0.6273
 9043TIP3    H148544   5.872   2.816  14.185 -0.2389 -0.4453 -0.2334
 9043TIP3    H248545   5.902   2.671  14.155 -0.2349 -0.0276 -2.3978
 9044TIP3   OH248546   0.588   0.099  12.957  0.0384  0.1041  0.2146
 9044TIP3    H148547   0.532   0.123  13.031  0.5129 -1.9816  1.3437
 9044TIP3    H248548   0.584   0.003  12.954  1.2269  0.0566 -1.5406
 9045TIP3   OH248549   1.703   4.326   6.043 -0.2564  0.6019 -0.1908
 9045TIP3    H148550   1.682   4.263   6.111 -1.3980  1.3131  0.1444
 9045TIP3    H248551   1.624   4.331   5.989  0.5787  0.1668 -1.4854
 9046TIP3   OH248552   5.295   0.978  11.134 -0.5342  0.3621 -0.2220
 9046TIP3    H148553   5.327   1.063  11.104 -0.5080  0.2195 -0.6032
 9046TIP3    H248554   5.314   0.918  11.061 -0.0416 -0.0871  0.2696
 9047TIP3   OH248555   1.164   1.854  16.230 -0.5176  0.1749  0.1336
 9047TIP3    H148556   1.243   1.875  16.281  0.7782 -1.6225 -1.0159
 9047TIP3    H248557   1.149   1.761  16.246 -2.3755  0.4571  0.2323
 9048TIP3   OH248558   5.497   1.495   3.131  0.0586 -0.1289 -0.2803
 9048TIP3    H148559   5.417   1.453   3.100  0.3005  0.1566 -1.3461
 9048TIP3    H248560   5.541   1.428   3.182 -0.0928 -0.8182 -1.0299
 9049TIP3   OH248561   5.908   2.571  13.397  0.0885 -0.1866 -0.4046
 9049TIP3    H148562   5.902   2.479  13.370 -1.7341 -0.3179  0.3139
 9049TIP3    H248563   5.817   2.599  13.408  0.6260  1.5377 -0.0015
 9050TIP3   OH248564   3.707   5.225   0.674  0.0448 -0.1728 -0.5831
 9050TIP3    H148565   3.664   5.310   0.685 -0.9191 -0.7466  0.2689
 9050TIP3    H248566   3.692   5.202   0.582  1.3199  1.0797 -1.1427
 9051TIP3   OH248567   6.603   3.291   6.321 -0.0417  0.0918 -0.0112
 9051TIP3    H148568   6.684   3.292   6.373  0.2720  0.1861 -0.4965
 9051TIP3    H248569   6.542   3.344   6.372  0.3989  0.5555  0.0452
 9052TIP3   OH248570   5.561   3.446  15.497  0.3191 -0.4889  0.2914
 9052TIP3    H148571   5.570   3.400  15.414 -1.3904  2.6047 -1.8158
 9052TIP3    H248572   5.485   3.405  15.539 -1.5260  0.6319 -1.7837
 9053TIP3   OH248573   0.852   2.871  12.867 -0.7344 -0.1323  0.1721
 9053TIP3    H148574   0.821   2.889  12.778  0.2107 -2.6882 -0.7780
 9053TIP3    H248575   0.942   2.840  12.856 -0.8716 -1.3379  1.8962
 9054TIP3   OH248576   6.002   2.188   0.921 -0.5642  0.7491  0.0597
 9054TIP3    H148577   6.058   2.172   0.997  1.2112  1.7393 -0.9858
 9054TIP3    H248578   5.949   2.109   0.914  1.2767 -0.6077  0.6252
 9055TIP3   OH248579   0.792   2.203  15.513  0.0787 -0.3676  0.4368
 9055TIP3    H148580   0.779   2.108  15.522  1.5970 -0.6784 -0.3242
 9055TIP3    H248581   0.800   2.234  15.603  1.2061 -1.2528  0.6768
 9056TIP3   OH248582   2.273   4.311   0.427  0.0852  0.1284  0.0737
 9056TIP3    H148583   2.282   4.217   0.410 -1.4884 -0.6415  2.8046
 9056TIP3    H248584   2.292   4.320   0.520  0.3740  2.5930 -0.1596
 9057TIP3   OH248585   1.187   2.049  13.217  0.3313  0.3078 -0.2798
 9057TIP3    H148586   1.209   2.029  13.308  1.3362  0.3310 -0.5094
 9057TIP3    H248587   1.193   2.145  13.212  0.8798  0.2630 -0.5164
 9058TIP3   OH248588   4.423   4.986   5.578  0.2281  0.4230 -0.2100
 9058TIP3    H148589   4.468   4.944   5.505 -0.5415 -1.1083  0.1533
 9058TIP3    H248590   4.479   4.969   5.654  0.8044  1.6338 -0.3352
 9059TIP3   OH248591   4.598   4.600  12.437 -0.4853  0.1611  0.6031
 9059TIP3    H148592   4.658   4.615  12.510  0.8618  1.6289 -0.7323
 9059TIP3    H248593   4.601   4.505  12.422  0.1169 -0.0003  1.6791
 9060TIP3   OH248594   3.877   5.543  11.820 -0.3372  0.2407 -0.7134
 9060TIP3    H148595   3.960   5.496  11.817 -1.5332 -2.0681  0.0791
 9060TIP3    H248596   3.894   5.626  11.775  2.4222 -0.0657 -0.3640
 9061TIP3   OH248597   2.081   5.493  13.345  0.5325  0.1015 -0.1815
 9061TIP3    H148598   2.046   5.425  13.403  1.1219  0.8370  1.0645
 9061TIP3    H248599   2.005   5.546  13.322  0.1422 -0.7003 -0.8140
 9062TIP3   OH248600   2.916   3.069  17.021  0.1472  0.4002  0.1440
 9062TIP3    H148601   2.823   3.047  17.024  0.1415  0.5328  1.5838
 9062TIP3    H248602   2.959   2.990  16.990 -0.3008 -0.2040  1.0354
 9063TIP3   OH248603   0.723   6.612  15.924  0.1895  0.2495  0.0668
 9063TIP3    H148604   0.733   6.531  15.973  0.0929  1.3133  1.9409
 9063TIP3    H248605   0.657   6.592  15.857 -0.5612 -0.9449  1.1321
 9064TIP3   OH248606   5.398   0.983   0.231  0.1989  0.1301  0.5536
 9064TIP3    H148607   5.435   1.005   0.145  0.0590 -1.2782  0.1040
 9064TIP3    H248608   5.407   1.063   0.282  0.0483  1.0783 -0.8554
 9065TIP3   OH248609   5.853   2.006   1.708 -0.3688  0.2858  0.7544
 9065TIP3    H148610   5.854   1.934   1.645  0.2808  0.7428  0.2387
 9065TIP3    H248611   5.807   2.077   1.664  1.0813  0.9922  0.3518
 9066TIP3   OH248612   4.857   3.319   5.357 -0.2264  0.0516  0.2944
 9066TIP3    H148613   4.867   3.411   5.383  2.6409  0.3164 -1.3311
 9066TIP3    H248614   4.895   3.269   5.429  0.9799  0.3560 -0.1092
 9067TIP3   OH248615   6.786   0.825  17.074  0.4737  0.6495 -0.0627
 9067TIP3    H148616   6.714   0.813  17.135  0.7330 -1.0200 -0.0540
 9067TIP3    H248617   6.835   0.743  17.077  0.6167  0.5755 -2.3468
 9068TIP3   OH248618   3.824   5.318   3.933 -0.3588  0.1524 -0.1189
 9068TIP3    H148619   3.863   5.261   3.999 -0.9765  0.1941  0.2842
 9068TIP3    H248620   3.751   5.267   3.897 -1.0764  0.7767  0.4267
 9069TIP3   OH248621   4.866   2.786  13.551 -0.2188  0.3846  0.0663
 9069TIP3    H148622   4.887   2.779  13.458 -1.8922 -1.2633 -0.2399
 9069TIP3    H248623   4.864   2.880  13.567  1.4597  0.6918 -1.1983
 9070TIP3   OH248624   4.479   3.058  15.787 -0.2774  0.0700 -1.1097
 9070TIP3    H148625   4.565   3.099  15.800 -0.2723  0.2366 -1.6366
 9070TIP3    H248626   4.498   2.974  15.746 -0.3572  0.0316 -1.0691
 9071TIP3   OH248627   4.234   2.909  11.620 -0.1631  0.0577 -0.3074
 9071TIP3    H148628   4.288   2.983  11.650  0.0059 -0.1943  0.0163
 9071TIP3    H248629   4.274   2.832  11.661 -0.6887 -0.1452 -0.1654
 9072TIP3   OH248630   6.556   0.021  14.910  0.1082  0.3668 -0.0898
 9072TIP3    H148631   6.628  -0.021  14.958  0.6570  0.1725 -1.0610
 9072TIP3    H248632   6.563  -0.013  14.821 -1.0870  0.4881 -0.2513
 9073TIP3   OH248633   1.015   0.168  16.841 -0.2752  0.6164  0.1290
 9073TIP3    H148634   0.980   0.185  16.928  3.7720 -0.6316  2.2671
 9073TIP3    H248635   1.052   0.251  16.812  0.4045  0.5060  0.6738
 9074TIP3   OH248636   5.845   0.932   1.848 -0.3083 -0.4936  0.3433
 9074TIP3    H148637   5.828   1.007   1.791 -0.1884 -0.8111 -0.1161
 9074TIP3    H248638   5.940   0.930   1.858 -0.3871  0.1161  1.3201
 9075TIP3   OH248639   1.420   5.000  16.189 -0.2852 -0.0353 -0.4059
 9075TIP3    H148640   1.363   4.981  16.263  0.6716 -1.1107  0.0779
 9075TIP3    H248641   1.435   4.916  16.147 -0.1038  0.4306 -1.3074
 9076TIP3   OH248642   1.423   3.913  12.390 -0.0106  0.4828  0.3061
 9076TIP3    H148643   1.406   3.995  12.344 -0.3405  1.0690  1.4619
 9076TIP3    H248644   1.336   3.880  12.413  0.1718  0.4017  0.8851
 9077TIP3   OH248645   0.152   1.410   2.343  0.3753 -0.1841 -0.2896
 9077TIP3    H148646   0.198   1.337   2.385  0.4631  0.7721  1.3544
 9077TIP3    H248647   0.062   1.380   2.332  0.5794 -0.7950 -0.3039
 9078TIP3   OH248648   1.064   2.495   5.443  0.0701 -0.2248  0.2746
 9078TIP3    H148649   0.980   2.451   5.457  0.6732 -1.5195 -0.0425
 9078TIP3    H248650   1.119   2.466   5.516  0.9197 -1.1894 -0.6976
 9079TIP3   OH248651   2.464   2.319   3.210 -0.5110 -0.0181  0.2207
 9079TIP3    H148652   2.503   2.299   3.295  1.3159  1.0443 -0.3127
 9079TIP3    H248653   2.370   2.328   3.228 -0.1603  0.1971  2.1235
 9080TIP3   OH248654   5.483   5.184   1.864 -0.1822 -0.2493  0.0330
 9080TIP3    H148655   5.466   5.095   1.892  0.7006 -0.7868 -1.0428
 9080TIP3    H248656   5.409   5.235   1.896 -0.4158 -1.2633  1.1338
 9081TIP3   OH248657   4.841   2.093   5.516  0.7150 -0.2006 -0.2849
 9081TIP3    H148658   4.915   2.034   5.527  0.5182  0.0307  3.4516
 9081TIP3    H248659   4.850   2.157   5.587 -2.2177  0.7923 -0.6627
 9082TIP3   OH248660   1.835   0.773   2.409  0.0927  0.3859  0.6945
 9082TIP3    H148661   1.910   0.759   2.351  0.9966  0.8064  1.7070
 9082TIP3    H248662   1.832   0.694   2.463  0.5922  0.8838  1.4758
 9083TIP3   OH248663   6.253   0.245   1.264 -0.1853 -0.4334 -0.6792
 9083TIP3    H148664   6.218   0.334   1.272  1.5029  0.2623 -0.4769
 9083TIP3    H248665   6.336   0.257   1.217  0.2926 -1.8399 -0.2253
 9084TIP3   OH248666   0.015   5.327   6.298  0.1536 -0.3729 -0.5374
 9084TIP3    H148667   0.000   5.234   6.317  0.7062 -0.3046  0.2765
 9084TIP3    H248668  -0.072   5.367   6.301 -0.0673 -0.8385 -0.7433
 9085TIP3   OH248669   4.492   2.546   6.807  0.0478 -0.3080 -0.1144
 9085TIP3    H148670   4.587   2.542   6.815 -0.0086 -1.9361  0.0893
 9085TIP3    H248671   4.477   2.616   6.744  1.3391  0.3737  0.2825
 9086TIP3   OH248672   4.762   0.536   4.748 -0.8805 -0.2758  0.1160
 9086TIP3    H148673   4.720   0.618   4.722  1.1208  1.1600  1.0814
 9086TIP3    H248674   4.694   0.470   4.740 -2.1690  1.1992 -2.1513
 9087TIP3   OH248675   4.488   4.685  16.341  0.1372  0.8241  0.7815
 9087TIP3    H148676   4.521   4.773  16.324 -1.0187  1.0598 -0.3001
 9087TIP3    H248677   4.419   4.697  16.406 -1.1708  0.9369 -0.6010
 9088TIP3   OH248678   3.821   4.759  14.136  0.0607 -0.4898 -0.2513
 9088TIP3    H148679   3.739   4.805  14.118  0.7663  1.1031  0.4399
 9088TIP3    H248680   3.890   4.819  14.109  1.0241 -1.4685 -0.0562
 9089TIP3   OH248681   0.557   3.238  14.698 -0.1002  0.7413 -0.2876
 9089TIP3    H148682   0.600   3.281  14.624 -0.3454  0.8895 -0.3440
 9089TIP3    H248683   0.580   3.146  14.688  0.4840  0.8688 -0.1259
 9090TIP3   OH248684   1.003   2.819   0.856  0.1217  0.2931 -0.3487
 9090TIP3    H148685   0.932   2.863   0.808 -0.0886 -0.9660 -1.2382
 9090TIP3    H248686   0.994   2.851   0.946 -1.4529  0.3037 -0.4819
 9091TIP3   OH248687   1.273   0.472  12.745  0.3188  0.0465  0.4107
 9091TIP3    H148688   1.251   0.431  12.661  0.7807  1.3515 -0.3923
 9091TIP3    H248689   1.357   0.433  12.769  0.6031  0.2775 -0.1846
 9092TIP3   OH248690   1.655   2.956   4.684  0.4686  0.4541  0.1553
 9092TIP3    H148691   1.591   2.886   4.675  1.8025 -0.7503 -0.3854
 9092TIP3    H248692   1.642   2.990   4.773  0.3720 -1.0784  0.7522
 9093TIP3   OH248693   6.439   6.563  14.693  0.1300 -0.0097 -0.5837
 9093TIP3    H148694   6.457   6.525  14.779  0.4822  1.8842  0.2312
 9093TIP3    H248695   6.344   6.559  14.684  0.2240 -2.4991 -1.2639
 9094TIP3   OH248696   6.477   1.868  11.598  0.4552 -0.3279 -0.3735
 9094TIP3    H148697   6.452   1.944  11.650 -1.6938  0.2803 -2.1775
 9094TIP3    H248698   6.477   1.899  11.507  0.5860 -2.2144 -1.0689
 9095TIP3   OH248699   2.816   5.814  14.254 -0.0082  0.0396 -0.4331
 9095TIP3    H148700   2.723   5.802  14.276  0.0501  0.5298  0.0929
 9095TIP3    H248701   2.830   5.908  14.257  0.4454 -0.0102 -0.8004
 9096TIP3   OH248702   1.878   1.713   3.529  0.1459 -0.1649  0.6387
 9096TIP3    H148703   1.902   1.771   3.457  0.6340 -1.1593 -0.0191
 9096TIP3    H248704   1.872   1.770   3.605  1.3867  0.6378  0.1601
 9097TIP3   OH248705   2.405   5.853   3.351  0.5337 -0.7250  0.3347
 9097TIP3    H148706   2.319   5.894   3.354  1.0568  0.4996 -0.3928
 9097TIP3    H248707   2.388   5.760   3.367 -0.7562 -0.3172  1.5178
 9098TIP3   OH248708   0.321   6.297  12.166  0.4712  0.0924 -0.1431
 9098TIP3    H148709   0.414   6.299  12.184  0.4495  2.1824 -0.0085
 9098TIP3    H248710   0.281   6.268  12.248  0.9283  0.6158  0.2734
 9099TIP3   OH248711   0.630   4.551  12.655  0.5438 -0.2140  0.1152
 9099TIP3    H148712   0.597   4.489  12.591 -0.5756  1.4489 -0.9838
 9099TIP3    H248713   0.566   4.549  12.726 -0.0448  0.4049 -0.3877
 9100TIP3   OH248714   1.257   2.349  15.214  0.4169 -0.0956 -0.2182
 9100TIP3    H148715   1.305   2.348  15.297 -0.4901 -0.0543  0.3206
 9100TIP3    H248716   1.245   2.442  15.194 -1.3963 -0.0549  0.8374
 9101TIP3   OH248717   6.627   3.668   2.307 -0.5460 -0.0661  0.1424
 9101TIP3    H148718   6.683   3.648   2.232 -2.6969 -0.5810 -1.4285
 9101TIP3    H248719   6.687   3.672   2.381  1.4896 -1.0106 -1.3454
 9102TIP3   OH248720   4.422   2.664   2.906  0.5994 -0.4521 -0.0013
 9102TIP3    H148721   4.374   2.586   2.879 -0.6797  0.0214  0.8116
 9102TIP3    H248722   4.506   2.658   2.861  0.1834 -1.8510 -0.6229
 9103TIP3   OH248723   0.482   0.225   6.114  0.4326  0.2120 -0.3977
 9103TIP3    H148724   0.485   0.167   6.190 -0.7938  1.5636  0.7389
 9103TIP3    H248725   0.568   0.267   6.112  0.4909  0.1215  0.1901
 9104TIP3   OH248726   1.523   4.343  12.467  0.3966 -0.0480  0.6350
 9104TIP3    H148727   1.480   4.336  12.552  1.4293  1.1285  1.2920
 9104TIP3    H248728   1.579   4.421  12.475 -0.1199  0.5930 -1.3973
 9105TIP3   OH248729   0.109   1.977  12.330  0.1177  0.2082 -0.2459
 9105TIP3    H148730   0.147   2.033  12.262 -0.3646  0.2728 -0.4645
 9105TIP3    H248731   0.175   1.909  12.344 -0.1360 -0.2951 -1.3871
 9106TIP3   OH248732   4.450   6.566   5.238  0.7791  0.6139  0.4510
 9106TIP3    H148733   4.459   6.500   5.307 -0.7095 -0.3808 -0.2546
 9106TIP3    H248734   4.518   6.543   5.174 -0.4726 -1.0604 -0.3756
 9107TIP3   OH248735   3.460   1.050   4.292 -0.0885  0.3747 -0.0343
 9107TIP3    H148736   3.463   1.091   4.205 -1.3793 -1.1157 -0.8421
 9107TIP3    H248737   3.370   1.016   4.299  0.5871 -1.3243  1.0087
 9108TIP3   OH248738   0.645   4.716   2.546 -0.1832  0.7483  0.5104
 9108TIP3    H148739   0.642   4.732   2.451  0.3711  0.7898  0.4968
 9108TIP3    H248740   0.584   4.644   2.560  0.1325  0.3818  0.0410
 9109TIP3   OH248741   0.888   4.524   5.118 -0.2997 -0.1299 -0.4898
 9109TIP3    H148742   0.818   4.502   5.179 -0.7049  0.8514 -0.5846
 9109TIP3    H248743   0.894   4.448   5.060  0.4493 -1.3018  1.0581
 9110TIP3   OH248744   5.350   2.964  12.314  0.1473 -0.1232 -0.9777
 9110TIP3    H148745   5.424   3.017  12.345 -0.3293 -0.0465  0.0546
 9110TIP3    H248746   5.383   2.923  12.234  0.9245  0.8007 -1.1583
 9111TIP3   OH248747   3.267   4.458  14.941 -0.1745 -0.1545 -0.3040
 9111TIP3    H148748   3.358   4.488  14.942 -0.2988  0.4959 -2.4725
 9111TIP3    H248749   3.227   4.499  15.018  1.5919 -1.3944  1.3721
 9112TIP3   OH248750   0.195   5.460   4.029  0.4133 -0.3234 -0.4702
 9112TIP3    H148751   0.244   5.444   3.947  1.0306 -2.9852  0.3219
 9112TIP3    H248752   0.185   5.374   4.068 -0.3883  0.8094  2.0191
 9113TIP3   OH248753   5.921   2.644   5.004  0.0351  0.5540 -0.5254
 9113TIP3    H148754   5.872   2.652   4.922 -1.1793 -0.5194  0.0718
 9113TIP3    H248755   5.855   2.654   5.073  0.8603  0.3376  0.3149
 9114TIP3   OH248756   6.137   0.977   5.594 -0.0771 -0.0153 -0.2436
 9114TIP3    H148757   6.141   1.065   5.633 -1.2601 -0.9004  2.0866
 9114TIP3    H248758   6.227   0.961   5.565  0.5459  1.3647  0.7504
 9115TIP3   OH248759   4.356   2.304  16.616 -0.2464 -0.6276 -0.3406
 9115TIP3    H148760   4.326   2.215  16.635 -3.5519 -1.0283 -5.3334
 9115TIP3    H248761   4.305   2.360  16.674 -0.5646 -1.8658  0.6225
 9116TIP3   OH248762   6.731   4.625   3.353 -0.2973  0.1173 -0.0562
 9116TIP3    H148763   6.783   4.699   3.322  1.5993 -0.4814  1.4558
 9116TIP3    H248764   6.671   4.663   3.418 -1.5073  0.7416 -1.4812
 9117TIP3   OH248765   5.176   4.021  14.998  0.4433  0.4387  0.0192
 9117TIP3    H148766   5.234   4.077  15.049  0.5444  0.6253 -0.2965
 9117TIP3    H248767   5.200   4.039  14.907 -0.0390  0.4457 -0.1105
 9118TIP3   OH248768   1.887   6.092  12.739  1.0179  0.1591  0.3548
 9118TIP3    H148769   1.898   6.011  12.688 -0.5179  0.3790 -0.3754
 9118TIP3    H248770   1.821   6.141  12.691  0.9320  1.2434  1.5481
 9119TIP3   OH248771   1.366   2.072   1.303  0.1602 -0.2842  0.1163
 9119TIP3    H148772   1.441   2.031   1.261  0.1517  0.3668 -0.5508
 9119TIP3    H248773   1.377   2.051   1.396  1.7677  0.6929  0.1947
 9120TIP3   OH248774   1.886   4.203   0.719 -0.1874 -0.3798  0.5069
 9120TIP3    H148775   1.927   4.289   0.705 -1.1905 -0.0689 -0.6886
 9120TIP3    H248776   1.954   4.151   0.762  2.2639 -0.5314 -3.1209
 9121TIP3   OH248777   6.311   5.090  12.085 -0.4077  0.0417  0.0507
 9121TIP3    H148778   6.392   5.128  12.119  0.0265 -1.0116  0.2460
 9121TIP3    H248779   6.337   5.002  12.056 -1.0903  0.3429 -1.5762
 9122TIP3   OH248780   1.793   2.837  15.428 -0.4365 -0.0051  0.1072
 9122TIP3    H148781   1.818   2.769  15.491 -0.4596  0.5832  0.7629
 9122TIP3    H248782   1.703   2.861  15.453 -0.0788  0.9588  0.5134
 9123TIP3   OH248783   6.777   6.481  16.807  0.2910  0.2731  0.0476
 9123TIP3    H148784   6.817   6.479  16.720  0.5209 -1.1787  0.1647
 9123TIP3    H248785   6.746   6.571  16.817  1.1997  0.7394 -1.1033
 9124TIP3   OH248786   3.012   3.493   0.702  0.3316 -0.3142 -0.1814
 9124TIP3    H148787   2.981   3.579   0.676  0.5360 -0.7837 -2.0747
 9124TIP3    H248788   3.092   3.480   0.652  0.6914 -1.3317  0.6133
 9125TIP3   OH248789   4.626   6.144  15.078  0.3861  0.0260  0.3727
 9125TIP3    H148790   4.596   6.187  15.158 -1.7609 -1.2588  0.3406
 9125TIP3    H248791   4.583   6.193  15.007  0.2957 -0.3339  0.1738
 9126TIP3   OH248792   3.050   3.723   4.162  0.0540  0.2134 -0.2762
 9126TIP3    H148793   3.077   3.707   4.253 -0.6456 -1.0920 -0.2618
 9126TIP3    H248794   3.127   3.699   4.110  0.1214 -0.0400 -0.0651
 9127TIP3   OH248795   1.747   3.283   4.214  0.0041  0.1423  0.0114
 9127TIP3    H148796   1.706   3.364   4.245 -0.0588 -0.0258  0.3798
 9127TIP3    H248797   1.756   3.230   4.293  0.9390  0.1771 -0.0633
 9128TIP3   OH248798   0.271   1.426   6.000  0.3742  0.4332 -0.2356
 9128TIP3    H148799   0.358   1.460   5.980  1.0550  0.5258  2.4207
 9128TIP3    H248800   0.283   1.378   6.083 -2.0838  0.4165  0.1735
 9129TIP3   OH248801   3.167   6.786   4.570  0.0969  0.0005 -0.6220
 9129TIP3    H148802   3.198   6.849   4.634 -0.5929 -0.2267 -0.0563
 9129TIP3    H248803   3.216   6.807   4.490  0.4123  0.7626 -0.2347
 9130TIP3   OH248804   6.504   1.618  15.178  0.4623  0.2033  0.1160
 9130TIP3    H148805   6.422   1.634  15.225 -0.0138  0.2284 -0.7071
 9130TIP3    H248806   6.541   1.706  15.167  0.2243  0.2696 -0.1730
 9131TIP3   OH248807   1.233   6.050  11.944 -0.2993  0.6297 -0.2796
 9131TIP3    H148808   1.305   5.993  11.972 -0.1978  1.4051  1.0850
 9131TIP3    H248809   1.154   6.008  11.979 -0.6294 -0.4987 -2.2048
 9132TIP3   OH248810   6.731   5.528  15.784 -0.0077 -0.0507  0.1946
 9132TIP3    H148811   6.696   5.617  15.778  0.3587  0.0007 -1.9949
 9132TIP3    H248812   6.826   5.539  15.785  0.0517 -0.3627  2.2218
 9133TIP3   OH248813   2.719   3.689   4.227 -0.1880  0.2598 -0.2378
 9133TIP3    H148814   2.660   3.738   4.285 -0.7127 -1.1029  0.4363
 9133TIP3    H248815   2.783   3.754   4.198 -1.5378  1.6154 -0.3507
 9134TIP3   OH248816   2.774   4.681  12.334 -0.2242  0.4017  0.3873
 9134TIP3    H148817   2.753   4.636  12.416  0.8147  1.3610  1.2137
 9134TIP3    H248818   2.697   4.665  12.279 -0.9784 -0.2295  1.5480
 9135TIP3   OH248819   3.726   1.606  13.621  0.2229 -0.1025 -0.2791
 9135TIP3    H148820   3.763   1.531  13.668 -0.5055 -0.6421 -0.5475
 9135TIP3    H248821   3.781   1.679  13.647 -0.6234 -0.2037  2.0879
 9136TIP3   OH248822   3.413   1.436  12.592 -0.1070 -0.0012  0.1036
 9136TIP3    H148823   3.342   1.450  12.529 -0.0826  1.1766  0.3106
 9136TIP3    H248824   3.453   1.354  12.565 -1.2900 -0.4796 -0.2613
 9137TIP3   OH248825   0.763   2.641  10.267  0.1836 -0.0286  0.6264
 9137TIP3    H148826   0.713   2.715  10.300  0.7970  0.4603  0.4958
 9137TIP3    H248827   0.711   2.564  10.289  0.7706  0.2127  3.1355
 9138TIP3   OH248828   1.519   4.930   4.212  0.1884  1.2462 -0.1560
 9138TIP3    H148829   1.472   4.950   4.293  1.4214  0.4873  0.7846
 9138TIP3    H248830   1.510   5.009   4.159 -2.4854  0.9904 -0.2196
 9139TIP3   OH248831   0.519   1.886  14.245 -0.0159 -0.3290 -0.6683
 9139TIP3    H148832   0.465   1.839  14.309 -1.2476  0.4786 -1.0687
 9139TIP3    H248833   0.484   1.975  14.245 -0.4345 -0.4347 -2.8516
 9140TIP3   OH248834   4.035   1.691  13.103 -0.1009 -0.2718  0.0042
 9140TIP3    H148835   3.998   1.603  13.091 -1.6857  0.4545 -0.6645
 9140TIP3    H248836   3.959   1.748  13.115  0.8763  1.0953 -0.0920
 9141TIP3   OH248837   1.678   0.300   1.101 -0.3081  0.3602 -0.1440
 9141TIP3    H148838   1.709   0.212   1.123  0.7860  0.4091 -1.4136
 9141TIP3    H248839   1.598   0.311   1.153  0.6447 -0.5875  1.6089
 9142TIP3   OH248840   4.036   4.098   5.485 -0.0454 -0.1108  0.8688
 9142TIP3    H148841   3.970   4.029   5.478  0.8831 -1.3817  3.3486
 9142TIP3    H248842   3.987   4.175   5.512 -0.5271 -1.3430  3.9703
 9143TIP3   OH248843   4.423   3.097   1.853  0.6152 -0.6384 -0.0383
 9143TIP3    H148844   4.333   3.130   1.848  1.1106  1.1200  1.4389
 9143TIP3    H248845   4.422   3.033   1.923  0.4607 -0.8122 -0.1995
 9144TIP3   OH248846   4.467   6.733   2.559 -0.0845 -0.1361  0.2418
 9144TIP3    H148847   4.412   6.806   2.588  1.8164  1.4574  0.0442
 9144TIP3    H248848   4.487   6.686   2.640  0.8501  1.1698  0.8111
 9145TIP3   OH248849   0.693   1.159  16.551 -0.8072  0.2936 -0.5265
 9145TIP3    H148850   0.746   1.085  16.582 -1.3017  0.2989  0.3924
 9145TIP3    H248851   0.683   1.144  16.457 -0.0541 -0.2592 -0.5284
 9146TIP3   OH248852   3.987   2.440   1.684  0.1206  0.3963  0.3307
 9146TIP3    H148853   3.904   2.482   1.705 -0.4876 -0.7292  0.1961
 9146TIP3    H248854   4.006   2.383   1.759 -0.1863 -0.7870 -0.4746
 9147TIP3   OH248855   3.578   0.856   1.469  0.0289 -0.0944 -0.1410
 9147TIP3    H148856   3.491   0.816   1.463  0.1812 -0.5236  0.4155
 9147TIP3    H248857   3.569   0.942   1.427 -0.5003 -0.3955 -0.6561
 9148TIP3   OH248858   1.643   4.785  13.962  0.3840  0.4209 -0.4326
 9148TIP3    H148859   1.643   4.696  13.925 -0.3374  0.4721 -0.5582
 9148TIP3    H248860   1.733   4.797  13.992  0.2911 -0.6915  0.3828
 9149TIP3   OH248861   3.516   2.639   1.589  0.3234 -0.2701 -0.2842
 9149TIP3    H148862   3.558   2.681   1.514  0.9944 -0.7339 -0.1764
 9149TIP3    H248863   3.425   2.670   1.586  0.6153  0.5765 -0.6412
 9150TIP3   OH248864   5.920   6.327   1.542 -0.0580  0.4938  0.1284
 9150TIP3    H148865   5.889   6.338   1.632  0.4242 -3.1363  0.8761
 9150TIP3    H248866   5.996   6.385   1.536 -2.2284  3.6556  0.7080
 9151TIP3   OH248867   5.427   5.367  13.953  0.9239  0.2940  0.8427
 9151TIP3    H148868   5.520   5.383  13.935  0.5454  0.5205 -1.1356
 9151TIP3    H248869   5.416   5.393  14.044  2.7163  0.6404  1.0102
 9152TIP3   OH248870   0.610   3.350   3.421 -0.1703  0.2576  0.0093
 9152TIP3    H148871   0.681   3.289   3.442 -2.3014 -2.0538  1.0646
 9152TIP3    H248872   0.547   3.297   3.373 -1.8333  1.8274  0.3692
 9153TIP3   OH248873   3.849   4.924   4.052 -0.1366  0.1952  0.2927
 9153TIP3    H148874   3.848   4.862   4.125  1.6521 -0.8236 -0.4684
 9153TIP3    H248875   3.862   5.009   4.093 -3.1771  0.2556  1.4071
 9154TIP3   OH248876   2.553   1.928  15.354 -0.0127 -0.1822  0.5349
 9154TIP3    H148877   2.475   1.938  15.301  0.4649  1.0123  0.0365
 9154TIP3    H248878   2.539   1.985  15.430 -0.1498 -0.9215  1.0789
 9155TIP3   OH248879   1.883   2.871  11.322 -0.5046 -0.4981  0.2450
 9155TIP3    H148880   1.894   2.964  11.342  0.9960 -0.9815  1.9497
 9155TIP3    H248881   1.802   2.847  11.367  0.0215 -0.3711  1.2981
 9156TIP3   OH248882   6.547   4.675  12.709 -0.1831  0.2089 -0.0996
 9156TIP3    H148883   6.602   4.621  12.766 -0.5773  2.1094  2.2907
 9156TIP3    H248884   6.598   4.687  12.629  1.0208 -1.4662  0.3851
 9157TIP3   OH248885   1.257   2.900   3.053  0.0680  0.0917 -0.0935
 9157TIP3    H148886   1.187   2.964   3.051  0.6712  0.7641  0.0692
 9157TIP3    H248887   1.327   2.941   3.104  0.9906 -0.1365 -1.1211
 9158TIP3   OH248888   1.300   3.358   3.081 -0.1982  0.1173  0.0391
 9158TIP3    H148889   1.394   3.347   3.071  0.3100  2.7549  1.0261
 9158TIP3    H248890   1.285   3.350   3.175 -0.4922  2.2007  0.2189
 9159TIP3   OH248891   2.747   5.038   2.352 -0.3843 -0.3497  0.2182
 9159TIP3    H148892   2.717   5.098   2.421 -2.4297 -0.0435 -0.8471
 9159TIP3    H248893   2.668   5.019   2.302  0.6458 -2.2937 -0.7469
 9160TIP3   OH248894   0.628   2.145   2.460 -0.1435  0.2996 -0.2898
 9160TIP3    H148895   0.536   2.121   2.457  0.0847 -0.6019 -0.4558
 9160TIP3    H248896   0.661   2.103   2.540  0.5757 -1.1491 -1.3072
 9161TIP3   OH248897   2.016   1.278   3.959 -0.6776 -0.4430 -0.2176
 9161TIP3    H148898   1.975   1.340   3.899 -0.4194  0.5886  0.6357
 9161TIP3    H248899   1.967   1.288   4.041  0.1672 -0.4471  0.2985
 9162TIP3   OH248900   1.085   5.827  14.679 -0.1682 -0.3926  0.3465
 9162TIP3    H148901   1.068   5.911  14.723 -1.5728 -0.6421  0.3206
 9162TIP3    H248902   1.085   5.848  14.586  1.4868 -0.0986  0.3766
 9163TIP3   OH248903   0.914   0.150  11.778  0.7552  0.1186  0.3999
 9163TIP3    H148904   0.914   0.203  11.858  1.2295 -0.5788  0.8680
 9163TIP3    H248905   0.917   0.060  11.809 -6.0181 -0.7630 -0.0536
 9164TIP3   OH248906   4.969   4.856  15.678 -0.3877  0.2938  0.4461
 9164TIP3    H148907   5.049   4.830  15.632 -0.8668 -0.3238 -0.0643
 9164TIP3    H248908   4.922   4.773  15.693 -1.7606  0.7921 -0.8634
 9165TIP3   OH248909   4.862   6.745  12.674  0.2277  0.0932  0.1949
 9165TIP3    H148910   4.935   6.799  12.646 -1.2711  2.3390  0.3674
 9165TIP3    H248911   4.804   6.741  12.598 -0.3875  0.0217  0.6580
 9166TIP3   OH248912   1.747   0.397   0.467 -0.4211  0.0163  0.0533
 9166TIP3    H148913   1.796   0.479   0.467 -0.5927  0.1428  1.4733
 9166TIP3    H248914   1.813   0.330   0.483 -0.5204  0.0687  0.7250
 9167TIP3   OH248915   1.695   0.811   4.293  0.4477 -0.5597 -0.2681
 9167TIP3    H148916   1.715   0.899   4.261 -1.3357  0.2784  0.7593
 9167TIP3    H248917   1.610   0.820   4.336  0.4877 -2.6770  0.3658
 9168TIP3   OH248918   0.414   6.674   0.376 -0.2272 -0.4208 -0.0953
 9168TIP3    H148919   0.365   6.620   0.314  0.0013  0.3913 -1.0154
 9168TIP3    H248920   0.474   6.613   0.420  1.0369 -0.7361 -2.1201
 9169TIP3   OH248921   5.467   3.849  14.664  0.0623  0.4795  0.1603
 9169TIP3    H148922   5.376   3.844  14.634  0.5224  1.5852 -1.5712
 9169TIP3    H248923   5.499   3.759  14.662 -1.2511 -0.0763  1.7920
 9170TIP3   OH248924   4.080   2.430   0.317  0.1714 -0.2830 -0.2838
 9170TIP3    H148925   4.119   2.359   0.265  0.9891 -0.7628  0.9150
 9170TIP3    H248926   4.145   2.500   0.315 -0.4181  0.2529 -1.0562
 9171TIP3   OH248927   0.350   6.660  16.591 -0.3824 -0.9706  0.5015
 9171TIP3    H148928   0.362   6.567  16.614  2.9614 -1.5838 -2.7407
 9171TIP3    H248929   0.427   6.703  16.629 -0.9624  0.1434  0.4284
 9172TIP3   OH248930   3.872   0.077  13.327 -0.0817 -0.0443 -0.6102
 9172TIP3    H148931   3.858  -0.008  13.286 -1.1705  0.1286 -0.6395
 9172TIP3    H248932   3.887   0.058  13.419  0.2043 -0.2994 -0.7099
 9173TIP3   OH248933   6.062   0.545  13.719  0.5321 -0.2346 -0.2611
 9173TIP3    H148934   6.056   0.525  13.626  0.4085 -1.4890  0.0064
 9173TIP3    H248935   5.991   0.495  13.760 -1.8522  3.1194  0.1178
 9174TIP3   OH248936   0.090   6.759  15.952 -0.3039 -0.4478 -0.3404
 9174TIP3    H148937   0.180   6.730  15.935 -0.3809 -1.3272  0.6007
 9174TIP3    H248938   0.051   6.686  16.000 -0.9257  0.7032  0.9732
 9175TIP3   OH248939   5.317   0.424   4.823  1.3452 -0.6455  0.3444
 9175TIP3    H148940   5.234   0.453   4.784  1.0216  1.3384  2.3220
 9175TIP3    H248941   5.293   0.345   4.872  0.7470 -0.3865  0.4776
 9176TIP3   OH248942   6.453   6.157  11.198  0.5689  0.5098 -0.4386
 9176TIP3    H148943   6.421   6.117  11.118  0.1904 -0.3506  0.1263
 9176TIP3    H248944   6.418   6.102  11.268 -0.0160  1.8596  0.3790
 9177TIP3   OH248945   3.185   0.651  11.771  0.1460  0.6945  0.9541
 9177TIP3    H148946   3.280   0.667  11.766  0.6951 -2.2897 -1.4774
 9177TIP3    H248947   3.150   0.691  11.692  0.1263 -1.5848 -0.2852
 9178TIP3   OH248948   2.823   0.128  12.968 -0.1402 -0.1378  0.5924
 9178TIP3    H148949   2.853   0.215  12.995 -0.2057  0.5842 -1.4470
 9178TIP3    H248950   2.845   0.071  13.041 -1.3756  1.8183  2.5891
 9179TIP3   OH248951   3.634   3.553   0.369 -0.2544 -0.0333  0.2673
 9179TIP3    H148952   3.581   3.521   0.442  1.0498 -0.5639  1.0006
 9179TIP3    H248953   3.722   3.563   0.405  0.6239 -1.1232 -1.4178
 9180TIP3   OH248954   5.602   3.444   1.739  0.1250 -0.5320 -0.3372
 9180TIP3    H148955   5.626   3.447   1.646  0.1609  0.2329 -0.3114
 9180TIP3    H248956   5.536   3.513   1.748  0.4701 -0.2810  0.3025
 9181TIP3   OH248957   4.930   0.880  13.050 -0.7906 -0.3352 -0.2984
 9181TIP3    H148958   4.962   0.802  13.096 -0.0509  0.9532  1.5081
 9181TIP3    H248959   4.840   0.890  13.081 -0.7119 -0.1995 -0.1062
 9182TIP3   OH248960   2.154   6.078   1.218  0.1974 -0.0231  0.3880
 9182TIP3    H148961   2.181   6.033   1.138  1.8082  0.8594  0.3885
 9182TIP3    H248962   2.128   6.008   1.278  0.1279 -0.7664 -0.4944
 9183TIP3   OH248963   4.753   3.997  11.358 -0.2081  0.3713  0.0439
 9183TIP3    H148964   4.718   3.917  11.399 -0.4003 -1.0430 -2.6556
 9183TIP3    H248965   4.848   3.988  11.365 -0.2167 -0.3111 -0.5349
 9184TIP3   OH248966   2.001   2.493   1.035  0.4951  0.3249  0.0266
 9184TIP3    H148967   2.041   2.579   1.049 -0.7285  0.7947  0.9207
 9184TIP3    H248968   1.928   2.510   0.976 -0.1393  0.0286  0.7092
 9185TIP3   OH248969   3.042   6.670   3.780 -0.0393 -0.6470  0.8418
 9185TIP3    H148970   2.975   6.663   3.711  1.9126 -0.5717 -1.1804
 9185TIP3    H248971   3.078   6.758   3.769  2.4348 -1.7043 -0.2147
 9186TIP3   OH248972   4.947   3.344  11.197 -0.4479  0.2253 -0.1930
 9186TIP3    H148973   5.008   3.271  11.184 -1.3251 -0.3657 -1.1742
 9186TIP3    H248974   4.892   3.344  11.119 -0.1373  2.3030 -0.4769
 9187TIP3   OH248975   0.523   4.325   5.872  1.2741  0.1551 -0.2106
 9187TIP3    H148976   0.442   4.290   5.907  1.6201 -0.1057  0.3415
 9187TIP3    H248977   0.500   4.356   5.784  1.0627 -1.9720 -0.9561
 9188TIP3   OH248978   4.588   3.091  16.401  0.0631  0.2339 -0.2834
 9188TIP3    H148979   4.633   3.175  16.404  0.5583 -0.0560  0.9483
 9188TIP3    H248980   4.655   3.028  16.377 -0.3814  0.2203 -1.5482
 9189TIP3   OH248981   0.430   4.904   4.016  0.4214 -0.3204 -0.1155
 9189TIP3    H148982   0.411   4.829   3.959 -0.9649 -0.3774  0.3920
 9189TIP3    H248983   0.357   4.964   4.002  0.9162  0.4181  0.3791
 9190TIP3   OH248984   6.621   3.899   4.140 -0.5137  0.4934 -0.1443
 9190TIP3    H148985   6.578   3.958   4.079 -0.4368 -1.3457 -2.1016
 9190TIP3    H248986   6.712   3.897   4.112 -0.4247 -0.1927  0.1744
 9191TIP3   OH248987   5.173   0.468   5.160 -0.4245 -0.8176 -0.0910
 9191TIP3    H148988   5.092   0.439   5.117 -0.9118 -1.3409  1.1098
 9191TIP3    H248989   5.154   0.460   5.254  0.4505  0.6430  0.2518
 9192TIP3   OH248990   1.658   4.903  11.533 -0.2297  0.4212 -0.3016
 9192TIP3    H148991   1.662   4.831  11.595 -0.6469  2.2641  2.0229
 9192TIP3    H248992   1.731   4.888  11.473 -1.0955 -2.5650 -0.7404
 9193TIP3   OH248993   4.263   6.278   2.681 -0.0812  0.0501  0.3529
 9193TIP3    H148994   4.186   6.255   2.629 -0.5157  1.5268  0.3002
 9193TIP3    H248995   4.326   6.312   2.618  0.0917  0.1414  0.5737
 9194TIP3   OH248996   0.373   0.619  14.311 -0.3860 -0.0860 -0.3208
 9194TIP3    H148997   0.291   0.648  14.270 -0.4473  1.3124  0.6920
 9194TIP3    H248998   0.386   0.530  14.280 -2.0214 -0.1450 -0.9203
 9195TIP3   OH248999   5.704   0.995  17.003 -0.0396  0.1530  0.4630
 9195TIP3    H149000   5.765   1.012  17.075 -1.1168 -0.3293  1.5213
 9195TIP3    H249001   5.641   1.067  17.007  0.2664  0.4917 -0.4423
 9196TIP3   OH249002   5.705   6.158   3.260 -0.2239 -0.5013 -0.9032
 9196TIP3    H149003   5.634   6.212   3.296 -0.3603 -1.5523  0.4677
 9196TIP3    H249004   5.665   6.074   3.241  0.3396 -0.6337 -1.5760
 9197TIP3   OH249005   2.920   6.145  15.487  0.0857 -0.3874 -0.1188
 9197TIP3    H149006   2.996   6.192  15.521  0.5692 -1.5683  0.4791
 9197TIP3    H249007   2.856   6.148  15.558 -0.8015  1.3109 -0.9045
 9198TIP3   OH249008   5.941   5.216   0.329 -0.0533  0.1864  0.0604
 9198TIP3    H149009   6.030   5.182   0.339 -0.2293 -0.0532  0.8690
 9198TIP3    H249010   5.925   5.213   0.235  0.6117 -0.2404 -0.0478
 9199TIP3   OH249011   3.190   4.061  13.240 -0.4399  0.1967 -0.5506
 9199TIP3    H149012   3.196   3.985  13.181  0.2009 -0.2574  0.0817
 9199TIP3    H249013   3.278   4.100  13.237  0.6245 -1.6139  2.4120
 9200TIP3   OH249014   2.875   1.466   3.646 -0.4400 -0.5317 -0.1206
 9200TIP3    H149015   2.793   1.515   3.657  1.6972  3.1263  1.9013
 9200TIP3    H249016   2.907   1.490   3.559 -0.1311  0.5960  0.2823
 9201TIP3   OH249017   4.051   1.822  11.952 -0.0824  0.1688  0.8601
 9201TIP3    H149018   4.001   1.901  11.972  1.3911  0.6194  3.1493
 9201TIP3    H249019   4.099   1.803  12.033  1.5999 -1.5755 -0.4520
 9202TIP3   OH249020   1.729   4.005   0.231 -0.1870 -0.1237 -0.3420
 9202TIP3    H149021   1.683   3.949   0.293  0.4562 -0.8844 -0.5341
 9202TIP3    H249022   1.661   4.059   0.192 -0.4442  1.5043  2.1357
 9203TIP3   OH249023   0.009   0.538   5.882 -0.0150 -0.4531 -0.2010
 9203TIP3    H149024   0.063   0.577   5.950 -0.9156  0.9070 -0.2288
 9203TIP3    H249025  -0.076   0.524   5.924 -0.1796 -0.8827 -0.6642
 9204TIP3   OH249026   2.148   1.190  13.034 -0.1258 -0.1987 -0.3022
 9204TIP3    H149027   2.167   1.228  12.949 -0.1868  0.7465  0.0911
 9204TIP3    H249028   2.200   1.241  13.096  0.0371 -0.9712  0.2130
 9205TIP3   OH249029   4.489   1.329  16.929 -0.1112  0.6355 -0.0802
 9205TIP3    H149030   4.428   1.403  16.937 -1.3384 -0.4772  1.5891
 9205TIP3    H249031   4.432   1.253  16.920  1.0998 -0.2819 -0.1754
 9206TIP3   OH249032   4.506   5.448  14.511  0.4088  0.2493 -0.1370
 9206TIP3    H149033   4.546   5.393  14.579 -1.0384 -0.8361 -0.1187
 9206TIP3    H249034   4.554   5.425  14.431  0.1852 -0.6673 -0.0226
 9207TIP3   OH249035   4.450   2.622   3.931 -0.0612 -0.2871  0.0882
 9207TIP3    H149036   4.376   2.664   3.889 -1.3062 -1.4949  0.9820
 9207TIP3    H249037   4.417   2.537   3.959  0.4486  0.5931  3.9745
 9208TIP3   OH249038   3.214   3.259  11.044 -0.0738 -0.0146 -0.6560
 9208TIP3    H149039   3.267   3.226  10.971  2.0458 -0.5373  0.9980
 9208TIP3    H249040   3.137   3.202  11.045 -0.3788  0.2746 -2.6843
 9209TIP3   OH249041   5.593   0.280   4.643  0.1019  0.3976 -0.5009
 9209TIP3    H149042   5.524   0.346   4.641 -0.8303 -0.3803  1.7909
 9209TIP3    H249043   5.548   0.197   4.628  0.6965 -0.0147 -0.0745
 9210TIP3   OH249044   6.344   2.941   0.877  0.4682  0.4126 -0.1400
 9210TIP3    H149045   6.303   2.969   0.958  0.6518  0.9108 -0.2149
 9210TIP3    H249046   6.438   2.950   0.893  0.6471 -2.1361  0.5469
 9211TIP3   OH249047   0.400   3.275   4.248  0.1889  0.3520 -0.6821
 9211TIP3    H149048   0.456   3.244   4.319 -2.3015 -1.0601  0.8121
 9211TIP3    H249049   0.386   3.198   4.193  0.7998  1.0515 -1.8645
 9212TIP3   OH249050   2.973   3.456  15.060  0.4588 -0.1232  0.4883
 9212TIP3    H149051   3.046   3.394  15.066  1.4292  0.9107 -0.3670
 9212TIP3    H249052   2.957   3.465  14.966  1.4260  2.1213  0.4738
 9213TIP3   OH249053   2.829   4.950   5.814 -0.1490 -0.2798 -0.0613
 9213TIP3    H149054   2.858   4.867   5.774  0.9963 -0.2746  0.7020
 9213TIP3    H249055   2.905   4.979   5.866  0.1456  2.1227 -1.6490
 9214TIP3   OH249056   3.244   0.147  11.664 -0.2327 -0.0796 -0.5401
 9214TIP3    H149057   3.323   0.114  11.622 -0.2170  0.8681 -1.3091
 9214TIP3    H249058   3.274   0.218  11.720 -0.4927  0.0806 -0.5984
 9215TIP3   OH249059   6.440   5.267   2.264  0.0852  0.3148  0.2189
 9215TIP3    H149060   6.383   5.319   2.206  0.7782  2.2501  1.1712
 9215TIP3    H249061   6.510   5.328   2.289  1.4542 -1.3838  0.7136
 9216TIP3   OH249062   1.789   2.994   5.791 -0.5630  0.2476  0.7834
 9216TIP3    H149063   1.768   2.936   5.865 -2.0734  1.6842  1.5620
 9216TIP3    H249064   1.709   3.046   5.778  0.4115  1.5251 -0.4597
 9217TIP3   OH249065   2.532   1.659  13.467 -0.3230 -0.0151 -0.0390
 9217TIP3    H149066   2.624   1.640  13.488  0.5025  2.8856 -0.5806
 9217TIP3    H249067   2.494   1.687  13.550 -0.1645  0.6347 -0.1809
 9218TIP3   OH249068   1.291   6.759   1.905  0.1705  0.1065  0.2543
 9218TIP3    H149069   1.330   6.821   1.844  1.1684 -0.2769  0.4753
 9218TIP3    H249070   1.216   6.723   1.859 -1.0197  2.1529  0.4675
 9219TIP3   OH249071   2.243   3.378  12.602  0.2312  0.3143  0.5186
 9219TIP3    H149072   2.315   3.356  12.661 -0.7576 -1.9652  0.9850
 9219TIP3    H249073   2.167   3.385  12.660 -0.4996 -0.5383 -0.3033
 9220TIP3   OH249074   1.685   4.639  11.631 -0.3563 -0.4217 -0.4582
 9220TIP3    H149075   1.770   4.646  11.587  0.9120 -0.6909  1.8181
 9220TIP3    H249076   1.674   4.546  11.648 -0.4297 -0.2510  0.4803
 9221TIP3   OH249077   3.058   4.877   6.290 -0.3612  0.6102  0.7651
 9221TIP3    H149078   3.053   4.837   6.377  0.4637 -0.3957  0.3658
 9221TIP3    H249079   3.109   4.815   6.238  1.9525  2.6533  0.4177
 9222TIP3   OH249080   3.597   4.018  12.693  0.1311  0.2472 -0.6728
 9222TIP3    H149081   3.677   3.966  12.699 -0.5146 -0.7527 -0.2944
 9222TIP3    H249082   3.564   4.000  12.605 -1.3651 -2.0318  0.2419
 9223TIP3   OH249083   6.392   4.059   0.366 -0.0982 -0.4221 -0.2322
 9223TIP3    H149084   6.367   4.143   0.403  1.2352 -1.4115  3.2905
 9223TIP3    H249085   6.314   4.028   0.320 -1.1631  1.9234 -0.1245
 9224TIP3   OH249086   5.411   2.348  13.336  0.0272  0.5912 -0.7957
 9224TIP3    H149087   5.359   2.349  13.255  0.3668 -3.2704 -1.2473
 9224TIP3    H249088   5.481   2.285  13.319  0.5410  0.1889  2.2619
 9225TIP3   OH249089   2.146   3.515   0.620 -0.3603 -0.0139  0.3392
 9225TIP3    H149090   2.054   3.486   0.615 -0.9045  1.5968  0.6081
 9225TIP3    H249091   2.196   3.435   0.606 -1.7828 -1.3218  2.2488
 9226TIP3   OH249092   2.363   2.262  14.486 -0.3236  0.3388  0.1284
 9226TIP3    H149093   2.431   2.201  14.460  0.5038  0.6003  1.6133
 9226TIP3    H249094   2.375   2.274  14.580 -2.0119  0.8993  0.3126
 9227TIP3   OH249095   4.941   0.005  15.289 -0.3452 -0.7330 -0.1869
 9227TIP3    H149096   4.979   0.008  15.201 -0.6374  0.9864 -0.2774
 9227TIP3    H249097   5.014   0.029  15.347 -0.8223  0.9312 -0.2256
 9228TIP3   OH249098   2.545   6.411  11.258  0.2840 -0.0316  0.4181
 9228TIP3    H149099   2.573   6.370  11.176  0.5191 -2.4285  1.6033
 9228TIP3    H249100   2.505   6.493  11.231  0.3476 -0.7311 -2.0958
 9229TIP3   OH249101   6.514   3.585   5.209  0.1545  0.5962  0.1823
 9229TIP3    H149102   6.477   3.650   5.270  0.3602 -0.0755  1.0361
 9229TIP3    H249103   6.607   3.605   5.207  0.2061  0.3746  0.3874
 9230TIP3   OH249104   5.704   1.877  13.822  0.1610 -0.5360 -0.2947
 9230TIP3    H149105   5.755   1.809  13.866 -1.1519 -2.5113 -1.7088
 9230TIP3    H249106   5.627   1.889  13.877  1.1002  1.0020  0.7706
 9231TIP3   OH249107   3.837   4.900  11.234  0.5115  0.0783 -0.0795
 9231TIP3    H149108   3.793   4.825  11.194 -2.3680  0.9565  1.1785
 9231TIP3    H249109   3.893   4.862  11.301 -0.6705 -1.0061  0.3383
 9232TIP3   OH249110   0.501   3.240   6.057  0.3149  0.8650 -0.4434
 9232TIP3    H149111   0.479   3.247   6.150  1.2209 -2.1081  0.1159
 9232TIP3    H249112   0.445   3.305   6.014 -2.0995  0.5400  1.9038
 9233TIP3   OH249113   1.901   3.433   4.848 -0.4094 -0.0381 -0.0798
 9233TIP3    H149114   1.924   3.410   4.938  0.3716  1.2296  0.0724
 9233TIP3    H249115   1.879   3.349   4.806  2.3650 -1.1422  0.3918
 9234TIP3   OH249116   1.542   1.723  16.431  0.0426  0.7801  0.5587
 9234TIP3    H149117   1.547   1.641  16.382  0.4446  0.5297  1.0099
 9234TIP3    H249118   1.610   1.716  16.498  0.9926  2.0263 -0.2171
 9235TIP3   OH249119   0.573   3.254  14.389  0.1231 -0.0573  0.4826
 9235TIP3    H149120   0.519   3.175  14.387  1.0161 -0.6777 -0.9206
 9235TIP3    H249121   0.582   3.279  14.297  2.7059 -0.3414  0.5950
 9236TIP3   OH249122   3.483   5.422   0.925 -0.1781  0.5020  0.1784
 9236TIP3    H149123   3.538   5.348   0.950 -0.1608  0.5344  0.2381
 9236TIP3    H249124   3.494   5.485   0.996  1.1633  1.3044 -0.7033
 9237TIP3   OH249125   2.184   6.046   5.662 -0.5811  0.0218 -0.2643
 9237TIP3    H149126   2.172   6.126   5.713 -0.5354 -0.6248  0.7719
 9237TIP3    H249127   2.220   5.983   5.724 -1.5059 -1.0964 -0.8418
 9238TIP3   OH249128   5.890   4.539   1.504 -0.0397 -0.7663  0.0043
 9238TIP3    H149129   5.964   4.552   1.444 -0.5870  0.8053 -0.3950
 9238TIP3    H249130   5.867   4.628   1.532 -1.5968 -1.2520  0.3360
 9239TIP3   OH249131   1.022   4.036   3.445  0.2567  0.6394 -0.4196
 9239TIP3    H149132   0.927   4.029   3.434  0.3041  1.8529 -2.1709
 9239TIP3    H249133   1.035   4.118   3.493  0.4051 -0.0716  0.7859
 9240TIP3   OH249134   4.739   0.680  16.359  0.0994 -0.2948 -0.2394
 9240TIP3    H149135   4.805   0.722  16.413  0.5056 -1.6760  0.3818
 9240TIP3    H249136   4.670   0.654  16.421 -1.2707  1.4684 -0.9182
 9241TIP3   OH249137   2.929   1.463  12.932  0.3609  0.3130  0.0764
 9241TIP3    H149138   2.948   1.468  12.839 -0.6054  3.0721 -0.0753
 9241TIP3    H249139   2.833   1.467  12.937  0.4079  0.4250  1.1836
 9242TIP3   OH249140   2.771   2.272   3.786  0.2512 -0.3910  0.2448
 9242TIP3    H149141   2.685   2.293   3.822  0.9863 -0.1148  1.9441
 9242TIP3    H249142   2.831   2.283   3.860  1.8568  0.1704 -1.0888
 9243TIP3   OH249143   0.754   2.929  13.560  0.3142 -0.2293 -0.1936
 9243TIP3    H149144   0.810   2.965  13.629  1.0089 -1.4071 -0.1015
 9243TIP3    H249145   0.806   2.937  13.480 -0.5206  1.1992 -0.6137
 9244TIP3   OH249146   4.718   4.903   5.595  0.4048 -0.6139  0.0098
 9244TIP3    H149147   4.725   4.970   5.663  2.7323  0.9161 -1.6051
 9244TIP3    H249148   4.749   4.823   5.638 -0.9551 -0.3861  1.5308
 9245TIP3   OH249149   3.812   6.062   2.636 -0.0865  0.6117 -0.1150
 9245TIP3    H149150   3.863   5.981   2.636 -1.0629 -0.0454 -1.1101
 9245TIP3    H249151   3.875   6.131   2.616  0.4774 -0.1291 -0.9578
 9246TIP3   OH249152   2.569   0.662  13.322 -0.0872  0.5136  0.2100
 9246TIP3    H149153   2.510   0.710  13.379  1.5833  1.6565  1.0259
 9246TIP3    H249154   2.599   0.588  13.375 -0.7438 -0.0769 -0.2110
 9247TIP3   OH249155   0.307   1.473  12.469 -0.1410 -0.2328 -0.3782
 9247TIP3    H149156   0.242   1.418  12.425  0.1152 -0.9868  0.1809
 9247TIP3    H249157   0.275   1.563  12.455 -0.9358 -0.5523 -0.6883
 9248TIP3   OH249158   4.597   4.454  11.432  0.0009  0.8472  0.4224
 9248TIP3    H149159   4.618   4.366  11.400 -0.1547  1.1857 -0.6698
 9248TIP3    H249160   4.501   4.457  11.429  0.0462  1.4324 -0.6327
 9249TIP3   OH249161   2.074   1.601  14.710 -0.3194 -0.2130  0.3262
 9249TIP3    H149162   1.990   1.567  14.741  0.2546 -0.5277  1.5888
 9249TIP3    H249163   2.060   1.695  14.702 -0.5446 -0.1382  1.4187
 9250TIP3   OH249164   3.789   5.648  16.081 -0.3038  0.8896  0.1237
 9250TIP3    H149165   3.812   5.581  16.146  0.1421  0.1379 -0.7823
 9250TIP3    H249166   3.814   5.731  16.122 -1.3104  0.5645  1.4651
 9251TIP3   OH249167   5.347   5.993   3.332  0.3210  0.1602  0.3166
 9251TIP3    H149168   5.414   6.020   3.396  2.0545 -1.2253 -0.7988
 9251TIP3    H249169   5.398   5.958   3.259 -1.6468  0.2311 -1.1536
 9252TIP3   OH249170   1.432   4.946   2.002 -0.4170 -0.2677  0.8113
 9252TIP3    H149171   1.463   5.017   1.947  0.0947  0.1423  1.6039
 9252TIP3    H249172   1.488   4.949   2.080 -0.5566 -1.3705  0.9791
 9253TIP3   OH249173   2.384   3.410  16.064  0.3878  0.0083  0.0703
 9253TIP3    H149174   2.380   3.506  16.072 -0.0053 -0.0774  1.0782
 9253TIP3    H249175   2.322   3.389  15.995  0.2894  0.4643  0.0148
 9254TIP3   OH249176   1.340   5.809   3.206 -0.0153  0.2875 -0.0283
 9254TIP3    H149177   1.393   5.828   3.128  0.6699 -0.6471  0.1911
 9254TIP3    H249178   1.297   5.725   3.186  1.3379 -0.7288  1.1666
 9255TIP3   OH249179   4.099   6.188  16.800  0.0544  0.0706  0.8080
 9255TIP3    H149180   4.014   6.225  16.776  0.4764  1.0322  0.7300
 9255TIP3    H249181   4.081   6.097  16.822 -0.7899 -0.0938 -0.4599
 9256TIP3   OH249182   0.250   1.331  16.118  0.3790 -0.1095 -0.1150
 9256TIP3    H149183   0.243   1.269  16.189 -1.9635  0.5610  0.3272
 9256TIP3    H249184   0.160   1.351  16.093  0.9248  3.5207  0.1612
 9257TIP3   OH249185   4.973   0.122   1.586 -0.1070 -0.4384 -0.3859
 9257TIP3    H149186   4.926   0.150   1.665 -0.8651  0.2352 -1.0697
 9257TIP3    H249187   4.991   0.203   1.538  0.1041 -0.8681 -1.0472
 9258TIP3   OH249188   4.082   3.928   2.629 -0.2719 -0.0402 -0.0067
 9258TIP3    H149189   4.034   3.909   2.549 -0.0325  0.4054 -0.2618
 9258TIP3    H249190   4.140   3.853   2.641  1.9221  1.2075 -1.9374
 9259TIP3   OH249191   0.787   1.387   4.356 -0.3145  0.6508  0.7180
 9259TIP3    H149192   0.876   1.422   4.351  0.0394 -0.3923 -0.8693
 9259TIP3    H249193   0.732   1.463   4.375  0.8507  1.3770  1.2814
 9260TIP3   OH249194   1.538   0.214  14.028  0.2584 -0.6853  0.0541
 9260TIP3    H149195   1.558   0.193  14.120 -0.3823 -0.1321  0.3305
 9260TIP3    H249196   1.442   0.213  14.024  0.2473  0.5260 -0.3101
 9261TIP3   OH249197   6.773   1.849   4.028  0.2859  0.6419  0.2241
 9261TIP3    H149198   6.705   1.889   4.083 -0.2641 -0.2341  0.1977
 9261TIP3    H249199   6.855   1.885   4.062 -0.1023  0.7288  1.1032
 9262TIP3   OH249200   6.185   3.004  15.520  0.0087 -0.0148 -0.3706
 9262TIP3    H149201   6.117   2.938  15.535 -0.3700  0.0315 -1.7409
 9262TIP3    H249202   6.136   3.083  15.499  0.4741  0.6172  0.8056
 9263TIP3   OH249203   3.210   1.425   2.426  0.5872  0.2772  0.1943
 9263TIP3    H149204   3.263   1.361   2.473 -0.0934  0.0234  0.6333
 9263TIP3    H249205   3.220   1.506   2.475  0.5918  0.2370  0.2596
 9264TIP3   OH249206   3.560   5.757   0.593  0.0166  0.0968  0.1808
 9264TIP3    H149207   3.496   5.817   0.554 -0.3167 -0.8595 -0.7972
 9264TIP3    H249208   3.636   5.762   0.535 -0.3303 -1.0379 -0.3916
 9265TIP3   OH249209   0.162   2.672  14.601 -0.4375 -0.0421 -0.4208
 9265TIP3    H149210   0.125   2.640  14.684  1.9448  3.0505  2.0726
 9265TIP3    H249211   0.121   2.757  14.588  2.4923  1.5708  0.1851
 9266TIP3   OH249212   2.186   6.521  16.058  0.1757  0.4977  0.1096
 9266TIP3    H149213   2.163   6.479  16.141  1.4477 -1.7474 -0.5785
 9266TIP3    H249214   2.102   6.544  16.018 -0.6882 -2.1478  0.2175
 9267TIP3   OH249215   0.348   2.688   5.305 -0.1804  0.4366 -0.7618
 9267TIP3    H149216   0.318   2.609   5.350 -1.7059  1.3822  0.0045
 9267TIP3    H249217   0.372   2.658   5.217 -0.5350 -0.9010 -0.4327
 9268TIP3   OH249218   6.583   0.360   2.643  0.1103 -0.3708 -0.7340
 9268TIP3    H149219   6.555   0.428   2.582 -0.7013 -1.7534 -1.9797
 9268TIP3    H249220   6.502   0.324   2.679  0.5726  0.5509  1.4056
 9269TIP3   OH249221   3.121   5.260  14.055 -0.1864 -0.4200 -0.1418
 9269TIP3    H149222   3.151   5.276  14.145 -1.6264 -0.7324  0.4244
 9269TIP3    H249223   3.128   5.345  14.012 -1.3770  0.2179  0.8699
 9270TIP3   OH249224   5.554   3.545   3.866 -0.2297  0.1325 -0.2315
 9270TIP3    H149225   5.566   3.451   3.884 -1.6710  0.2405  1.7400
 9270TIP3    H249226   5.577   3.588   3.948 -4.3139  1.0064  0.7179
 9271TIP3   OH249227   0.981   5.690   3.627  0.3784  0.2901 -0.2436
 9271TIP3    H149228   1.059   5.635   3.621 -0.7092 -1.2977 -0.2561
 9271TIP3    H249229   0.941   5.666   3.711  0.5519  2.0101  0.3695
 9272TIP3   OH249230   5.494   0.888  12.613  0.7594 -0.0970 -0.4247
 9272TIP3    H149231   5.484   0.801  12.652  0.2915 -0.2778 -0.9431
 9272TIP3    H249232   5.405   0.920  12.602  0.9445  0.6831  0.2625
 9273TIP3   OH249233   2.359   5.181  13.080  0.5709 -0.1911  0.0139
 9273TIP3    H149234   2.306   5.205  13.005 -0.6815 -3.9587 -0.5301
 9273TIP3    H249235   2.311   5.109  13.121  2.7847 -0.3672  2.5676
 9274TIP3   OH249236   2.134   4.347  13.672 -0.5088  0.2936  0.1305
 9274TIP3    H149237   2.216   4.381  13.637 -0.0532 -0.7476  0.1499
 9274TIP3    H249238   2.075   4.344  13.597 -0.3037  0.3491 -0.0338
 9275TIP3   OH249239   0.296   2.440  15.346  0.3425  0.1606  0.2086
 9275TIP3    H149240   0.257   2.375  15.405  1.4799 -0.4305  0.3419
 9275TIP3    H249241   0.246   2.520  15.362 -0.3356 -0.3821  0.8936
 9276TIP3   OH249242   0.083   4.949  14.226  0.3267  0.1232  0.2077
 9276TIP3    H149243   0.034   5.027  14.250 -0.1962  0.0356 -0.5496
 9276TIP3    H249244   0.077   4.945  14.130  2.6176  0.6491 -0.0271
 9277TIP3   OH249245   4.803   5.213   5.204  0.0440 -0.5342  0.4382
 9277TIP3    H149246   4.822   5.143   5.267  2.2305 -1.0172 -0.6612
 9277TIP3    H249247   4.737   5.175   5.147  1.3522 -1.8441 -0.2721
 9278TIP3   OH249248   6.625   1.085   3.943  0.0159  0.4617 -0.2187
 9278TIP3    H149249   6.567   1.010   3.949 -1.2917  1.2729 -1.7756
 9278TIP3    H249250   6.709   1.049   3.916  0.3981 -0.7779  2.3979
 9279TIP3   OH249251   2.550   5.608  11.518  0.0736 -0.7554 -0.1732
 9279TIP3    H149252   2.460   5.621  11.546  0.2436  2.5639 -0.7522
 9279TIP3    H249253   2.602   5.613  11.598 -0.0312  1.1254 -0.1799
 9280TIP3   OH249254   4.980   4.064   2.477 -0.2880  0.8566 -0.3416
 9280TIP3    H149255   5.021   3.985   2.440  0.8674  0.9354  0.7235
 9280TIP3    H249256   4.887   4.052   2.460 -0.0266 -0.2380 -1.1383
 9281TIP3   OH249257   4.284   0.161   3.338 -0.4084  0.2828 -0.4357
 9281TIP3    H149258   4.226   0.164   3.413  0.2230  0.3955  0.0596
 9281TIP3    H249259   4.347   0.232   3.353  0.3424 -0.3449 -0.5462
 9282TIP3   OH249260   3.338   5.859   0.419  0.2017 -0.0951  0.2283
 9282TIP3    H149261   3.287   5.940   0.419 -0.3795 -0.4010  2.6880
 9282TIP3    H249262   3.401   5.871   0.348 -1.2028  1.6175 -0.8299
 9283TIP3   OH249263   1.039   5.958  13.653  0.0801 -0.2612  0.3464
 9283TIP3    H149264   1.027   5.867  13.682 -2.6896  0.8554  3.3885
 9283TIP3    H249265   1.119   5.987  13.697  0.2134 -0.8524  0.5001
 9284TIP3   OH249266   5.441   5.631   1.418  0.0128 -0.4279  0.4902
 9284TIP3    H149267   5.513   5.694   1.423  0.5742 -1.1201  1.2235
 9284TIP3    H249268   5.364   5.686   1.402  0.6158  0.3687  0.2087
 9285TIP3   OH249269   2.702   0.457  14.778  0.5842  0.1466  0.0994
 9285TIP3    H149270   2.747   0.500  14.705 -0.1482  0.2098 -0.3193
 9285TIP3    H249271   2.729   0.366  14.772  0.5433  0.1555 -0.2332
 9286TIP3   OH249272   4.530   4.233   5.171 -0.5281 -0.4532 -0.2363
 9286TIP3    H149273   4.564   4.244   5.082 -1.8472 -0.4511 -0.7689
 9286TIP3    H249274   4.546   4.141   5.192 -1.1985 -0.7387 -0.9294
 9287TIP3   OH249275   6.017   0.371  15.728 -0.2780  0.3072 -0.4033
 9287TIP3    H149276   6.042   0.296  15.782 -1.3783  1.2227  1.4687
 9287TIP3    H249277   5.943   0.341  15.676 -1.5084  0.4074  1.2412
 9288TIP3   OH249278   2.758   1.728   2.131  0.1541 -0.1883  0.5058
 9288TIP3    H149279   2.716   1.676   2.199 -0.5207 -0.9102 -0.4240
 9288TIP3    H249280   2.687   1.749   2.070  1.2928 -2.9222 -2.0533
 9289TIP3   OH249281   1.841   5.148  11.488 -0.4879 -0.3954  0.0142
 9289TIP3    H149282   1.908   5.120  11.426 -2.0917 -2.6470 -0.8207
 9289TIP3    H249283   1.854   5.091  11.564 -1.8575 -1.3772 -0.4517
 9290TIP3   OH249284   5.244   1.896  15.293 -0.2130 -0.2976  0.1734
 9290TIP3    H149285   5.149   1.886  15.291 -0.0718 -1.9179  0.0058
 9290TIP3    H249286   5.259   1.971  15.351 -1.5341 -1.4653  2.1421
 9291TIP3   OH249287   5.280   5.528  11.120 -0.8677  0.6745 -0.3218
 9291TIP3    H149288   5.296   5.498  11.030 -0.9360  0.4160 -0.2512
 9291TIP3    H249289   5.194   5.570  11.116 -0.2370  1.9590 -0.6748
 9292TIP3   OH249290   2.790   4.434   5.284 -0.0726  0.5161 -0.4069
 9292TIP3    H149291   2.782   4.369   5.213  0.5098  0.7866 -0.7286
 9292TIP3    H249292   2.865   4.488   5.258  2.7624 -1.7417  2.2580
 9293TIP3   OH249293   2.536   5.338  13.934 -0.1637 -0.1806 -0.2733
 9293TIP3    H149294   2.445   5.324  13.960 -0.1845 -0.2811 -0.3997
 9293TIP3    H249295   2.541   5.304  13.845 -0.0753  0.1033 -0.3788
 9294TIP3   OH249296   2.319   3.052  11.731  0.7955  0.2429  0.5516
 9294TIP3    H149297   2.308   3.048  11.826  0.2879 -1.6135  0.4458
 9294TIP3    H249298   2.400   3.102  11.719  1.7233 -0.8227  2.0261
 9295TIP3   OH249299   4.176   1.362  13.974 -0.1974  0.2393  0.0359
 9295TIP3    H149300   4.197   1.453  13.954 -0.0477  0.7027  2.0551
 9295TIP3    H249301   4.173   1.358  14.070 -0.7857 -1.7553 -0.0025
 9296TIP3   OH249302   3.992   3.381  12.512 -0.1563 -0.0856  0.1462
 9296TIP3    H149303   3.991   3.290  12.542  0.3495 -0.4479 -0.8884
 9296TIP3    H249304   4.043   3.379  12.431 -0.5261  1.0470 -0.1343
 9297TIP3   OH249305   1.214   4.589  16.187 -0.2918  0.5281 -0.2501
 9297TIP3    H149306   1.153   4.661  16.205  1.9397  3.0495 -2.0080
 9297TIP3    H249307   1.256   4.613  16.104  1.4714 -2.2132 -0.2712
 9298TIP3   OH249308   3.983   6.565  14.765 -0.3062  0.3348  0.2010
 9298TIP3    H149309   3.954   6.585  14.853  0.7750 -2.0345  1.1777
 9298TIP3    H249310   4.064   6.615  14.754  1.8613 -2.4160  2.2456
 9299TIP3   OH249311   0.218   0.342   5.014 -0.0232 -0.4325 -0.4735
 9299TIP3    H149312   0.231   0.265   4.959  1.2395  0.2618 -1.1754
 9299TIP3    H249313   0.252   0.415   4.962  0.0343  0.4155  0.7262
 9300TIP3   OH249314   4.396   0.056   4.514 -0.2434 -0.1194 -0.2796
 9300TIP3    H149315   4.304   0.045   4.540  0.0707 -0.5724  0.6655
 9300TIP3    H249316   4.398   0.025   4.423 -1.1020  0.2814 -0.4511
 9301TIP3   OH249317   0.656   0.943   0.801 -0.2970  0.0285 -0.0315
 9301TIP3    H149318   0.598   0.875   0.769 -0.6090  0.8298 -1.2660
 9301TIP3    H249319   0.739   0.928   0.754 -0.1922  0.1546  0.1118
 9302TIP3   OH249320   4.577   5.337  15.278 -0.5153 -0.1941 -0.2557
 9302TIP3    H149321   4.592   5.243  15.282  0.3535 -0.0601 -0.1197
 9302TIP3    H249322   4.520   5.349  15.202  1.5900 -0.6003 -2.0110
 9303TIP3   OH249323   3.821   2.413  11.447  0.1812  0.3707 -0.0461
 9303TIP3    H149324   3.899   2.450  11.405  1.2777 -0.6556  1.0129
 9303TIP3    H249325   3.766   2.385  11.373  1.1564  0.4222 -0.8172
 9304TIP3   OH249326   4.486   3.447   2.173  0.2097 -0.8775  0.6780
 9304TIP3    H149327   4.494   3.501   2.251 -0.7880 -0.2453  0.3635
 9304TIP3    H249328   4.563   3.468   2.121  0.2542 -0.3721  0.9435
 9305TIP3   OH249329   2.114   5.037   2.231 -0.3015  0.1484  0.1714
 9305TIP3    H149330   2.112   4.945   2.206 -0.1720  0.1084  0.3043
 9305TIP3    H249331   2.187   5.074   2.181 -1.8830  0.7508 -1.8077
 9306TIP3   OH249332   2.158   1.866  10.796 -0.4791  0.2375 -0.6262
 9306TIP3    H149333   2.214   1.901  10.865  0.6864  0.7490 -1.7699
 9306TIP3    H249334   2.069   1.891  10.821 -0.3323 -1.1995  1.6053
 9307TIP3   OH249335   2.691   6.546  12.422 -0.4121 -0.3660  0.6567
 9307TIP3    H149336   2.636   6.608  12.374 -1.5121 -0.1975  2.0657
 9307TIP3    H249337   2.772   6.593  12.438 -0.4514 -0.0372 -0.0721
 9308TIP3   OH249338   4.337   5.482  11.934  0.1057 -0.7364  0.0234
 9308TIP3    H149339   4.386   5.563  11.917 -1.1530 -0.0463 -0.4328
 9308TIP3    H249340   4.399   5.412  11.913  1.0778  0.1054 -0.0025
 9309TIP3   OH249341   0.756   5.885   6.252  0.1396  0.5069  0.5042
 9309TIP3    H149342   0.679   5.903   6.198  0.6466 -1.3651 -0.9479
 9309TIP3    H249343   0.765   5.790   6.251  2.7944  0.6831  0.1334
 9310TIP3   OH249344   2.370   4.691   4.640  0.1202  0.0541  0.2208
 9310TIP3    H149345   2.353   4.597   4.650  1.0871  0.0174  1.9456
 9310TIP3    H249346   2.301   4.734   4.690  0.5849  0.1984  0.7419
 9311TIP3   OH249347   3.698   6.221   2.994  0.1991  0.4692  0.1413
 9311TIP3    H149348   3.727   6.267   3.074  2.5395  1.3164 -1.0851
 9311TIP3    H249349   3.748   6.139   2.995 -1.2808 -0.4659  0.5068
 9312TIP3   OH249350   2.664   0.469   1.700  0.5550  0.4387 -0.0944
 9312TIP3    H149351   2.599   0.538   1.698 -0.8108 -0.8042 -1.0969
 9312TIP3    H249352   2.613   0.388   1.709  2.0810 -0.4542  0.9252
 9313TIP3   OH249353   2.481   1.382  13.592  0.1632 -0.1704  0.1721
 9313TIP3    H149354   2.570   1.353  13.613  1.1722 -1.0344 -4.2758
 9313TIP3    H249355   2.490   1.475  13.572 -0.3023  0.0910  1.0938
 9314TIP3   OH249356   4.771   1.650  14.913  0.0781  0.5209 -0.8726
 9314TIP3    H149357   4.866   1.667  14.916  0.2405 -0.0152 -2.2483
 9314TIP3    H249358   4.747   1.666  14.822 -0.9575 -0.3315 -0.7686
 9315TIP3   OH249359   0.937   0.847  12.100 -0.2996 -0.1404 -0.0696
 9315TIP3    H149360   0.950   0.932  12.058 -0.8569  0.4066  0.8228
 9315TIP3    H249361   0.848   0.852  12.137 -0.9810 -1.7227 -1.3797
 9316TIP3   OH249362   3.208   2.819   6.545  0.6365  0.6328 -0.2357
 9316TIP3    H149363   3.201   2.724   6.537 -1.4743  0.7479 -0.2519
 9316TIP3    H249364   3.274   2.844   6.480  0.8470 -0.7640 -0.5805
 9317TIP3   OH249365   3.299   3.182  13.541 -0.7694  0.0056  0.1232
 9317TIP3    H149366   3.292   3.271  13.506  0.5755  0.7615  1.6652
 9317TIP3    H249367   3.321   3.129  13.465  0.2832  1.3006 -0.5202
 9318TIP3   OH249368   5.281   3.790  13.741 -0.5813  0.0071 -0.2957
 9318TIP3    H149369   5.330   3.712  13.767 -0.4797 -0.0333 -0.6030
 9318TIP3    H249370   5.224   3.808  13.816 -0.3746 -0.1699 -0.0911
 9319TIP3   OH249371   0.076   1.977  16.663  0.2404  0.3056 -0.1658
 9319TIP3    H149372   0.043   1.895  16.626  1.2199  0.6108 -1.7942
 9319TIP3    H249373   0.021   2.045  16.624  1.7895  0.6956 -1.7614
 9320TIP3   OH249374   1.789   0.029  13.711 -0.1479 -0.6179  0.0123
 9320TIP3    H149375   1.730   0.002  13.641  0.7237 -2.6505 -0.0172
 9320TIP3    H249376   1.869   0.057  13.667  0.0376 -0.9234  0.1492
 9321TIP3   OH249377   6.594   3.068  13.363 -0.1729 -0.1698  0.2151
 9321TIP3    H149378   6.601   3.040  13.454  2.4266 -0.8376 -0.1288
 9321TIP3    H249379   6.510   3.114  13.359 -1.4318 -2.0441  2.3957
 9322TIP3   OH249380   6.365   4.375  13.025 -0.0112 -0.5459  0.1383
 9322TIP3    H149381   6.403   4.324  13.097  0.7077 -4.2571 -2.5738
 9322TIP3    H249382   6.277   4.339  13.015 -0.6859  1.0522  0.0991
 9323TIP3   OH249383   0.688   5.230   1.486 -0.1665  0.0905  0.1335
 9323TIP3    H149384   0.620   5.242   1.418 -1.1631  1.2930  1.2825
 9323TIP3    H249385   0.761   5.284   1.456  0.4736 -1.4859 -1.2945
 9324TIP3   OH249386   3.856   0.259   5.323  0.0773 -0.1821  0.1012
 9324TIP3    H149387   3.767   0.253   5.359 -0.6820  0.2582 -1.6132
 9324TIP3    H249388   3.844   0.298   5.237  2.0119  0.3787  0.0497
 9325TIP3   OH249389   2.447   4.995   1.502  0.4225  0.7424  0.0284
 9325TIP3    H149390   2.526   5.039   1.534  0.1072  1.1897  0.1950
 9325TIP3    H249391   2.460   4.986   1.408  1.0169  0.1114  0.1610
 9326TIP3   OH249392   2.872   3.988  16.009  0.4186  0.5020  0.4521
 9326TIP3    H149393   2.904   4.069  15.969  1.0905 -0.4882 -1.0971
 9326TIP3    H249394   2.940   3.963  16.071  0.4408  0.8403  0.5692
 9327TIP3   OH249395   2.209   3.825   2.932  0.0567 -0.7160 -0.3378
 9327TIP3    H149396   2.291   3.801   2.975 -1.3383 -1.1204  2.2558
 9327TIP3    H249397   2.230   3.904   2.883  1.7550 -0.2430  1.0788
 9328TIP3   OH249398   4.905   3.969  14.396  0.0749  0.0370  0.0288
 9328TIP3    H149399   4.836   4.023  14.359 -0.2301 -0.0477  0.4595
 9328TIP3    H249400   4.859   3.891  14.429  0.4273 -0.2065 -0.0485
 9329TIP3   OH249401   4.579   4.201   4.893  0.3399  0.0689  0.3532
 9329TIP3    H149402   4.624   4.262   4.836 -0.3487 -0.4115 -0.7395
 9329TIP3    H249403   4.499   4.178   4.846 -1.9232  2.0957  2.8722
 9330TIP3   OH249404   5.948   1.813  13.360 -0.0365  0.5553 -0.1045
 9330TIP3    H149405   6.015   1.748  13.382 -1.4545 -0.9136  0.1015
 9330TIP3    H249406   5.989   1.897  13.379  2.5426 -0.0981 -2.0997
 9331TIP3   OH249407   1.580   5.344  11.450 -0.7139  0.6156 -0.0573
 9331TIP3    H149408   1.595   5.436  11.470 -2.0095  0.9155 -0.3918
 9331TIP3    H249409   1.599   5.336  11.357 -0.3657  0.4846  0.0230
 9332TIP3   OH249410   0.711   1.548  14.408 -0.4684 -0.0432 -0.0318
 9332TIP3    H149411   0.634   1.539  14.352 -0.2720 -0.6010 -0.2136
 9332TIP3    H249412   0.762   1.617  14.367 -1.0643  0.6252  0.3183
 9333TIP3   OH249413   1.931   4.399  12.100 -0.1297  0.0921  0.0419
 9333TIP3    H149414   1.934   4.334  12.030 -1.4662 -1.2984  1.1863
 9333TIP3    H249415   1.858   4.457  12.077  0.8834  1.0690 -0.8332
 9334TIP3   OH249416   2.953   4.209  11.731  0.2273  0.2786 -0.0795
 9334TIP3    H149417   3.023   4.186  11.670  0.6068  0.8720  0.1207
 9334TIP3    H249418   2.873   4.177  11.689  0.4187  1.1313 -1.1462
 9335TIP3   OH249419   1.754   5.422   1.607  0.2078  0.5358 -0.3565
 9335TIP3    H149420   1.803   5.384   1.534 -0.5348  1.0420 -1.1317
 9335TIP3    H249421   1.664   5.392   1.593  0.3119 -0.6280  1.2165
 9336TIP3   OH249422   4.854   6.649   3.650 -0.0433 -0.0137  0.0122
 9336TIP3    H149423   4.785   6.591   3.617 -0.4114  0.4993 -0.1215
 9336TIP3    H249424   4.807   6.714   3.703  0.3611  0.2240  0.0768
 9337TIP3   OH249425   3.954   6.351  11.761 -0.0135  0.3285 -0.1182
 9337TIP3    H149426   3.908   6.334  11.678 -1.2423 -0.0049  0.6036
 9337TIP3    H249427   4.036   6.394  11.735  0.0713 -0.6396 -1.5650
 9338TIP3   OH249428   0.931   5.105   6.372 -0.2502  0.0665  0.1338
 9338TIP3    H149429   0.965   5.067   6.453 -0.8831  0.4717  0.5845
 9338TIP3    H249430   0.919   5.029   6.314 -1.6310 -0.4691  1.0748
 9339TIP3   OH249431   5.978   0.091   4.852 -0.2821 -0.3237 -0.0316
 9339TIP3    H149432   5.902   0.146   4.872 -0.5092  0.0397 -1.7506
 9339TIP3    H249433   5.963   0.062   4.762  1.0725 -1.1790  0.0010
 9340TIP3   OH249434   5.201   6.429  11.291  0.3489  0.6422 -0.4224
 9340TIP3    H149435   5.251   6.457  11.214 -0.5664  0.4995 -1.0872
 9340TIP3    H249436   5.146   6.357  11.258 -0.4555  0.9464  0.2282
 9341TIP3   OH249437   6.672   2.580  16.036  0.5235 -0.3730 -0.1699
 9341TIP3    H149438   6.705   2.583  15.946 -0.9217  0.2539 -0.7168
 9341TIP3    H249439   6.639   2.491  16.046  0.2157 -0.2973 -0.4625
 9342TIP3   OH249440   0.059   2.849   2.568 -0.0469  0.1503 -0.6901
 9342TIP3    H149441  -0.025   2.847   2.613  0.8184 -0.0900  0.9754
 9342TIP3    H249442   0.106   2.772   2.601  1.0977  0.6788 -1.0308
 9343TIP3   OH249443   0.727   1.854   2.321 -0.3074  0.2608  0.4958
 9343TIP3    H149444   0.734   1.917   2.393  1.1362  2.4013 -1.3733
 9343TIP3    H249445   0.817   1.844   2.290 -0.6312 -2.1824  0.2137
 9344TIP3   OH249446   4.483   2.274   4.862 -0.4307  0.6583 -0.3378
 9344TIP3    H149447   4.571   2.254   4.829 -1.1669  0.8294 -2.6201
 9344TIP3    H249448   4.437   2.190   4.859 -0.5861  0.7297  0.0285
 9345TIP3   OH249449   5.193   2.529  14.768  0.2773  0.2841  0.2731
 9345TIP3    H149450   5.102   2.500  14.780  0.0151  0.6005 -0.8265
 9345TIP3    H249451   5.233   2.517  14.854 -0.7383 -0.0945  0.7166
 9346TIP3   OH249452   2.307   4.172   4.745  0.5267  0.0768 -0.7466
 9346TIP3    H149453   2.399   4.167   4.769  0.3922  1.0581  0.0226
 9346TIP3    H249454   2.294   4.262   4.716  0.1494 -0.4619 -2.3591
 9347TIP3   OH249455   5.546   2.641  13.060  0.6859 -0.0474 -0.0699
 9347TIP3    H149456   5.523   2.670  13.149  2.5318 -1.9106  1.1001
 9347TIP3    H249457   5.476   2.581  13.035  0.4521  0.0421  0.3606
 9348TIP3   OH249458   2.966   6.757   1.514  0.3186 -0.1293 -0.6151
 9348TIP3    H149459   3.055   6.781   1.488  0.1451  3.2486  1.3267
 9348TIP3    H249460   2.920   6.742   1.432  2.0444  0.6876 -1.7831
 9349TIP3   OH249461   2.430   5.801   0.112  0.1284 -0.1410  0.7539
 9349TIP3    H149462   2.371   5.739   0.155 -0.5170  0.5657  0.9109
 9349TIP3    H249463   2.408   5.794   0.019 -0.5235  0.4285  0.8539
 9350TIP3   OH249464   4.760   1.067  13.308  0.1131  0.1785  0.5775
 9350TIP3    H149465   4.799   1.020  13.382  0.2457  0.1144  0.4676
 9350TIP3    H249466   4.712   1.000  13.260 -0.4060  0.3173  0.8896
 9351TIP3   OH249467   5.318   4.611   4.883  0.4943  0.0243 -0.4735
 9351TIP3    H149468   5.349   4.558   4.956 -1.7746 -0.7436  0.0325
 9351TIP3    H249469   5.310   4.700   4.919  1.8019  0.1883 -0.5565
 9352TIP3   OH249470   1.117   1.023   4.552 -0.3463 -0.0699  0.3175
 9352TIP3    H149471   1.089   1.015   4.461  0.8194 -0.8679  0.0084
 9352TIP3    H249472   1.066   1.096   4.587 -1.5953 -0.4593 -0.6590
 9353TIP3   OH249473   1.946   2.998   3.902  0.0394 -0.2944  0.2696
 9353TIP3    H149474   1.863   3.017   3.946  0.9274  0.3719  1.7240
 9353TIP3    H249475   1.940   2.905   3.880 -2.2809  0.3573 -2.3552
 9354TIP3   OH249476   3.620   2.216  11.584  0.2933  0.6896  0.0975
 9354TIP3    H149477   3.701   2.191  11.627 -0.5950 -0.5710  1.1346
 9354TIP3    H249478   3.638   2.302  11.546  1.7724  0.9144  1.2145
 9355TIP3   OH249479   4.171   0.482  14.763  0.6360 -0.3553 -0.0910
 9355TIP3    H149480   4.261   0.452  14.757  1.1034  0.8576  0.5397
 9355TIP3    H249481   4.167   0.532  14.845 -0.7077 -0.7093  0.0917
 9356TIP3   OH249482   2.574   1.683  16.389 -0.3745 -0.3719 -0.3506
 9356TIP3    H149483   2.590   1.766  16.434 -1.1019  0.0059 -0.7845
 9356TIP3    H249484   2.514   1.636  16.447  0.0076 -0.5917 -0.1214
 9357TIP3   OH249485   1.109   3.270   3.669  0.5100  0.1540  0.0404
 9357TIP3    H149486   1.041   3.311   3.722  0.1437  1.0732 -1.0871
 9357TIP3    H249487   1.190   3.286   3.718  0.0056 -0.4257  1.0975
 9358TIP3   OH249488   0.676   2.392   0.323  0.1856  0.1276  0.2659
 9358TIP3    H149489   0.649   2.310   0.366 -3.0443  0.4127 -0.9277
 9358TIP3    H249490   0.663   2.459   0.391 -0.2502 -0.0014  0.3185
 9359TIP3   OH249491   1.822   3.184   2.532  0.1123  0.9317  0.0932
 9359TIP3    H149492   1.783   3.190   2.619 -1.2429 -0.5103 -0.3512
 9359TIP3    H249493   1.915   3.170   2.548 -0.3128 -0.7578  1.3862
 9360TIP3   OH249494   4.375   0.859  15.079  0.2778  0.0090 -0.7016
 9360TIP3    H149495   4.320   0.785  15.056  1.3024 -0.5539 -1.4369
 9360TIP3    H249496   4.339   0.892  15.161 -0.0428 -1.4707 -0.2225
 9361TIP3   OH249497   6.710   2.666   1.338 -0.2855  0.5032  0.1438
 9361TIP3    H149498   6.722   2.573   1.357  1.7646  0.4894 -0.9605
 9361TIP3    H249499   6.723   2.710   1.422  2.2142  0.0030  0.0841
 9362TIP3   OH249500   1.729   3.446   2.976  0.2000 -0.4951  0.3451
 9362TIP3    H149501   1.735   3.359   2.937  1.2572 -0.5663  0.6194
 9362TIP3    H249502   1.691   3.431   3.063 -0.2204 -0.5955  0.1451
 9363TIP3   OH249503   0.259   5.026   3.067 -0.3409  0.8988 -0.2421
 9363TIP3    H149504   0.214   5.071   3.139 -0.8416  1.1712 -0.7164
 9363TIP3    H249505   0.188   4.990   3.013  0.0299 -2.3001  1.2103
 9364TIP3   OH249506   4.296   4.051   1.404 -0.1828 -0.4541  0.0028
 9364TIP3    H149507   4.205   4.020   1.403 -0.5733  0.6363  0.1014
 9364TIP3    H249508   4.347   3.975   1.433 -0.7661 -1.8184 -2.2122
 9365TIP3   OH249509   2.044   0.323   0.484  0.3078 -0.1492 -0.1515
 9365TIP3    H149510   2.050   0.302   0.391  1.1323 -1.0263  0.0766
 9365TIP3    H249511   2.016   0.241   0.525  1.2599 -0.1569  0.5183
 9366TIP3   OH249512   2.891   2.425  12.132 -0.5619 -0.5129  0.0197
 9366TIP3    H149513   2.847   2.346  12.162 -1.0197  0.0106  0.7613
 9366TIP3    H249514   2.839   2.497  12.167 -0.5012  0.1307 -1.1443
 9367TIP3   OH249515   1.607   2.225   1.544 -0.1327  0.3247  0.1726
 9367TIP3    H149516   1.559   2.142   1.540 -0.4867  0.5530 -0.5611
 9367TIP3    H249517   1.676   2.210   1.608  0.6760 -1.0121 -0.9452
 9368TIP3   OH249518   2.980   0.400   1.216  0.4619  0.3192  0.4360
 9368TIP3    H149519   2.962   0.412   1.309 -0.0489  3.1829  0.0695
 9368TIP3    H249520   3.071   0.428   1.205 -0.4542  3.3767 -0.3263
 9369TIP3   OH249521   2.406   1.393  15.861  0.4046  0.3745 -0.0353
 9369TIP3    H149522   2.370   1.462  15.915  1.4162  1.1998 -0.3701
 9369TIP3    H249523   2.434   1.437  15.781  2.4406 -0.1264  0.3386
 9370TIP3   OH249524   6.082   1.354  11.997  0.1509  0.2223 -0.0378
 9370TIP3    H149525   6.138   1.399  12.060 -1.5396 -1.4736  2.9027
 9370TIP3    H249526   6.139   1.287  11.958  0.6951 -0.2520  1.4933
 9371TIP3   OH249527   1.622   3.890   6.011  0.5018 -0.1492  0.2874
 9371TIP3    H149528   1.670   3.820   5.966  1.2822  0.5572 -0.0150
 9371TIP3    H249529   1.567   3.844   6.074  0.4515 -1.0740 -0.4068
 9372TIP3   OH249530   3.318   4.157   5.924  0.0387  0.5504  0.4222
 9372TIP3    H149531   3.333   4.126   6.014  0.2027 -3.6223 -0.8507
 9372TIP3    H249532   3.397   4.205   5.902  0.5404  0.5572  2.0609
 9373TIP3   OH249533   2.310   2.607   2.132  0.2585 -0.5756 -0.4389
 9373TIP3    H149534   2.338   2.519   2.158  2.4811 -0.4340 -2.0603
 9373TIP3    H249535   2.239   2.592   2.070  0.7769 -1.2810 -0.8834
 9374TIP3   OH249536   4.494   1.439   4.355 -0.2053 -0.0390  0.1150
 9374TIP3    H149537   4.406   1.414   4.381 -0.0697  0.5995  1.2611
 9374TIP3    H249538   4.507   1.526   4.394  1.3671 -0.6320  1.0077
 9375TIP3   OH249539   0.089   0.585  12.769  0.3868 -0.2946  0.3532
 9375TIP3    H149540   0.122   0.614  12.854  0.2664 -0.1876  0.3639
 9375TIP3    H249541   0.118   0.494  12.762 -0.2659 -0.5480  0.8521
 9376TIP3   OH249542   1.967   6.480   2.200  0.4296  0.2623  0.0324
 9376TIP3    H149543   2.031   6.418   2.234 -0.7060 -1.2640 -0.5245
 9376TIP3    H249544   1.944   6.534   2.276  1.8399  0.4187  0.3909
 9377TIP3   OH249545   5.225   3.349  17.198 -0.1085  1.0514  0.2472
 9377TIP3    H149546   5.264   3.294  17.266  0.6731  1.2674 -0.0084
 9377TIP3    H249547   5.249   3.439  17.223 -0.7142  1.2169  0.2468
 9378TIP3   OH249548   4.768   5.830   6.016  0.2880  0.4234  0.0277
 9378TIP3    H149549   4.808   5.882   6.085 -2.1174  0.1685  1.7412
 9378TIP3    H249550   4.710   5.891   5.970  0.2320  0.0805 -0.3682
 9379TIP3   OH249551   2.620   2.573   3.089 -0.5492 -0.2113 -0.5262
 9379TIP3    H149552   2.684   2.554   3.021 -0.2517 -1.0795 -0.0274
 9379TIP3    H249553   2.575   2.490   3.103 -0.8714  0.0556  0.0550
 9380TIP3   OH249554   0.701   0.846  10.420  0.0662  0.0968 -0.0706
 9380TIP3    H149555   0.734   0.766  10.381 -2.1047  0.1940 -2.3758
 9380TIP3    H249556   0.607   0.832  10.428 -0.3897  2.3656 -0.5637
 9381TIP3   OH249557   0.901   3.538   5.397  0.0457 -0.3735 -0.4173
 9381TIP3    H149558   0.858   3.461   5.434  0.6714 -1.1662 -1.2752
 9381TIP3    H249559   0.959   3.568   5.467 -0.0039 -0.8578 -0.1592
 9382TIP3   OH249560   4.345   2.792   0.119  0.0716 -0.1446  0.0211
 9382TIP3    H149561   4.436   2.769   0.136  0.0079 -1.0497 -0.7909
 9382TIP3    H249562   4.349   2.863   0.055  0.2308  1.2565  1.5021
 9383TIP3   OH249563   4.028   0.804   4.097  0.2530  0.0664 -0.1185
 9383TIP3    H149564   4.004   0.814   4.189 -0.1360  3.6854 -0.4614
 9383TIP3    H249565   4.112   0.849   4.089 -0.1504  0.5910 -1.6941
 9384TIP3   OH249566   2.486   4.517   1.006  0.1608 -0.7393  0.4653
 9384TIP3    H149567   2.502   4.423   0.999  2.0014 -0.4352  0.0229
 9384TIP3    H249568   2.391   4.525   1.018 -0.1717 -2.5803 -0.5817
 9385TIP3   OH249569   5.683   3.174  15.108 -0.6829  0.1877 -0.1892
 9385TIP3    H149570   5.757   3.127  15.146  1.3703  0.9576 -2.9157
 9385TIP3    H249571   5.638   3.212  15.183  2.3594  0.6174  1.5865
 9386TIP3   OH249572   3.236   4.680  12.184 -0.2045 -0.3072  0.7140
 9386TIP3    H149573   3.322   4.712  12.211  0.7745 -1.5026 -0.8480
 9386TIP3    H249574   3.234   4.588  12.213 -0.8287 -0.3837  0.4506
 9387TIP3   OH249575   6.736   6.100  13.307 -0.1929 -0.4166 -0.0910
 9387TIP3    H149576   6.687   6.119  13.227 -0.5216  0.9935  0.4107
 9387TIP3    H249577   6.777   6.016  13.291 -0.4447 -0.2659 -1.6603
 9388TIP3   OH249578   1.910   3.673   5.411  0.3601  0.2543  0.3044
 9388TIP3    H149579   1.995   3.665   5.368  0.3815 -0.3235  0.4502
 9388TIP3    H249580   1.929   3.717   5.493  0.9103 -1.9490  1.4470
 9389TIP3   OH249581   6.491   3.573  11.533  0.5768  0.1572  0.0742
 9389TIP3    H149582   6.553   3.509  11.496 -0.0152 -0.5615  0.2854
 9389TIP3    H249583   6.535   3.607  11.611  0.4335 -0.8797  0.6313
 9390TIP3   OH249584   5.128   0.015  12.596 -0.6607 -0.4788  0.3920
 9390TIP3    H149585   5.127  -0.008  12.503  0.4574  2.0908 -0.3410
 9390TIP3    H249586   5.133  -0.069  12.641  0.5886 -1.7609 -1.9278
 9391TIP3   OH249587   6.487   1.787  12.118  0.2076  0.2367  0.5842
 9391TIP3    H149588   6.418   1.760  12.057  0.0233  1.1931  0.3448
 9391TIP3    H249589   6.492   1.882  12.107  2.1380  0.1127 -0.0116
 9392TIP3   OH249590   5.071   4.079   4.971  0.0588 -0.5412  0.3929
 9392TIP3    H149591   4.976   4.070   4.959 -0.1791  1.3731  0.4220
 9392TIP3    H249592   5.094   4.013   5.035 -1.0840 -1.6747 -0.3176
 9393TIP3   OH249593   0.263   0.515  13.691 -0.1972 -0.3417  0.2546
 9393TIP3    H149594   0.274   0.575  13.617  2.0835 -0.9664 -0.0033
 9393TIP3    H249595   0.320   0.441  13.670 -1.7234 -1.8972  1.3093
 9394TIP3   OH249596   4.311   1.617  12.339  0.2048 -0.1458 -0.4489
 9394TIP3    H149597   4.229   1.569  12.351  0.7074 -0.8652  0.2320
 9394TIP3    H249598   4.295   1.702  12.380  0.0711 -0.5972  0.4642
 9395TIP3   OH249599   0.414   3.507   0.726 -0.1269  0.3061  0.2519
 9395TIP3    H149600   0.434   3.579   0.666  1.4978  0.2620  0.6848
 9395TIP3    H249601   0.359   3.448   0.675  0.4647  0.7100 -0.8972
 9396TIP3   OH249602   1.404   2.579   5.670  0.1906  0.1108  0.7806
 9396TIP3    H149603   1.451   2.504   5.633  0.0511  0.3336  0.1321
 9396TIP3    H249604   1.371   2.548   5.754  1.3020 -0.1175  1.1544
 9397TIP3   OH249605   5.670   3.383   5.009  0.3013 -0.3872 -0.6524
 9397TIP3    H149606   5.749   3.377   4.955  0.6575 -2.2890 -0.0071
 9397TIP3    H249607   5.681   3.463   5.059  1.2347  0.0214 -1.4801
 9398TIP3   OH249608   4.544   3.659   3.923  0.3899 -0.2790  0.6532
 9398TIP3    H149609   4.457   3.647   3.886  0.7711 -1.6417  0.1425
 9398TIP3    H249610   4.573   3.744   3.889  0.1370 -0.8213 -0.9856
 9399TIP3   OH249611   0.315   6.628  16.138  0.1911  0.2250 -0.2890
 9399TIP3    H149612   0.293   6.702  16.195  1.0585  0.0112  0.3389
 9399TIP3    H249613   0.402   6.599  16.168  0.1906 -0.5748 -1.0165
 9400TIP3   OH249614   1.481   5.735   1.440 -0.0964  0.1105 -0.3334
 9400TIP3    H149615   1.474   5.814   1.386 -2.5092  0.5364  0.4859
 9400TIP3    H249616   1.546   5.758   1.507 -1.0250  1.5788  0.1225
 9401TIP3   OH249617   1.026   2.669   4.715  0.4443 -0.3347  0.1278
 9401TIP3    H149618   0.985   2.679   4.802 -0.9946 -0.9642 -0.4380
 9401TIP3    H249619   1.001   2.748   4.668  0.2589 -0.5122 -0.0738
 9402TIP3   OH249620   3.582   5.613   4.705 -0.2175 -0.1382 -0.2791
 9402TIP3    H149621   3.512   5.564   4.749 -0.1646  1.1892  1.4051
 9402TIP3    H249622   3.663   5.570   4.734 -0.2273  0.0886  0.0923
 9403TIP3   OH249623   3.296   4.617   6.423  0.2327  0.2065  0.0229
 9403TIP3    H149624   3.228   4.625   6.356  0.8801 -0.7238 -0.7569
 9403TIP3    H249625   3.284   4.530   6.460  1.1468 -0.0614 -0.2850
 9404TIP3   OH249626   6.271   0.686   3.516 -0.6351  0.0252  0.0281
 9404TIP3    H149627   6.352   0.737   3.529  0.1188 -0.9893 -0.5828
 9404TIP3    H249628   6.298   0.595   3.529 -2.2192 -0.2020  2.4231
 9405TIP3   OH249629   0.699   3.660  12.580  0.0953 -0.0799  0.2670
 9405TIP3    H149630   0.605   3.673  12.571  0.1027 -1.0669 -1.6665
 9405TIP3    H249631   0.738   3.715  12.511  0.7425 -1.7327 -0.7450
 9406TIP3   OH249632   2.458   3.633  14.772 -0.4900 -0.1129 -0.1948
 9406TIP3    H149633   2.427   3.645  14.862  0.5265  0.0861  0.1422
 9406TIP3    H249634   2.542   3.588  14.782  0.3109  1.1553 -0.9692
 9407TIP3   OH249635   6.516   1.493  11.482  0.2749  1.0878 -0.0494
 9407TIP3    H149636   6.558   1.443  11.553 -0.5386  1.1704  0.5086
 9407TIP3    H249637   6.425   1.502  11.511 -0.5802 -0.5657 -2.0043
 9408TIP3   OH249638   4.185   4.044   2.054 -0.2450 -0.2311 -0.2455
 9408TIP3    H149639   4.208   4.121   2.106 -0.6366  0.6455 -1.3262
 9408TIP3    H249640   4.090   4.040   2.057 -0.4895  1.3827 -2.9438
 9409TIP3   OH249641   4.405   1.788   4.641 -0.3762 -0.0251 -0.1011
 9409TIP3    H149642   4.414   1.711   4.696 -1.1953 -0.8157 -1.0320
 9409TIP3    H249643   4.443   1.762   4.557  3.1610  1.9637  0.6911
 9410TIP3   OH249644   2.461   3.266   2.521 -0.3247  0.0523  0.1696
 9410TIP3    H149645   2.454   3.175   2.490  0.4767  0.3542 -0.9442
 9410TIP3    H249646   2.371   3.293   2.535 -0.6388 -0.5422 -0.6222
 9411TIP3   OH249647   3.472   3.747   1.201 -0.5161  0.0026 -0.5037
 9411TIP3    H149648   3.431   3.661   1.210  0.7790 -0.6045 -0.1362
 9411TIP3    H249649   3.402   3.810   1.221 -0.9371 -1.0171  1.3873
 9412TIP3   OH249650   2.838   1.462   1.497 -0.1034 -0.0343 -0.2148
 9412TIP3    H149651   2.812   1.543   1.540  1.0764 -0.1504  0.7854
 9412TIP3    H249652   2.792   1.463   1.413  1.2025  2.4941 -0.9872
 9413TIP3   OH249653   0.525   1.265  14.351  0.1032 -0.2033 -0.2846
 9413TIP3    H149654   0.593   1.198  14.357  0.8221  0.6177  2.0629
 9413TIP3    H249655   0.567   1.339  14.308  0.1922 -0.2935 -0.3502
 9414TIP3   OH249656   0.787   0.522   3.190  0.4093 -0.1327  0.0036
 9414TIP3    H149657   0.831   0.581   3.129  1.8624 -0.9052  0.2443
 9414TIP3    H249658   0.779   0.439   3.142 -2.3602  0.4172 -0.6334
 9415TIP3   OH249659   5.836   4.317   2.251 -0.5161 -0.0350  0.2876
 9415TIP3    H149660   5.811   4.228   2.226 -1.9547  0.5930 -0.6237
 9415TIP3    H249661   5.847   4.313   2.346 -1.8919 -0.8847  0.4380
 9416TIP3   OH249662   3.005   1.353  12.672 -0.1173  0.1346  0.1003
 9416TIP3    H149663   3.072   1.421  12.663  0.1359 -0.1624 -0.3363
 9416TIP3    H249664   3.027   1.289  12.603 -1.1585  0.2851 -0.3914
 9417TIP3   OH249665   1.016   5.791   1.692 -0.0645  0.1842  0.0988
 9417TIP3    H149666   0.922   5.798   1.678  0.3717  2.5519 -2.6681
 9417TIP3    H249667   1.051   5.764   1.607  1.7619 -1.8911  1.3693
 9418TIP3   OH249668   1.275   4.641  14.702  0.1194  0.2738 -0.0909
 9418TIP3    H149669   1.329   4.562  14.692 -0.4917 -0.3862  1.5214
 9418TIP3    H249670   1.189   4.607  14.728 -1.3089  1.2505 -3.0656
 9419TIP3   OH249671   2.941   6.694  11.271  0.3756 -0.4198 -0.4217
 9419TIP3    H149672   3.020   6.682  11.323  0.0089 -0.4460  0.1406
 9419TIP3    H249673   2.875   6.641  11.316  0.0477 -0.4265 -0.9047
 9420TIP3   OH249674   0.944   3.939  12.790 -0.2453  0.2999  0.5882
 9420TIP3    H149675   0.901   3.867  12.836 -0.8291  0.9545  1.0822
 9420TIP3    H249676   0.938   3.916  12.697  0.3695 -0.7160  0.7922
 9421TIP3   OH249677   5.793   5.696  16.011 -0.0978  0.5863 -0.5472
 9421TIP3    H149678   5.836   5.717  16.093 -1.0535 -1.7463  0.6629
 9421TIP3    H249679   5.739   5.772  15.991  1.2375  1.7674  0.2052
 9422TIP3   OH249680   6.213   4.202   3.852 -0.1632  0.4298 -0.0823
 9422TIP3    H149681   6.300   4.168   3.832 -0.4576 -0.3051 -0.1561
 9422TIP3    H249682   6.172   4.133   3.905 -1.2590  0.0591 -1.3650
 9423TIP3   OH249683   5.047   2.603   4.897  0.1286 -0.2532  1.0521
 9423TIP3    H149684   4.963   2.559   4.904 -0.0153  0.0949  1.5563
 9423TIP3    H249685   5.054   2.656   4.976  0.0159  1.1190  0.1943
 9424TIP3   OH249686   1.367   6.769   3.054  0.1305 -0.1260 -0.3834
 9424TIP3    H149687   1.435   6.702   3.043 -1.6377 -2.0793 -0.0531
 9424TIP3    H249688   1.402   6.846   3.008  2.9534 -0.6903  0.5723
 9425TIP3   OH249689   2.360   3.109   2.854 -0.1251  0.1268  0.1586
 9425TIP3    H149690   2.433   3.142   2.907  0.4332  0.2028 -0.6447
 9425TIP3    H249691   2.288   3.168   2.874  0.7714  1.6972 -1.0085
 9426TIP3   OH249692   5.167   1.591   2.591 -0.2311  0.0808  0.1557
 9426TIP3    H149693   5.129   1.560   2.509 -1.4608 -3.3296  1.8600
 9426TIP3    H249694   5.092   1.620   2.643  0.2698 -0.1246  1.0058
 9427TIP3   OH249695   3.695   1.632   2.280 -0.3959  0.0545 -0.7649
 9427TIP3    H149696   3.618   1.639   2.337 -0.2346 -0.3949 -0.4850
 9427TIP3    H249697   3.676   1.559   2.222 -0.8941  1.0012 -1.8287
 9428TIP3   OH249698   0.419   5.674   4.556  0.2172  0.4674 -0.2644
 9428TIP3    H149699   0.380   5.756   4.586 -0.2743  0.3242 -0.5151
 9428TIP3    H249700   0.350   5.630   4.508  0.7617  0.3256 -0.9271
 9429TIP3   OH249701   0.074   4.028   2.768 -0.0799 -0.7044  0.0927
 9429TIP3    H149702   0.149   4.064   2.722 -0.4228  1.6365  1.2181
 9429TIP3    H249703   0.080   4.065   2.856 -1.3015 -2.3330  0.9255
 9430TIP3   OH249704   4.721   6.179   5.177 -0.4166 -0.2378  0.1503
 9430TIP3    H149705   4.771   6.235   5.236 -0.8169 -1.7471  2.0234
 9430TIP3    H249706   4.758   6.197   5.090  0.2446  2.0088  0.8341
 9431TIP3   OH249707   5.746   1.237   4.185  0.1257  0.0280  0.1871
 9431TIP3    H149708   5.707   1.151   4.166  0.8450 -0.3062  0.1976
 9431TIP3    H249709   5.705   1.296   4.123 -0.1257 -0.3917 -0.0492
 9432TIP3   OH249710   3.982   5.405  11.474  0.5077 -0.1522 -0.9517
 9432TIP3    H149711   3.955   5.489  11.435  0.4168  0.1104 -0.3409
 9432TIP3    H249712   4.037   5.430  11.549  0.1561 -0.6223 -0.5278
 9433TIP3   OH249713   4.801   2.987  16.851 -0.0573  0.1885 -0.1396
 9433TIP3    H149714   4.827   2.948  16.934 -1.5331 -1.0757 -0.2141
 9433TIP3    H249715   4.817   3.081  16.861  0.3867 -0.0293  1.3242
 9434TIP3   OH249716   3.178   4.168  13.588 -0.1253  0.3509 -0.4719
 9434TIP3    H149717   3.212   4.167  13.499 -1.4946  1.4666 -1.0435
 9434TIP3    H249718   3.256   4.172  13.644  0.8508 -2.2291 -1.4825
 9435TIP3   OH249719   3.017   0.345  15.376 -0.5342 -0.4050 -0.2791
 9435TIP3    H149720   2.921   0.340  15.375 -0.5018 -1.4714  0.2434
 9435TIP3    H249721   3.036   0.432  15.412 -1.2975  0.0589 -0.9725
 9436TIP3   OH249722   5.490   6.085   3.535  0.5744 -0.4300  0.1297
 9436TIP3    H149723   5.400   6.101   3.560  0.5701  0.0903 -0.1956
 9436TIP3    H249724   5.540   6.156   3.576  0.5695  0.4298 -1.2656
 9437TIP3   OH249725   4.208   2.470   3.305 -0.2761  0.5336  0.9293
 9437TIP3    H149726   4.144   2.531   3.341 -0.5766  0.9696 -0.3147
 9437TIP3    H249727   4.286   2.523   3.288 -0.6370  0.6622 -0.4322
 9438TIP3   OH249728   1.718   2.217   0.935 -0.2021  0.6401 -0.5042
 9438TIP3    H149729   1.808   2.233   0.962 -0.1532 -2.4573  1.8365
 9438TIP3    H249730   1.717   2.125   0.910 -3.1802 -0.3474  2.4900
 9439TIP3   OH249731   1.345   5.336   1.067 -0.1127 -0.4697 -0.4301
 9439TIP3    H149732   1.396   5.396   1.121 -0.1308 -1.1297  0.3329
 9439TIP3    H249733   1.314   5.390   0.994 -0.6475  0.5915  0.5625
 9440TIP3   OH249734   3.262   3.517  11.810 -0.1937 -0.0443  0.3772
 9440TIP3    H149735   3.353   3.523  11.837 -0.3309 -1.4918  1.2500
 9440TIP3    H249736   3.242   3.604  11.775  1.5891  0.2048 -0.1071
 9441TIP3   OH249737   6.785   6.734  16.317  0.1241 -0.2040 -0.4694
 9441TIP3    H149738   6.749   6.786  16.388  1.7081 -0.9781  0.9582
 9441TIP3    H249739   6.874   6.767  16.305 -0.0711 -0.1596 -2.0431
 9442TIP3   OH249740   0.043   1.516  13.728  0.4103  0.1609  0.3406
 9442TIP3    H149741   0.136   1.512  13.707  0.1145  1.5338 -1.4662
 9442TIP3    H249742  -0.002   1.499  13.645 -0.9343  0.5752  0.9456
 9443TIP3   OH249743   2.165   3.926   1.115  0.4657  0.3813  0.3652
 9443TIP3    H149744   2.134   3.955   1.029  0.4083  2.4561  1.0136
 9443TIP3    H249745   2.259   3.910   1.102  0.1226 -1.1135 -0.4687
 9444TIP3   OH249746   5.276   0.890  15.834  0.0069  0.2660 -0.2302
 9444TIP3    H149747   5.322   0.846  15.762 -0.4534  2.5627 -2.0494
 9444TIP3    H249748   5.344   0.907  15.899  1.0869  0.7436 -1.4379
 9445TIP3   OH249749   3.975   3.260   3.061 -0.2665 -0.0148  0.4350
 9445TIP3    H149750   4.070   3.264   3.076  0.1050 -1.0894 -1.2976
 9445TIP3    H249751   3.964   3.186   3.001 -2.2659 -0.1835  0.9428
 9446TIP3   OH249752   1.048   4.812  16.255  0.2684  0.0971  0.0547
 9446TIP3    H149753   1.124   4.821  16.314 -0.2292 -0.0122  0.7221
 9446TIP3    H249754   0.985   4.875  16.288  0.5186  1.0762 -1.2485
 9447TIP3   OH249755   3.894   0.373   4.324  0.3588 -0.0379  0.0383
 9447TIP3    H149756   3.908   0.383   4.230  1.0791 -1.5921 -0.0477
 9447TIP3    H249757   3.814   0.422   4.342 -0.5820 -0.8807 -1.6589
 9448TIP3   OH249758   6.363   4.551  10.941  0.0928  0.3856 -0.6290
 9448TIP3    H149759   6.421   4.492  10.894  0.1568 -0.9343  1.0358
 9448TIP3    H249760   6.377   4.636  10.899  1.3285 -0.3972 -1.8951
 9449TIP3   OH249761   0.471   4.483   2.528 -0.2034 -0.4886  0.4577
 9449TIP3    H149762   0.490   4.440   2.445 -0.1407 -0.1658  0.3038
 9449TIP3    H249763   0.380   4.510   2.520 -0.5036 -1.3353  0.8856
 9450TIP3   OH249764   1.674   1.681  10.943 -0.5057  0.4759  0.0748
 9450TIP3    H149765   1.663   1.639  10.858 -0.3308 -0.8316  0.6779
 9450TIP3    H249766   1.620   1.760  10.937  1.6205  1.9118 -2.2095
 9451TIP3   OH249767   0.317   3.345   5.879 -0.4490  0.4122 -0.2746
 9451TIP3    H149768   0.265   3.265   5.872  1.3903 -0.8400 -0.3585
 9451TIP3    H249769   0.269   3.409   5.825 -1.5851 -0.8233 -0.8053
 9452TIP3   OH249770   2.220   5.020  14.310 -0.2799  0.2049 -0.4293
 9452TIP3    H149771   2.169   5.095  14.341  1.3614  1.5613 -0.8039
 9452TIP3    H249772   2.160   4.946  14.313 -1.4785  1.1828  1.5967
 9453TIP3   OH249773   2.810   6.215   3.238 -0.1849 -0.3366  0.1479
 9453TIP3    H149774   2.718   6.223   3.263 -0.0765  1.7908  0.0956
 9453TIP3    H249775   2.854   6.189   3.318 -0.7186 -0.3479  0.4452
 9454TIP3   OH249776   5.177   0.948   3.095  0.3539  0.0475 -0.0783
 9454TIP3    H149777   5.213   0.974   3.180 -3.1837  0.1372  1.5710
 9454TIP3    H249778   5.121   1.021   3.069  2.9190  1.0038 -3.7357
 9455TIP3   OH249779   3.263   0.704  16.820  0.0094  0.0564  0.0328
 9455TIP3    H149780   3.185   0.733  16.772  0.5229  0.2152 -0.7257
 9455TIP3    H249781   3.334   0.757  16.785  0.9223 -1.8322 -1.1437
 9456TIP3   OH249782   0.035   0.441  11.913 -0.4486  0.2186  0.1110
 9456TIP3    H149783   0.110   0.382  11.904 -1.9425 -1.6369 -1.0773
 9456TIP3    H249784   0.054   0.513  11.853  1.2068  0.7838  1.2438
 9457TIP3   OH249785   0.707   0.381   0.184  0.2704  0.9095  0.0049
 9457TIP3    H149786   0.706   0.464   0.137 -0.2766  0.7401 -0.2913
 9457TIP3    H249787   0.632   0.386   0.243  0.4582  0.7777  0.2594
 9458TIP3   OH249788   3.999   3.815  16.966  0.0759  0.5170 -0.0717
 9458TIP3    H149789   3.993   3.888  16.905  1.4721 -0.2854 -1.2245
 9458TIP3    H249790   3.973   3.738  16.916 -1.8729  0.2370  1.2674
 9459TIP3   OH249791   5.778   5.696  10.901  0.3529 -0.2736 -0.1944
 9459TIP3    H149792   5.846   5.639  10.867  0.1467  0.5561 -2.1144
 9459TIP3    H249793   5.696   5.648  10.884  0.2971 -0.2037 -0.1256
 9460TIP3   OH249794   3.620   0.935   3.016  0.2074  0.0998 -0.0879
 9460TIP3    H149795   3.660   0.925   3.103  0.9376  1.7701 -0.1869
 9460TIP3    H249796   3.661   1.014   2.980 -0.5505 -0.1999 -1.7052
 9461TIP3   OH249797   2.005   6.047   5.443  0.0145 -0.2448 -0.0712
 9461TIP3    H149798   2.035   6.062   5.532  2.1004  1.7787 -1.0057
 9461TIP3    H249799   1.914   6.020   5.452  0.0630  0.2964  2.6319
 9462TIP3   OH249800   0.724   3.995   0.657 -0.4063 -0.5665 -0.2659
 9462TIP3    H149801   0.802   4.036   0.692 -2.0641  0.9047  2.0052
 9462TIP3    H249802   0.736   3.996   0.562  1.9505  0.2668 -0.0194
 9463TIP3   OH249803   3.157   5.163  16.033  0.4451 -0.1273 -0.0461
 9463TIP3    H149804   3.094   5.109  16.080 -1.6361  1.5220 -0.7667
 9463TIP3    H249805   3.234   5.165  16.090 -0.2780 -1.8951  1.0619
 9464TIP3   OH249806   2.158   1.031   5.352  0.3281  0.6487  0.2257
 9464TIP3    H149807   2.184   1.121   5.330  1.5612  0.1503 -0.5086
 9464TIP3    H249808   2.132   0.993   5.268  0.9656 -0.0234  0.3203
 9465TIP3   OH249809   5.153   2.801  13.901 -0.3663 -1.4482 -0.1903
 9465TIP3    H149810   5.103   2.766  13.827 -1.1482 -0.1674 -0.3088
 9465TIP3    H249811   5.245   2.790  13.875 -0.5542 -3.5326 -0.1220
 9466TIP3   OH249812   2.509   5.571  14.890  0.4347 -0.4669 -0.0028
 9466TIP3    H149813   2.448   5.559  14.963  0.7229 -0.4535  0.2408
 9466TIP3    H249814   2.576   5.630  14.924 -0.4293  1.0735 -0.8607
 9467TIP3   OH249815   1.666   5.032   2.112  0.1587  0.2005 -0.7042
 9467TIP3    H149816   1.714   4.977   2.051  0.8919  0.4195 -0.3288
 9467TIP3    H249817   1.733   5.074   2.166 -0.4149  0.9644 -0.5612
 9468TIP3   OH249818   5.836   2.799  16.466  0.2470  0.3727  0.3254
 9468TIP3    H149819   5.910   2.811  16.526  0.8498  1.6477 -0.6184
 9468TIP3    H249820   5.877   2.773  16.384 -0.4392  0.1142  0.0629
 9469TIP3   OH249821   6.520   3.586   5.565  0.1023  0.8120  0.3086
 9469TIP3    H149822   6.587   3.570   5.632  0.7113  2.3929  0.1138
 9469TIP3    H249823   6.569   3.598   5.484 -0.5846 -0.3067 -0.2975
 9470TIP3   OH249824   5.246   3.502  12.740 -0.2963 -0.3912 -0.0905
 9470TIP3    H149825   5.190   3.529  12.667  0.7084  0.4918 -0.5548
 9470TIP3    H249826   5.235   3.407  12.744 -0.3128 -0.4662 -1.4424
 9471TIP3   OH249827   5.743   0.446  15.528 -0.1481 -0.1330  0.3317
 9471TIP3    H149828   5.682   0.388  15.483  0.2503 -0.8303  0.6888
 9471TIP3    H249829   5.695   0.476  15.605  0.4523 -1.8320  1.4012
 9472TIP3   OH249830   4.637   5.776   4.661 -0.3293 -0.3074  0.3143
 9472TIP3    H149831   4.672   5.768   4.749 -0.5186  1.0603  0.5397
 9472TIP3    H249832   4.542   5.778   4.673 -0.3725 -0.6063  0.0307
 9473TIP3   OH249833   6.446   3.919  16.590  0.0241 -0.1921 -0.1934
 9473TIP3    H149834   6.510   3.857  16.556  0.1955 -1.4474  2.1709
 9473TIP3    H249835   6.364   3.870  16.593 -0.7629  0.9284 -1.7621
 9474TIP3   OH249836   2.536   6.276   6.330 -0.2724 -0.1082  0.4744
 9474TIP3    H149837   2.460   6.221   6.349  0.6948 -1.2169  1.2524
 9474TIP3    H249838   2.537   6.340   6.402 -0.2443 -0.3445  0.6856
 9475TIP3   OH249839   3.013   4.375   1.809 -0.1595 -0.0831  0.1856
 9475TIP3    H149840   2.973   4.431   1.743  0.9573  1.7000  0.9316
 9475TIP3    H249841   2.939   4.340   1.858 -0.9224  0.2260 -0.7081
 9476TIP3   OH249842   4.085   4.300   1.789  0.1265 -0.2626 -0.1898
 9476TIP3    H149843   4.018   4.241   1.824 -1.0992  1.1537 -0.0322
 9476TIP3    H249844   4.164   4.248   1.786 -0.6094 -1.5250  1.1936
 9477TIP3   OH249845   0.212   1.984   4.213  0.1398  0.3371  0.8529
 9477TIP3    H149846   0.302   2.012   4.228  0.3823 -1.2613  2.9695
 9477TIP3    H249847   0.215   1.889   4.225 -1.4314 -0.0857 -1.4158
 9478TIP3   OH249848   0.044   5.056  13.000 -0.2182  0.3398 -0.1977
 9478TIP3    H149849   0.099   5.072  12.924 -0.6633 -1.4527 -0.9476
 9478TIP3    H249850  -0.022   4.994  12.969 -1.3809  0.7906  1.2400
 9479TIP3   OH249851   1.275   2.823   4.151  0.0766 -0.1984  0.0039
 9479TIP3    H149852   1.251   2.909   4.117 -0.1615  0.0882  0.8753
 9479TIP3    H249853   1.356   2.838   4.200  0.0806 -0.4902  0.0874
 9480TIP3   OH249854   2.431   0.440  15.424 -0.2755 -0.1878  0.2790
 9480TIP3    H149855   2.419   0.527  15.462  0.2521 -0.9729  2.3782
 9480TIP3    H249856   2.353   0.426  15.370  0.0368  1.8894 -0.8200
 9481TIP3   OH249857   3.810   6.114  16.617  0.6146  0.1681 -0.4643
 9481TIP3    H149858   3.796   6.178  16.547  2.9063 -0.1886 -1.3142
 9481TIP3    H249859   3.733   6.058  16.614 -1.2144  2.4882 -0.0563
 9482TIP3   OH249860   4.476   5.761  16.393  0.3417  0.2870 -0.4822
 9482TIP3    H149861   4.464   5.687  16.333  2.4710  0.0624 -0.6973
 9482TIP3    H249862   4.508   5.723  16.474 -1.7330  0.6835  0.5905
 9483TIP3   OH249863   1.873   4.914   4.700  0.1036  0.2010  0.5852
 9483TIP3    H149864   1.789   4.939   4.662 -0.4839  0.5438  2.0479
 9483TIP3    H249865   1.884   4.822   4.676 -1.1095 -0.0884  1.1153
 9484TIP3   OH249866   1.413   5.837  12.046  0.2052 -0.6778  0.2848
 9484TIP3    H149867   1.476   5.864  11.979 -2.1089 -0.7147 -2.0485
 9484TIP3    H249868   1.361   5.769  12.004 -1.2701 -0.8268  2.1988
 9485TIP3   OH249869   6.025   4.343   5.138  0.2160  0.3700  0.3265
 9485TIP3    H149870   6.015   4.416   5.078 -2.6709 -0.4447 -0.3098
 9485TIP3    H249871   5.949   4.347   5.195  2.5144  0.7188  3.6346
 9486TIP3   OH249872   1.929   4.223  12.354  0.0653 -0.0435 -0.1354
 9486TIP3    H149873   1.843   4.199  12.320  0.2272 -0.5842 -0.1814
 9486TIP3    H249874   1.929   4.318  12.357  0.3171  0.0752 -2.3595
 9487TIP3   OH249875   5.252   1.502   6.322 -0.3879 -0.1535 -0.7167
 9487TIP3    H149876   5.263   1.597   6.322  1.3533 -0.3330 -0.8928
 9487TIP3    H249877   5.159   1.489   6.301 -1.4625  1.5412  2.3906
 9488TIP3   OH249878   5.859   4.213   3.677 -0.8515 -0.7903 -0.4417
 9488TIP3    H149879   5.922   4.235   3.609 -1.3892 -0.7112 -0.9178
 9488TIP3    H249880   5.837   4.121   3.662 -1.6743 -0.5219 -0.9623
 9489TIP3   OH249881   5.642   2.588  11.791 -0.0861 -0.7991 -0.1956
 9489TIP3    H149882   5.578   2.626  11.852  0.8918 -0.7133  0.7976
 9489TIP3    H249883   5.640   2.647  11.715  1.0130  1.0145  1.0875
 9490TIP3   OH249884   2.255   6.358  16.606 -0.1636 -0.9070  0.4174
 9490TIP3    H149885   2.231   6.311  16.526  2.2276  0.3285 -1.1263
 9490TIP3    H249886   2.215   6.444  16.596 -1.8719 -1.4773  1.7648
 9491TIP3   OH249887   3.295   0.033  12.687  0.1494 -0.5383  0.0025
 9491TIP3    H149888   3.283  -0.049  12.639  0.2335 -0.3115 -0.4072
 9491TIP3    H249889   3.349   0.009  12.762 -0.4611 -1.0065  0.3042
 9492TIP3   OH249890   4.482   3.971   5.747  0.1216 -0.3482  0.6384
 9492TIP3    H149891   4.432   3.984   5.666  1.1903  0.4035  0.0760
 9492TIP3    H249892   4.530   4.053   5.759 -1.0536  0.0756  2.7989
 9493TIP3   OH249893   2.167   5.516   4.400 -0.2474  0.1402 -0.1185
 9493TIP3    H149894   2.118   5.540   4.479 -0.5986  3.1339 -1.0862
 9493TIP3    H249895   2.119   5.559   4.329  0.3059 -2.0857 -1.9545
 9494TIP3   OH249896   0.181   1.003   4.482  0.4600 -0.0738  0.6417
 9494TIP3    H149897   0.126   1.080   4.472  0.0020 -0.5656 -0.9744
 9494TIP3    H249898   0.264   1.027   4.440 -0.0030 -0.7350 -0.7147
 9495TIP3   OH249899   3.726   3.115   1.511 -0.3759  0.0879  0.0481
 9495TIP3    H149900   3.715   3.032   1.464 -1.3126  0.9050 -1.2503
 9495TIP3    H249901   3.786   3.166   1.455 -2.2252  1.4327 -0.8062
 9496TIP3   OH249902   5.811   3.560   5.781 -0.4524 -0.5218 -0.0858
 9496TIP3    H149903   5.789   3.589   5.870  0.1628  2.4622 -0.7982
 9496TIP3    H249904   5.884   3.616   5.755 -2.6115  1.0573 -3.5667
 9497TIP3   OH249905   0.688   5.892   0.143  0.3151  0.5697  0.5522
 9497TIP3    H149906   0.693   5.825   0.074 -0.2244  1.8788 -0.8084
 9497TIP3    H249907   0.775   5.892   0.183  0.5006 -0.5251  0.1838
 9498TIP3   OH249908   1.100   6.606  12.781 -0.1639  0.0780  0.8065
 9498TIP3    H149909   1.180   6.613  12.729 -0.6312  1.2550  0.2046
 9498TIP3    H249910   1.127   6.631  12.870  0.3289 -0.4812  0.8194
 9499TIP3   OH249911   3.971   3.111   5.320 -0.5604  0.0775  0.3174
 9499TIP3    H149912   3.958   3.034   5.375  1.6830  0.1708  1.0797
 9499TIP3    H249913   3.927   3.182   5.368  0.1321 -0.1289  1.2948
 9500TIP3   OH249914   3.941   0.048  13.598 -0.1475  0.2927 -0.3255
 9500TIP3    H149915   3.911  -0.007  13.670  0.2204 -1.6174 -1.5734
 9500TIP3    H249916   3.922   0.137  13.628 -1.7574 -0.5169  1.3308
 9501TIP3   OH249917   4.235   4.531  11.846  0.0824 -0.1973  0.2248
 9501TIP3    H149918   4.161   4.544  11.786 -0.2670  0.5119  0.7945
 9501TIP3    H249919   4.310   4.565  11.799  0.3633 -2.2590 -0.9746
 9502TIP3   OH249920   2.603   5.221  16.237 -0.0924 -0.2526 -0.0861
 9502TIP3    H149921   2.532   5.174  16.192 -0.1442 -0.3791  0.1283
 9502TIP3    H249922   2.606   5.183  16.324  0.3583 -0.3676 -0.1482
 9503TIP3   OH249923   0.322   4.739  13.941 -0.1274  0.2155 -0.1961
 9503TIP3    H149924   0.326   4.784  13.857 -0.3365 -0.2861 -0.4753
 9503TIP3    H249925   0.240   4.770  13.981 -1.5784 -1.7580 -1.4593
 9504TIP3   OH249926   0.674   0.742   4.879  0.2362 -0.3482  0.0074
 9504TIP3    H149927   0.660   0.798   4.955  2.4916 -0.4494  0.5779
 9504TIP3    H249928   0.661   0.799   4.804 -0.3965  0.1789  0.5106
 9505TIP3   OH249929   4.169   2.017   4.533  0.0112 -0.1545 -0.1777
 9505TIP3    H149930   4.170   1.927   4.499 -1.7489 -0.1353 -0.4038
 9505TIP3    H249931   4.102   2.061   4.480 -0.4434  0.7810  1.1342
 9506TIP3   OH249932   5.361   3.190  15.511 -0.2974 -0.0932  0.1140
 9506TIP3    H149933   5.334   3.175  15.601  0.9836 -0.4361  0.4688
 9506TIP3    H249934   5.318   3.121  15.461 -1.9529  0.7984  0.2621
 9507TIP3   OH249935   0.791   1.348   1.222  0.0625 -0.7865  0.2941
 9507TIP3    H149936   0.854   1.276   1.214  1.6024  0.5338 -0.0294
 9507TIP3    H249937   0.706   1.307   1.207  0.9698 -2.3551 -0.9232
 9508TIP3   OH249938   0.675   3.893  13.484  0.3505 -0.0207 -0.3439
 9508TIP3    H149939   0.755   3.923  13.527  0.4246 -0.2096 -0.3514
 9508TIP3    H249940   0.699   3.881  13.392  0.7618 -1.7112 -0.0401
 9509TIP3   OH249941   4.750   1.297  12.296  0.4719  0.5667 -0.6990
 9509TIP3    H149942   4.798   1.275  12.216 -0.2646  2.2825 -1.6574
 9509TIP3    H249943   4.661   1.316  12.267 -0.3649 -0.7829  0.8175
 9510TIP3   OH249944   6.378   0.513  11.941 -0.1640 -0.3565 -0.1387
 9510TIP3    H149945   6.455   0.476  11.984 -0.3669 -0.8132 -0.1689
 9510TIP3    H249946   6.358   0.592  11.992  1.2824  0.6778 -1.0950
 9511TIP3   OH249947   3.603   0.358   3.526  0.2097 -0.0070  0.4426
 9511TIP3    H149948   3.541   0.390   3.591 -1.5343 -0.7633 -0.7720
 9511TIP3    H249949   3.555   0.361   3.443  0.6595 -3.5350 -0.0922
 9512TIP3   OH249950   1.267   0.934   1.599 -0.2766  0.5783  1.0103
 9512TIP3    H149951   1.284   0.840   1.590 -0.7085  0.5879 -0.0668
 9512TIP3    H249952   1.268   0.949   1.693  2.2901 -0.0184  1.1407
 9513TIP3   OH249953   6.109   3.305   6.406  0.1979 -0.8898  0.5092
 9513TIP3    H149954   6.147   3.217   6.415 -0.5428 -1.1485  1.2073
 9513TIP3    H249955   6.142   3.354   6.481  0.2986 -0.6785  0.3299
 9514TIP3   OH249956   3.187   4.257   4.225  0.0711  0.1875  0.0318
 9514TIP3    H149957   3.274   4.292   4.243 -0.1616  0.3344  0.9129
 9514TIP3    H249958   3.132   4.291   4.295 -0.8546  0.6355 -0.8797
 9515TIP3   OH249959   2.635   3.440   4.798 -0.5584 -0.1931 -0.2308
 9515TIP3    H149960   2.680   3.358   4.775 -1.5036 -0.9778  0.6252
 9515TIP3    H249961   2.671   3.464   4.883 -2.3766 -1.3752  0.9555
 9516TIP3   OH249962   0.941   3.007  13.778  0.5177  0.4013 -0.1181
 9516TIP3    H149963   0.891   3.036  13.854 -0.5319 -2.4332  0.4010
 9516TIP3    H249964   1.025   3.051  13.786 -0.6303  2.5877  0.9140
 9517TIP3   OH249965   5.067   6.365  17.200 -0.2312 -0.0577  0.1427
 9517TIP3    H149966   4.993   6.305  17.211 -1.3363  1.0693 -0.7862
 9517TIP3    H249967   5.144   6.314  17.224 -1.2103 -1.6140  0.0770
 9518TIP3   OH249968   3.812   3.294  14.793 -0.0572 -0.0803 -0.2345
 9518TIP3    H149969   3.721   3.320  14.780 -0.4202 -1.1024  0.2189
 9518TIP3    H249970   3.861   3.347  14.730 -1.0202  0.0594 -0.8825
 9519TIP3   OH249971   2.724   6.148   4.518 -0.2740 -0.1219 -0.1078
 9519TIP3    H149972   2.805   6.182   4.480  0.0061 -0.6728 -0.0040
 9519TIP3    H249973   2.661   6.220   4.507  0.6782  1.0000  1.3965
 9520TIP3   OH249974   6.408   4.674   2.079 -0.0837 -0.4301 -0.1353
 9520TIP3    H149975   6.364   4.597   2.044 -1.4372  0.6447 -0.8693
 9520TIP3    H249976   6.457   4.640   2.155 -1.0490 -1.9176 -0.1234
 9521TIP3   OH249977   1.671   3.236  15.925 -0.1973  0.1813  0.1824
 9521TIP3    H149978   1.741   3.283  15.879 -0.2374 -1.1723 -1.3139
 9521TIP3    H249979   1.704   3.228  16.015 -0.0428  2.7059  0.4132
 9522TIP3   OH249980   4.310   0.990   4.622  0.2174 -0.4182  0.4740
 9522TIP3    H149981   4.341   0.943   4.699  0.2165 -1.0565  0.0975
 9522TIP3    H249982   4.258   1.062   4.656  0.0710 -0.8014  1.0653
 9523TIP3   OH249983   1.455   0.010  15.284  0.1898 -0.5172 -0.4376
 9523TIP3    H149984   1.435  -0.078  15.251 -0.3857 -0.3537 -0.5362
 9523TIP3    H249985   1.497  -0.006  15.369 -2.1287 -0.8726  0.7479
 9524TIP3   OH249986   0.995   5.604  11.246 -0.2184  0.1456  0.4274
 9524TIP3    H149987   0.973   5.569  11.332  0.3759 -0.6812  0.2537
 9524TIP3    H249988   1.064   5.547  11.214 -0.7199  0.1898 -0.7805
 9525TIP3   OH249989   5.459   1.440   2.858  0.4862 -0.0192 -0.3664
 9525TIP3    H149990   5.473   1.346   2.845  0.3916  0.0979 -1.3868
 9525TIP3    H249991   5.442   1.449   2.952 -0.2900 -1.1311 -0.3775
 9526TIP3   OH249992   0.737   1.887  13.132  0.5034 -0.3975  0.3401
 9526TIP3    H149993   0.679   1.939  13.188 -0.9823 -0.7162 -0.8303
 9526TIP3    H249994   0.688   1.806  13.115  2.1090 -1.5221  0.8408
 9527TIP3   OH249995   2.529   4.162  12.257  0.4969 -0.0576 -0.5339
 9527TIP3    H149996   2.458   4.225  12.247  1.0296  0.6328 -0.0219
 9527TIP3    H249997   2.535   4.119  12.171  0.8207  1.3104 -1.2154
 9528TIP3   OH249998   3.548   1.858   1.170  0.3192  0.5038  0.1347
 9528TIP3    H149999   3.486   1.930   1.170 -2.1861 -1.4847  1.5628
 9528TIP3    H250000   3.547   1.826   1.079 -1.2802  0.1359  0.2530
 9529TIP3   OH250001   0.331   5.762  15.008  0.1638  0.0537 -0.2913
 9529TIP3    H150002   0.267   5.833  15.006 -0.2223 -0.2881 -0.1918
 9529TIP3    H250003   0.376   5.768  14.924  0.1141  0.3995 -0.2939
 9530TIP3   OH250004   0.574   5.709  16.846  0.0871  0.0412 -0.3214
 9530TIP3    H150005   0.658   5.691  16.889 -0.5560 -0.3194  0.8337
 9530TIP3    H250006   0.560   5.635  16.788  0.8750  0.4270 -1.0166
 9531TIP3   OH250007   2.999   0.970   1.012 -0.2303 -0.4387 -0.2396
 9531TIP3    H150008   3.001   0.876   1.034 -0.9702 -0.4359 -0.1359
 9531TIP3    H250009   2.979   0.972   0.919 -1.2339 -0.3746 -0.0355
 9532TIP3   OH250010   2.680   6.021  11.107 -0.5584  0.5112 -0.4940
 9532TIP3    H150011   2.600   5.972  11.090 -1.5912  1.2784  1.7411
 9532TIP3    H250012   2.688   6.080  11.032 -1.1529 -0.7007 -1.5553
 9533TIP3   OH250013   5.745   0.456   1.729 -0.5669  0.2614  0.3108
 9533TIP3    H150014   5.680   0.523   1.710 -1.5825 -0.8497 -0.2977
 9533TIP3    H250015   5.754   0.407   1.648 -1.2748 -1.4829  1.2168
 9534TIP3   OH250016   3.495   1.959  12.779 -0.6363 -0.3500  0.5952
 9534TIP3    H150017   3.539   1.969  12.695 -0.6893 -3.0515  0.1564
 9534TIP3    H250018   3.440   2.037  12.787  1.9471  1.7102 -0.1731
 9535TIP3   OH250019   1.204   6.720   0.844  0.0238 -0.0330 -0.5006
 9535TIP3    H150020   1.218   6.683   0.931 -0.7354  0.2438 -0.2497
 9535TIP3    H250021   1.291   6.723   0.804  0.1961 -1.5725 -0.3210
 9536TIP3   OH250022   0.129   3.039   4.566 -0.5304  0.0803  0.3212
 9536TIP3    H150023   0.056   3.047   4.505 -1.4093  1.9192  1.5311
 9536TIP3    H250024   0.185   2.971   4.527 -1.7406  0.1823 -1.7735
 9537TIP3   OH250025   4.689   6.180  13.736  0.5333 -0.3200 -0.1401
 9537TIP3    H150026   4.750   6.242  13.777 -1.0464  1.9545 -1.0512
 9537TIP3    H250027   4.603   6.211  13.763 -0.3203 -2.3611 -0.3805
 9538TIP3   OH250028   3.180   1.084  16.041 -0.3932 -0.0089 -0.4938
 9538TIP3    H150029   3.106   1.025  16.057  0.3707 -0.6178  0.8982
 9538TIP3    H250030   3.257   1.034  16.066  0.5675  0.4944 -2.2418
 9539TIP3   OH250031   3.050   2.014  11.996  0.3744  0.2066 -0.6089
 9539TIP3    H150032   3.115   1.979  11.934 -1.5043 -1.3992 -1.8031
 9539TIP3    H250033   3.072   2.106  12.005  2.8508 -0.2940 -0.8849
 9540TIP3   OH250034   6.082   0.139  16.225 -0.0641  0.7084  0.0651
 9540TIP3    H150035   6.029   0.163  16.301 -1.3798 -0.2291 -0.5129
 9540TIP3    H250036   6.134   0.217  16.206 -0.6387  1.3796  1.1614
 9541TIP3   OH250037   2.419   0.292   5.362 -0.4914  0.2833  0.4261
 9541TIP3    H150038   2.449   0.335   5.282  0.0187  1.2885  1.1207
 9541TIP3    H250039   2.423   0.361   5.428 -0.8101 -0.5503  1.3377
 9542TIP3   OH250040   0.372   5.458  16.752 -0.6926 -0.3837 -0.6169
 9542TIP3    H150041   0.306   5.512  16.796 -2.5030 -1.5496 -1.8007
 9542TIP3    H250042   0.400   5.396  16.819 -0.0214  0.7387  0.1847
 9543TIP3   OH250043   2.547   6.664  16.134 -0.0128 -0.1516  0.0188
 9543TIP3    H150044   2.549   6.727  16.206 -0.0629  0.4330 -0.4834
 9543TIP3    H250045   2.613   6.599  16.157 -0.4819 -0.3359  0.9130
 9544TIP3   OH250046   6.231   4.532  16.482  0.1492 -0.4199  0.3021
 9544TIP3    H150047   6.245   4.483  16.400 -0.6545 -0.9285  0.4567
 9544TIP3    H250048   6.145   4.503  16.513 -0.0013  0.5295  0.8053
 9545TIP3   OH250049   4.793   1.675   4.520 -0.0381  0.2673 -0.4456
 9545TIP3    H150050   4.744   1.593   4.523 -0.7734  0.7342  0.6231
 9545TIP3    H250051   4.742   1.731   4.462 -0.3700  0.4878  0.0522
 9546TIP3   OH250052   4.820   0.049  11.511  0.1817 -0.4627 -0.4838
 9546TIP3    H150053   4.904   0.069  11.469  1.1148 -0.3484  1.3208
 9546TIP3    H250054   4.824  -0.046  11.528 -0.3000 -0.5578 -0.8904
 9547TIP3   OH250055   4.160   4.759   1.292  0.1950  0.3142  0.1647
 9547TIP3    H150056   4.220   4.685   1.292  0.4802  0.5361 -0.2496
 9547TIP3    H250057   4.215   4.835   1.272 -0.4348  0.3255 -1.7273
 9548TIP3   OH250058   3.499   2.257  11.047  0.4197 -0.2122  0.0118
 9548TIP3    H150059   3.461   2.170  11.055  0.0940 -0.2021 -1.1779
 9548TIP3    H250060   3.509   2.270  10.953 -0.4497  1.4177  0.1084
 9549TIP3   OH250061   2.204   2.432  11.818 -0.2850 -0.3731 -0.5611
 9549TIP3    H150062   2.250   2.509  11.852  0.6479 -0.9824 -0.3916
 9549TIP3    H250063   2.250   2.411  11.737  0.3018 -1.4877  0.0354
 9550TIP3   OH250064   5.449   1.852   5.676 -0.0493  0.4134 -0.6842
 9550TIP3    H150065   5.538   1.828   5.650  1.1133  3.3113  0.1986
 9550TIP3    H250066   5.397   1.842   5.596  0.4296 -3.5005 -0.7026
 9551TIP3   OH250067   5.723   4.931   5.814 -0.6313 -0.1503  0.1693
 9551TIP3    H150068   5.729   4.990   5.889  0.4281  0.9962 -0.7584
 9551TIP3    H250069   5.681   4.852   5.848  1.6354 -0.4948  2.4630
 9552TIP3   OH250070   5.561   3.737   0.498 -0.1306  0.1351 -0.4858
 9552TIP3    H150071   5.558   3.655   0.448  1.9602 -0.0410 -0.4447
 9552TIP3    H250072   5.531   3.804   0.437  1.4189 -0.2163 -1.7199
 9553TIP3   OH250073   4.825   0.903  16.937 -0.2997  0.7652  0.1027
 9553TIP3    H150074   4.864   0.965  16.876  0.7251 -0.1440 -0.1958
 9553TIP3    H250075   4.890   0.892  17.006  0.1357 -0.9556 -0.5248
 9554TIP3   OH250076   6.260   0.934  15.105 -0.3945 -0.1153  0.1482
 9554TIP3    H150077   6.186   0.971  15.056 -0.1541 -0.9644 -0.9004
 9554TIP3    H250078   6.268   0.990  15.182 -2.2892 -0.1510  0.4263
 9555TIP3   OH250079   6.410   3.142   6.197 -0.2725 -0.5942 -0.0266
 9555TIP3    H150080   6.340   3.114   6.256  0.2404 -0.3919  0.6963
 9555TIP3    H250081   6.475   3.182   6.255 -0.1806  0.4684 -0.8262
 9556TIP3   OH250082   2.050   2.930  15.816 -0.5588  0.3398 -0.0555
 9556TIP3    H150083   2.042   2.962  15.906 -1.0706 -1.3886  0.5531
 9556TIP3    H250084   1.976   2.871  15.805 -0.0211 -0.1255 -1.3290
 9557TIP3   OH250085   6.425   3.001   1.232 -0.1866 -0.2910  0.1042
 9557TIP3    H150086   6.382   2.949   1.301  0.7552 -1.0096  0.1797
 9557TIP3    H250087   6.449   3.083   1.276  0.4930 -0.7807  0.6789
 9558TIP3   OH250088   2.300   0.675   4.648 -0.1188 -0.0549  0.1399
 9558TIP3    H150089   2.370   0.615   4.676 -1.2498 -0.7585  1.6591
 9558TIP3    H250090   2.246   0.622   4.589  0.8758  0.6470 -1.4433
 9559TIP3   OH250091   0.385   3.607  11.685 -0.0052 -0.4975 -0.2184
 9559TIP3    H150092   0.303   3.564  11.658  0.6145 -1.7761 -0.1239
 9559TIP3    H250093   0.406   3.665  11.612 -1.8462  1.1452  0.4463
 9560TIP3   OH250094   1.901   4.825  15.704  0.1948  0.0919  0.4754
 9560TIP3    H150095   1.951   4.906  15.693  1.3002 -0.5964  0.2619
 9560TIP3    H250096   1.886   4.819  15.798  1.4072 -0.1947  0.6675
 9561TIP3   OH250097   5.583   2.998  10.890  0.4607 -0.1783  0.2085
 9561TIP3    H150098   5.491   3.006  10.916  1.0989  1.0663  2.4230
 9561TIP3    H250099   5.584   2.930  10.823 -2.1754  0.3971 -0.5149
 9562TIP3   OH250100   0.802   5.492   1.329 -0.1694 -0.6237  0.5902
 9562TIP3    H150101   0.785   5.434   1.255  1.2150  0.2977 -0.5086
 9562TIP3    H250102   0.878   5.454   1.373  0.8490  0.3916 -0.2338
 9563TIP3   OH250103   2.039   3.972   4.722  0.0070 -0.0582 -0.1785
 9563TIP3    H150104   2.047   4.005   4.632 -1.2314 -2.0505 -1.0707
 9563TIP3    H250105   2.094   4.032   4.773 -0.0307  1.7379 -2.0775
 9564TIP3   OH250106   6.187   4.014   3.241 -0.1390 -1.0933 -0.0735
 9564TIP3    H150107   6.121   3.955   3.205 -1.1689 -0.4650  0.7280
 9564TIP3    H250108   6.247   3.957   3.289  0.2073 -1.7250 -1.2120
 9565TIP3   OH250109   6.605   1.282  13.542 -0.5623 -0.3023  0.1972
 9565TIP3    H150110   6.613   1.282  13.638 -0.1634 -0.8687  0.1691
 9565TIP3    H250111   6.546   1.208  13.524 -0.3932 -0.3851 -0.0122
 9566TIP3   OH250112   3.359   0.455   6.612 -0.3107  0.1610 -0.1731
 9566TIP3    H150113   3.317   0.471   6.528 -0.0101  2.4322  0.0384
 9566TIP3    H250114   3.342   0.534   6.663  2.8412  0.5606  0.4680
 9567TIP3   OH250115   2.117   6.725  15.433  0.6173  0.7911  0.0536
 9567TIP3    H150116   2.203   6.697  15.464 -0.9375 -3.4214  1.1782
 9567TIP3    H250117   2.107   6.685  15.347 -0.8574 -0.3627  0.7179
 9568TIP3   OH250118   0.129   5.583  16.087 -0.0163  0.0821  0.0688
 9568TIP3    H150119   0.206   5.552  16.135 -1.3832 -2.3213  0.8866
 9568TIP3    H250120   0.153   5.574  15.995  0.4020 -1.5857  0.3028
 9569TIP3   OH250121   0.440   1.435   5.068  0.6767  0.0900 -0.0562
 9569TIP3    H150122   0.426   1.434   5.162 -3.4587  1.3333 -0.4350
 9569TIP3    H250123   0.397   1.356   5.036 -0.5236  1.0920 -1.0459
 9570TIP3   OH250124   1.228   2.027   1.974  0.2890 -0.3716 -0.0602
 9570TIP3    H150125   1.135   2.042   1.956  0.5859  0.2947 -1.0613
 9570TIP3    H250126   1.257   2.105   2.020  0.6734  0.0264 -0.9631
 9571TIP3   OH250127   6.747   4.955   5.819 -0.3270  0.3542  0.2716
 9571TIP3    H150128   6.672   4.960   5.760 -1.1490 -1.2914  1.0980
 9571TIP3    H250129   6.714   4.989   5.902 -0.0982 -0.1429  0.5714
 9572TIP3   OH250130   0.753   5.534  15.713  0.2928 -0.0165 -0.2240
 9572TIP3    H150131   0.838   5.493  15.697 -0.6247 -1.5022 -1.5745
 9572TIP3    H250132   0.750   5.546  15.808  1.4916 -1.1030 -0.0195
 9573TIP3   OH250133   5.239   5.794   6.096 -0.4550  0.1741 -0.2444
 9573TIP3    H150134   5.212   5.707   6.068  0.7173 -0.3045  0.0346
 9573TIP3    H250135   5.234   5.847   6.017  1.9778 -0.9545 -1.2551
 9574TIP3   OH250136   5.250   4.211   0.173 -0.3535  0.1879  0.2824
 9574TIP3    H150137   5.230   4.280   0.236 -1.1000  0.3962 -0.1788
 9574TIP3    H250138   5.309   4.252   0.110 -0.8724  0.4301 -0.0441
 9575TIP3   OH250139   1.786   1.315   1.679  0.5834  0.1836 -0.1957
 9575TIP3    H150140   1.805   1.332   1.587  1.2297  1.6080  0.1718
 9575TIP3    H250141   1.762   1.400   1.715  0.2454 -0.3681  0.9422
 9576TIP3   OH250142   2.567   4.639   5.817 -0.1837  0.4349  0.5266
 9576TIP3    H150143   2.511   4.654   5.893 -0.9789  0.9876 -0.1394
 9576TIP3    H250144   2.564   4.722   5.769 -0.6201 -0.2532 -0.6894
 9577TIP3   OH250145   1.556   4.525  13.884  0.0279  0.6446  0.0781
 9577TIP3    H150146   1.487   4.556  13.942 -1.8631 -3.7239  0.5079
 9577TIP3    H250147   1.597   4.453  13.931  2.1663  0.4602 -1.8665
 9578TIP3   OH250148   3.917   3.473   6.457  0.2388  0.3037 -0.2809
 9578TIP3    H150149   3.942   3.527   6.533  0.8040 -1.9878  1.2749
 9578TIP3    H250150   3.822   3.464   6.465  0.0760  1.4015 -0.8169
 9579TIP3   OH250151   0.063   3.219  12.336  0.4003 -0.4366  0.0655
 9579TIP3    H150152   0.034   3.298  12.381  1.2277  0.1935 -0.4815
 9579TIP3    H250153   0.002   3.151  12.365 -3.0591  1.1953 -2.6491
 9580TIP3   OH250154   5.900   5.075  11.812 -0.3868 -0.1552 -0.6017
 9580TIP3    H150155   5.820   5.023  11.815 -0.6288  0.2466  2.0192
 9580TIP3    H250156   5.873   5.160  11.779 -0.5381 -0.7427 -2.0621
 9581TIP3   OH250157   5.024   0.316  13.456  0.0071 -0.5192  0.9224
 9581TIP3    H150158   4.940   0.339  13.495 -1.6273  0.4555 -2.8049
 9581TIP3    H250159   5.032   0.222  13.469 -1.6229 -0.6141  1.3537
 9582TIP3   OH250160   1.786   1.966   4.050  0.4282  0.9513  0.1996
 9582TIP3    H150161   1.741   1.993   3.970  2.5548 -0.0030 -1.4378
 9582TIP3    H250162   1.820   1.879   4.029 -0.9655 -0.4141  3.0459
 9583TIP3   OH250163   6.081   4.587  12.516  0.7285  0.2827 -0.1943
 9583TIP3    H150164   6.110   4.507  12.473 -0.3138  0.4957 -1.3657
 9583TIP3    H250165   6.088   4.568  12.609  0.2764 -1.2749 -0.4443
 9584TIP3   OH250166   1.896   4.951   0.342 -0.2025 -0.0894  0.6093
 9584TIP3    H150167   1.886   5.014   0.271 -2.0531 -0.0097  0.8712
 9584TIP3    H250168   1.815   4.899   0.338 -0.2310 -0.2462  2.4828
 9585TIP3   OH250169   2.710   4.146  11.635  0.1439  0.4500 -0.8633
 9585TIP3    H150170   2.714   4.062  11.589 -2.9921  0.3191 -1.1167
 9585TIP3    H250171   2.692   4.210  11.566  1.0356  1.1539 -0.4691
 9586TIP3   OH250172   4.017   3.585  11.760 -0.4338  0.1463 -0.0872
 9586TIP3    H150173   4.037   3.640  11.685 -0.5423  1.7119  0.9924
 9586TIP3    H250174   3.940   3.626  11.801 -1.4083 -1.6175 -0.0429
 9587TIP3   OH250175   4.642   6.571   1.372 -0.2395 -0.1474  0.3042
 9587TIP3    H150176   4.619   6.492   1.422 -0.4853  0.8947  1.8984
 9587TIP3    H250177   4.618   6.549   1.282 -0.7516 -1.7214  0.7807
 9588TIP3   OH250178   3.629   4.183  12.075  0.2071  0.2568 -0.1011
 9588TIP3    H150179   3.650   4.247  12.007 -0.7308 -1.0842 -1.7241
 9588TIP3    H250180   3.534   4.180  12.078  0.2339 -0.3466  0.6644
 9589TIP3   OH250181   5.934   1.483   1.459 -0.4089  0.2503  0.3392
 9589TIP3    H150182   5.899   1.566   1.427  2.1178  0.8375 -1.2316
 9589TIP3    H250183   5.858   1.436   1.492 -2.3415  2.0766 -1.2026
 9590TIP3   OH250184   3.219   6.257  14.272 -0.3593 -0.0452  0.0332
 9590TIP3    H150185   3.153   6.315  14.309 -0.4221  0.2791 -0.5760
 9590TIP3    H250186   3.181   6.226  14.190 -0.3175 -0.9410  0.3389
 9591TIP3   OH250187   6.549   1.938   5.038  0.3591  0.2663  0.1511
 9591TIP3    H150188   6.616   1.958   4.973  0.6899  0.5591  0.5699
 9591TIP3    H250189   6.483   2.006   5.027  0.5399  0.4662  0.2850
 9592TIP3   OH250190   2.390   1.883   0.130  0.5581 -0.0568  0.1917
 9592TIP3    H150191   2.442   1.896   0.051 -0.2569 -1.1560 -0.5575
 9592TIP3    H250192   2.338   1.804   0.112 -0.5962  0.4101  1.3143
 9593TIP3   OH250193   4.187   2.327  15.742 -0.1405  0.0731  0.8926
 9593TIP3    H150194   4.099   2.293  15.756 -0.4933  1.1936  1.5318
 9593TIP3    H250195   4.177   2.393  15.674  0.4535 -0.7414 -0.0024
 9594TIP3   OH250196   2.018   2.787  13.569 -0.1132 -0.5539  0.1587
 9594TIP3    H150197   2.017   2.870  13.522 -0.4100 -1.3606 -1.3190
 9594TIP3    H250198   2.007   2.720  13.501  0.7117 -1.8467  1.2305
 9595TIP3   OH250199   3.181   4.303   3.898  0.2214 -0.3693 -0.0550
 9595TIP3    H150200   3.249   4.236   3.882  0.0604 -0.5928  0.1936
 9595TIP3    H250201   3.109   4.254   3.938 -0.4904 -0.3219 -1.2450
 9596TIP3   OH250202   1.649   1.804   5.640  0.2870 -0.2037  0.2472
 9596TIP3    H150203   1.562   1.808   5.680  0.2471  0.2431  0.1203
 9596TIP3    H250204   1.672   1.711   5.642 -0.5115 -0.4251 -0.3742
 9597TIP3   OH250205   0.336   2.123  16.149 -0.2062  0.5947 -0.4226
 9597TIP3    H150206   0.273   2.148  16.082  0.0449  0.1097 -0.8468
 9597TIP3    H250207   0.409   2.184  16.136 -1.6523  2.9509  1.7944
 9598TIP3   OH250208   3.862   4.897   2.631 -0.3666 -1.3002  0.6546
 9598TIP3    H150209   3.852   4.895   2.726  0.0048 -1.1792  0.6985
 9598TIP3    H250210   3.773   4.890   2.597 -0.5296 -1.0165  1.0175
 9599TIP3   OH250211   2.415   4.050   6.705 -0.1814  0.6399  0.4962
 9599TIP3    H150212   2.321   4.033   6.714 -0.0939  0.3345  0.8886
 9599TIP3    H250213   2.454   4.008   6.782  0.4233 -0.4384 -0.3674
 9600TIP3   OH250214   0.613   0.348   2.303  0.4608  0.0004 -0.7396
 9600TIP3    H150215   0.667   0.420   2.335  0.3399 -0.5711  0.8445
 9600TIP3    H250216   0.651   0.270   2.344 -1.5296 -0.4192  0.3907
 9601TIP3   OH250217   6.563   0.954  16.584 -0.1006 -0.6673  0.0220
 9601TIP3    H150218   6.472   0.930  16.568 -0.2415  0.1675 -0.4998
 9601TIP3    H250219   6.602   0.960  16.497  0.1769 -0.0132  0.1857
 9602TIP3   OH250220   3.845   0.595   1.032  0.1788  0.3079  0.4084
 9602TIP3    H150221   3.820   0.552   1.114 -2.9611 -1.3756 -1.2508
 9602TIP3    H250222   3.806   0.682   1.037  1.4956  0.8869  1.3288
 9603TIP3   OH250223   5.240   0.848  14.023  0.5137 -0.1954 -0.2255
 9603TIP3    H150224   5.173   0.802  14.074 -0.5244  0.6461 -0.7776
 9603TIP3    H250225   5.280   0.908  14.084  1.4726 -1.3835  0.3560
 9604TIP3   OH250226   6.189   1.458   5.900 -0.7494 -0.1365 -0.2098
 9604TIP3    H150227   6.277   1.428   5.923 -0.7846  0.2978  0.5456
 9604TIP3    H250228   6.141   1.459   5.984 -0.9390  1.3576 -0.2991
 9605TIP3   OH250229   2.891   0.612  13.353  0.4871 -0.0693  0.1864
 9605TIP3    H150230   2.852   0.697  13.338  0.9775  0.2827  0.8540
 9605TIP3    H250231   2.859   0.585  13.438  0.8804 -0.2364  0.2864
 9606TIP3   OH250232   6.112   3.103  17.105 -0.1614  0.6897  0.1809
 9606TIP3    H150233   6.094   3.095  17.011  1.4783 -0.3391 -0.0898
 9606TIP3    H250234   6.187   3.045  17.120 -1.3873 -0.4499  2.4497
 9607TIP3   OH250235   1.490   6.608   1.685  0.3976  0.0704 -0.5000
 9607TIP3    H150236   1.534   6.583   1.766  0.3163 -2.0826 -1.0633
 9607TIP3    H250237   1.408   6.559   1.687  0.0601  0.5843 -1.5311
 9608TIP3   OH250238   2.927   5.861   6.776  0.6537 -0.1703 -0.4184
 9608TIP3    H150239   2.837   5.877   6.803  0.3561 -0.5194 -1.1562
 9608TIP3    H250240   2.923   5.777   6.729  1.4423 -0.4109 -0.0821
 9609TIP3   OH250241   4.592   6.267   4.462  0.1893  0.1438 -0.2302
 9609TIP3    H150242   4.642   6.348   4.477 -1.6131  1.1579  0.7382
 9609TIP3    H250243   4.654   6.197   4.479  1.3214  1.3472  0.8363
 9610TIP3   OH250244   3.755   0.936  11.984  0.5947  0.4616 -0.1403
 9610TIP3    H150245   3.752   1.018  11.935  1.9727  0.3564 -0.4348
 9610TIP3    H250246   3.837   0.940  12.033  0.5983 -0.6661 -0.0316
 9611TIP3   OH250247   0.746   3.167   2.381 -0.1682 -0.0660  0.1294
 9611TIP3    H150248   0.687   3.167   2.457 -1.6878  0.0769 -1.0066
 9611TIP3    H250249   0.819   3.111   2.408 -0.8750 -0.3659  1.5380
 9612TIP3   OH250250   4.583   5.198   0.697  0.4650 -0.1748  0.4197
 9612TIP3    H150251   4.503   5.229   0.739 -0.0918 -0.8877 -0.0725
 9612TIP3    H250252   4.608   5.120   0.747  0.6749 -0.1237  0.3935
 9613TIP3   OH250253   5.606   3.801  16.234  0.3444  0.2694  0.3116
 9613TIP3    H150254   5.556   3.720  16.224 -0.2660  0.7898 -1.1896
 9613TIP3    H250255   5.698   3.773  16.229  0.2026 -0.5299  1.6960
 9614TIP3   OH250256   6.247   6.701  13.149 -0.4151 -0.4000  0.5283
 9614TIP3    H150257   6.302   6.659  13.214  0.1126 -0.3933  0.0870
 9614TIP3    H250258   6.276   6.792  13.148  0.3782 -0.6504 -0.5480
 9615TIP3   OH250259   0.724   0.259   3.117 -0.2551 -0.4279  0.2538
 9615TIP3    H150260   0.767   0.174   3.128 -0.9933 -0.9741 -0.8726
 9615TIP3    H250261   0.641   0.250   3.165 -0.5328 -0.5156 -0.2316
 9616TIP3   OH250262   6.598   6.427  15.901  0.0635  0.0066  0.8198
 9616TIP3    H150263   6.506   6.408  15.880  0.3437  1.0263 -1.6745
 9616TIP3    H250264   6.644   6.413  15.819  2.0715  0.1502  1.8689
 9617TIP3   OH250265   2.490   6.267   5.539  0.1497 -0.0512  0.2486
 9617TIP3    H150266   2.499   6.227   5.626  3.5850  1.8355  0.9300
 9617TIP3    H250267   2.543   6.211   5.482 -2.0871 -1.2794 -0.7506
 9618TIP3   OH250268   0.354   2.370  10.660 -0.3856  0.4243 -0.3344
 9618TIP3    H150269   0.306   2.404  10.585 -0.8033  0.5529 -0.0127
 9618TIP3    H250270   0.442   2.408  10.652 -0.1605 -0.2558 -1.2271
 9619TIP3   OH250271   3.531   4.094  16.946  0.0941  0.2033 -0.2895
 9619TIP3    H150272   3.558   4.110  17.037 -0.1786 -1.4159  0.1080
 9619TIP3    H250273   3.610   4.061  16.903 -0.0634 -0.0685 -0.3668
 9620TIP3   OH250274   0.737   5.881  15.857 -0.0119 -0.1926 -0.8029
 9620TIP3    H150275   0.652   5.847  15.885  0.2318 -1.1547 -1.2035
 9620TIP3    H250276   0.716   5.938  15.783 -0.2242 -1.2836 -1.6116
 9621TIP3   OH250277   5.262   4.849  16.474  0.0857 -0.8294  0.0025
 9621TIP3    H150278   5.214   4.931  16.479  0.0150 -0.8636 -0.1277
 9621TIP3    H250279   5.319   4.858  16.398 -0.9456 -1.4511 -0.8590
 9622TIP3   OH250280   2.789   5.152   6.182  0.0663 -0.2671 -0.1203
 9622TIP3    H150281   2.794   5.107   6.266 -0.9046 -0.9875 -0.4287
 9622TIP3    H250282   2.805   5.244   6.203  0.6936 -0.5622  0.7199
 9623TIP3   OH250283   0.501   6.333   4.413  0.1646  0.5107 -0.0965
 9623TIP3    H150284   0.595   6.339   4.430  0.3661  0.3498 -1.0677
 9623TIP3    H250285   0.489   6.382   4.332 -0.8501  1.8910  0.8475
 9624TIP3   OH250286   2.242   6.643   0.903 -0.0512  0.5395  0.3446
 9624TIP3    H150287   2.220   6.698   0.978 -0.5903 -1.4203  1.7249
 9624TIP3    H250288   2.169   6.582   0.897 -0.3395  1.0539 -2.2438
 9625TIP3   OH250289   0.752   4.441   2.712 -0.2459 -0.6257  0.5912
 9625TIP3    H150290   0.719   4.354   2.731  0.2548 -0.9170  0.1696
 9625TIP3    H250291   0.712   4.465   2.629  0.0101 -0.6652  0.4555
 9626TIP3   OH250292   5.314   2.928  12.710 -0.1217  0.3649  0.0357
 9626TIP3    H150293   5.245   2.960  12.652 -1.7183 -0.5619  1.3124
 9626TIP3    H250294   5.299   2.833  12.714  0.9437  0.2102  0.6907
 9627TIP3   OH250295   6.496   4.783   1.372 -0.2108 -0.3051  0.5566
 9627TIP3    H150296   6.431   4.776   1.302 -1.5958 -0.2208  1.8054
 9627TIP3    H250297   6.537   4.697   1.376 -1.3857 -0.8625  0.8309
 9628TIP3   OH250298   0.715   1.709  17.093 -0.0025 -0.1214 -0.3153
 9628TIP3    H150299   0.738   1.649  17.022  1.8172 -0.3378  0.4046
 9628TIP3    H250300   0.720   1.654  17.172  1.4084  0.8841  0.3267
 9629TIP3   OH250301   3.432   6.349  13.550 -0.0728 -0.0714  0.7356
 9629TIP3    H150302   3.438   6.435  13.592 -1.3024  0.5526 -0.2823
 9629TIP3    H250303   3.343   6.346  13.514 -0.2048 -1.9569  1.1144
 9630TIP3   OH250304   3.805   1.413  16.099  0.3200  0.6581  0.0182
 9630TIP3    H150305   3.807   1.384  16.008 -0.3999  1.2111 -0.1823
 9630TIP3    H250306   3.741   1.356  16.141  1.8001 -0.6667  0.5814
 9631TIP3   OH250307   2.099   4.155  12.932 -0.0708  0.0560 -0.2738
 9631TIP3    H150308   2.146   4.209  12.868 -0.6015  1.6930  0.6640
 9631TIP3    H250309   2.165   4.092  12.962  0.0477 -1.1648 -2.8070
 9632TIP3   OH250310   4.743   4.233  16.767 -0.1921  0.2308  0.1922
 9632TIP3    H150311   4.721   4.307  16.825  2.5588  0.8730  0.5359
 9632TIP3    H250312   4.838   4.236  16.760 -0.1750 -2.1205 -1.4113
 9633TIP3   OH250313   3.951   4.547  17.158  0.7831  0.1507  0.6505
 9633TIP3    H150314   4.012   4.585  17.095  1.8588 -0.5978  1.2045
 9633TIP3    H250315   3.944   4.613  17.227 -0.0175  0.7626  0.0115
 9634TIP3   OH250316   5.820   2.824   3.925  0.0592  0.5510 -0.4442
 9634TIP3    H150317   5.904   2.834   3.881  0.7490  2.2814  1.1513
 9634TIP3    H250318   5.840   2.778   4.006 -0.3733  1.7347  0.3560
 9635TIP3   OH250319   2.645   5.243   3.665 -0.1883  0.9568  0.8381
 9635TIP3    H150320   2.685   5.167   3.708 -0.5314  1.3627  1.8992
 9635TIP3    H250321   2.689   5.248   3.580  1.8496  1.2344  1.8461
 9636TIP3   OH250322   4.592   4.960  14.411  0.7542 -0.4354  0.1379
 9636TIP3    H150323   4.541   4.971  14.491  0.5732  0.2191 -0.0617
 9636TIP3    H250324   4.592   5.046  14.370  2.0673 -0.4097  0.1534
 9637TIP3   OH250325   5.031   1.495  12.972 -0.7224  0.0399  0.1047
 9637TIP3    H150326   4.939   1.516  12.988 -1.0116 -1.7800  1.1148
 9637TIP3    H250327   5.057   1.441  13.047  0.9326 -0.1658 -0.5658
 9638TIP3   OH250328   3.349   2.137   3.969 -0.8129 -0.0818 -0.2296
 9638TIP3    H150329   3.313   2.070   3.911  4.4046 -1.1892 -2.7911
 9638TIP3    H250330   3.355   2.215   3.915  1.4419 -0.2883 -0.3785
 9639TIP3   OH250331   1.529   5.547   4.981 -0.0182 -0.5480 -0.3150
 9639TIP3    H150332   1.595   5.491   4.940 -1.0552 -0.7466 -1.7852
 9639TIP3    H250333   1.453   5.491   4.992 -1.0987  0.5046 -1.8729
 9640TIP3   OH250334   4.784   5.189   0.046 -0.3055  0.1222 -0.1803
 9640TIP3    H150335   4.751   5.099   0.040  0.0951 -0.2639  2.3077
 9640TIP3    H250336   4.718   5.242   0.002 -2.5341 -1.0095  1.5771
 9641TIP3   OH250337   1.296   2.902  14.622  0.3681 -0.5472 -0.3475
 9641TIP3    H150338   1.316   2.832  14.560  2.0201  0.1952 -0.7109
 9641TIP3    H250339   1.269   2.856  14.702 -3.0450 -1.5337 -1.8630
 9642TIP3   OH250340   6.034   0.654   3.379 -0.0176  0.4265  0.2138
 9642TIP3    H150341   5.967   0.639   3.446 -2.3822 -0.4546 -2.1544
 9642TIP3    H250342   6.117   0.640   3.424 -1.4760 -0.1876  2.9117
 9643TIP3   OH250343   2.894   0.703  16.368  0.8253  0.1480  0.3147
 9643TIP3    H150344   2.930   0.790  16.386  0.9548  1.1474 -3.9146
 9643TIP3    H250345   2.803   0.708  16.395  0.4239  2.1815 -1.1926
 9644TIP3   OH250346   2.959   2.039  14.909  0.0528  0.2924  0.7968
 9644TIP3    H150347   2.919   1.998  14.832 -0.8098  0.2939  1.2407
 9644TIP3    H250348   2.969   2.131  14.885  0.3030  0.1880  0.4860
 9645TIP3   OH250349   6.663   3.415  12.932 -0.0906 -0.5141 -0.0560
 9645TIP3    H150350   6.679   3.442  13.022 -1.0399 -3.7836  1.2732
 9645TIP3    H250351   6.581   3.459  12.908  0.4231  0.7691  0.4602
 9646TIP3   OH250352   0.055   2.905   3.307 -0.5738 -0.6197 -0.0350
 9646TIP3    H150353   0.103   2.937   3.383  1.3745  0.3930 -1.5889
 9646TIP3    H250354  -0.032   2.944   3.315 -0.6331 -1.0669  1.9567
 9647TIP3   OH250355   3.188   4.126  14.490  0.1671 -0.3002  0.0613
 9647TIP3    H150356   3.275   4.131  14.530  0.1853  0.9899 -0.0994
 9647TIP3    H250357   3.204   4.138  14.396 -0.1166 -0.9088 -0.0740
 9648TIP3   OH250358   3.324   4.955   5.258  0.2345  0.0262  0.2738
 9648TIP3    H150359   3.331   4.860   5.269 -0.1732  0.1702  2.2387
 9648TIP3    H250360   3.412   4.983   5.235  0.8149 -0.6396  1.5752
 9649TIP3   OH250361   1.952   0.464   5.797  0.0852  0.0584 -0.2996
 9649TIP3    H150362   2.015   0.497   5.734 -0.6359 -1.2482 -1.7853
 9649TIP3    H250363   1.925   0.541   5.847  1.1795  1.0091 -1.1238
 9650TIP3   OH250364   0.498   0.392   2.974 -0.5621  0.2952 -0.0750
 9650TIP3    H150365   0.497   0.482   2.940 -0.9028  1.2351  2.2231
 9650TIP3    H250366   0.586   0.381   3.010 -0.6656 -0.1097  0.0576
 9651TIP3   OH250367   0.019   1.431   0.217  0.1137  1.0291 -0.4966
 9651TIP3    H150368   0.072   1.507   0.240  1.2534  0.4853 -1.1832
 9651TIP3    H250369   0.054   1.360   0.272  0.6414  0.4922 -1.4841
 9652TIP3   OH250370   6.238   5.691  13.557  0.6282  0.2689  0.0089
 9652TIP3    H150371   6.154   5.703  13.601  1.2383  1.6660  0.8732
 9652TIP3    H250372   6.271   5.607  13.590 -0.1884 -0.0330  0.0637
 9653TIP3   OH250373   2.033   3.447  16.579  0.4719  0.3518 -0.8520
 9653TIP3    H150374   2.007   3.539  16.574  0.3541  0.3679 -0.0368
 9653TIP3    H250375   2.091   3.435  16.504  0.4684  1.0799 -0.9831
 9654TIP3   OH250376   1.121   1.533   6.664 -0.1869  0.1839  0.2742
 9654TIP3    H150377   1.097   1.459   6.719  1.0449 -0.8798 -0.5347
 9654TIP3    H250378   1.212   1.552   6.688 -0.4881  1.4548  0.4747
 9655TIP3   OH250379   4.274   3.030   4.101 -0.2663  0.4228 -0.6111
 9655TIP3    H150380   4.288   3.102   4.162  1.1303  0.6121 -1.1164
 9655TIP3    H250381   4.186   3.045   4.065 -0.5058  1.1321  0.2407
 9656TIP3   OH250382   1.501   2.208  12.424 -0.0063 -0.5141  0.2361
 9656TIP3    H150383   1.416   2.198  12.382 -0.2221  0.8570  0.3157
 9656TIP3    H250384   1.564   2.178  12.358 -0.3803  1.0585 -0.9022
 9657TIP3   OH250385   1.655   4.937  12.083 -0.7437  0.3264  0.1945
 9657TIP3    H150386   1.577   4.887  12.109  0.6198 -1.7640  0.4816
 9657TIP3    H250387   1.702   4.952  12.165 -0.1563  0.3576 -0.1489
 9658TIP3   OH250388   4.065   2.924  15.508 -0.0926  0.1826  0.1597
 9658TIP3    H150389   4.150   2.959  15.533 -0.9498  1.9105  0.9169
 9658TIP3    H250390   4.028   2.990  15.450 -1.7568  0.5962  1.5694
 9659TIP3   OH250391   5.208   6.687   1.216 -0.1606 -0.0726  0.2829
 9659TIP3    H150392   5.193   6.741   1.294 -2.5623 -1.6063  0.9908
 9659TIP3    H250393   5.129   6.698   1.164  0.0841 -1.4891 -0.4271
 9660TIP3   OH250394   4.683   3.134  15.281  0.0780  0.0068 -0.0760
 9660TIP3    H150395   4.603   3.092  15.311  0.5676 -0.4404  0.6243
 9660TIP3    H250396   4.692   3.106  15.190  0.0871 -0.9477  0.2081
 9661TIP3   OH250397   2.036   5.335  10.403 -0.1735  0.2943  0.1103
 9661TIP3    H150398   2.088   5.330  10.322  0.0815  0.2105  0.2792
 9661TIP3    H250399   2.012   5.427  10.410 -0.4574  0.2504 -0.2241
 9662TIP3   OH250400   1.964   4.692   1.807 -0.1645  0.1249  0.2647
 9662TIP3    H150401   1.907   4.619   1.828 -0.2675 -0.6375 -2.3907
 9662TIP3    H250402   2.051   4.653   1.799  0.0593  0.5857  0.4252
 9663TIP3   OH250403   1.010   6.158   2.571 -0.4745  0.5863  0.0513
 9663TIP3    H150404   0.980   6.105   2.645 -0.3113  1.2112  0.5636
 9663TIP3    H250405   1.073   6.101   2.525 -1.7960 -0.4329 -0.5734
 9664TIP3   OH250406   3.472   0.998  17.111 -0.2276  0.5197 -0.0542
 9664TIP3    H150407   3.489   1.032  17.199  0.1006  1.0684 -0.3253
 9664TIP3    H250408   3.556   1.007  17.065  0.2095 -1.6924  0.1855
 9665TIP3   OH250409   3.954   5.767   2.997 -0.1977 -0.2145  0.2194
 9665TIP3    H150410   3.864   5.741   3.019 -0.3536  2.2588  3.1908
 9665TIP3    H250411   3.945   5.855   2.961  1.0074  0.0979  0.6356
 9666TIP3   OH250412   5.967   4.538   5.701  0.9886 -0.0838 -0.2536
 9666TIP3    H150413   5.951   4.506   5.612  2.1351 -0.5908 -0.2914
 9666TIP3    H250414   5.880   4.561   5.734  0.6302  0.9808 -1.8146
 9667TIP3   OH250415   3.484   4.695   0.338  0.3061  0.6936  0.4208
 9667TIP3    H150416   3.559   4.752   0.349  2.1193 -1.6277  0.9309
 9667TIP3    H250417   3.508   4.637   0.266 -1.9061  1.1514 -0.7960
 9668TIP3   OH250418   2.265   5.133   0.446 -0.1123 -0.2130  0.4079
 9668TIP3    H150419   2.348   5.137   0.398 -0.7104 -0.1504 -0.6735
 9668TIP3    H250420   2.258   5.219   0.487 -0.8805  0.8220 -1.7310
 9669TIP3   OH250421   2.746   3.237   5.156  0.0049 -0.4628 -0.1865
 9669TIP3    H150422   2.673   3.298   5.156 -0.1111 -0.5975 -0.6637
 9669TIP3    H250423   2.711   3.156   5.119  0.2575 -0.6967  0.0756
 9670TIP3   OH250424   0.486   4.599   4.367 -0.3227 -0.1162 -0.2099
 9670TIP3    H150425   0.560   4.639   4.322 -0.6668 -1.4474 -2.0598
 9670TIP3    H250426   0.409   4.639   4.327 -0.6571  1.0241  1.4759
 9671TIP3   OH250427   2.952   1.806  12.959 -0.2280 -0.0159 -0.6099
 9671TIP3    H150428   2.894   1.749  13.010 -0.3780 -0.3517 -1.1475
 9671TIP3    H250429   2.955   1.765  12.873  0.5311  0.2019 -0.6874
 9672TIP3   OH250430   5.121   5.370   4.004  0.5599 -0.0965  0.1028
 9672TIP3    H150431   5.191   5.434   4.010 -1.1976  1.8966  0.6426
 9672TIP3    H250432   5.043   5.416   4.037 -0.5067 -3.0061  2.1337
 9673TIP3   OH250433   5.113   6.100   1.568 -0.0616  0.6758 -0.2438
 9673TIP3    H150434   5.108   6.009   1.595  1.8292  0.5825 -0.0832
 9673TIP3    H250435   5.201   6.110   1.532  0.4103  2.8009  1.2514
 9674TIP3   OH250436   0.379   4.925  13.418  0.0049 -0.8001  0.1679
 9674TIP3    H150437   0.315   4.934  13.348 -1.8959 -3.1277  1.4634
 9674TIP3    H250438   0.418   4.838  13.404  1.5535 -0.1924  0.4945
 9675TIP3   OH250439   2.986   4.060  11.108  0.4958  0.1322  0.1583
 9675TIP3    H150440   2.950   3.995  11.048 -1.5350 -1.4730  2.8516
 9675TIP3    H250441   3.044   4.113  11.054 -0.5210 -1.6559 -2.9776
 9676TIP3   OH250442   6.029   1.039  15.894  0.3620  0.0507 -0.1434
 9676TIP3    H150443   6.098   1.043  15.828  0.6829 -1.0557  0.1094
 9676TIP3    H250444   6.073   1.061  15.976 -0.1316  1.9101 -0.3184
 9677TIP3   OH250445   4.839   3.571   5.445 -0.1796 -0.1298  0.6017
 9677TIP3    H150446   4.813   3.635   5.380 -0.1663 -0.6277  0.1010
 9677TIP3    H250447   4.920   3.605   5.483  0.5175 -0.4781 -0.5542
 9678TIP3   OH250448   2.380   2.999  13.631  0.4999 -0.5494  0.3592
 9678TIP3    H150449   2.307   3.050  13.596  0.3109 -0.6364  0.6296
 9678TIP3    H250450   2.424   3.059  13.691  0.8509 -0.3857 -0.0520
 9679TIP3   OH250451   4.591   1.349   4.087 -0.1183  0.2878  0.3991
 9679TIP3    H150452   4.681   1.380   4.090 -0.4332  1.1378  1.7886
 9679TIP3    H250453   4.551   1.383   4.166 -1.0169 -2.1214  1.0833
 9680TIP3   OH250454   1.130   3.764   0.271 -0.8296  0.4827  0.1222
 9680TIP3    H150455   1.075   3.687   0.279 -0.7455  0.5071  1.0536
 9680TIP3    H250456   1.159   3.783   0.361 -0.2095  1.1236 -0.1981
 9681TIP3   OH250457   0.632   0.213  10.725  0.0933 -0.3975 -0.2460
 9681TIP3    H150458   0.726   0.231  10.736  0.2188 -1.5017  0.6469
 9681TIP3    H250459   0.624   0.118  10.738 -1.1747 -0.2946 -0.1509
 9682TIP3   OH250460   6.199   4.749   6.171  0.6145 -0.1975  0.2443
 9682TIP3    H150461   6.153   4.672   6.204 -0.1536  0.9996  2.1742
 9682TIP3    H250462   6.144   4.781   6.100 -0.1283 -0.3138  0.7556
 9683TIP3   OH250463   4.895   2.545   0.851 -0.7247 -1.4677 -0.9807
 9683TIP3    H150464   4.923   2.513   0.937 -1.7016  0.4251  0.1066
 9683TIP3    H250465   4.830   2.481   0.822 -1.9963 -1.0063  0.7194
 9684TIP3   OH250466   2.221   3.344  11.936 -0.4343 -0.0753 -0.3702
 9684TIP3    H150467   2.301   3.365  11.984 -1.9042  0.5209  1.9635
 9684TIP3    H250468   2.161   3.309  12.001 -2.5755  0.8082 -1.7392
 9685TIP3   OH250469   5.466   4.985   0.052  0.2229  0.5924  0.0155
 9685TIP3    H150470   5.451   4.989  -0.042  1.6311 -0.7034 -0.3017
 9685TIP3    H250471   5.550   4.939   0.062  0.4282  1.2637  1.8799
 9686TIP3   OH250472   3.608   4.097   4.669  0.3321 -0.0390 -0.1053
 9686TIP3    H150473   3.609   4.013   4.623  2.1839  0.3252 -0.8155
 9686TIP3    H250474   3.633   4.075   4.759  1.2777 -0.2078 -0.4023
 9687TIP3   OH250475   6.357   0.708  14.984 -0.0758  0.4115 -0.2367
 9687TIP3    H150476   6.317   0.791  15.007 -0.8579  0.2580 -1.0106
 9687TIP3    H250477   6.432   0.732  14.929 -0.7152  0.5816 -1.0475
 9688TIP3   OH250478   6.489   1.908   0.306  0.1368  0.0447 -0.7020
 9688TIP3    H150479   6.528   1.903   0.393 -1.4504 -1.9020 -0.0292
 9688TIP3    H250480   6.415   1.968   0.316 -0.3804 -0.6111 -0.5552
 9689TIP3   OH250481   3.962   5.892  15.657 -0.3665 -0.0199 -0.4530
 9689TIP3    H150482   3.875   5.931  15.652 -0.3777 -0.0381 -0.4084
 9689TIP3    H250483   4.019   5.953  15.611 -0.3769  0.0704 -0.3477
 9690TIP3   OH250484   1.801   3.686  13.362 -0.0473 -0.3228 -0.0963
 9690TIP3    H150485   1.740   3.725  13.425  1.3229 -1.0955  1.7746
 9690TIP3    H250486   1.778   3.728  13.279 -0.6236  2.2072  1.2341
 9691TIP3   OH250487   6.061   4.182  16.958  0.0320 -0.2912 -0.5001
 9691TIP3    H150488   6.082   4.187  16.864  1.0589  0.7912 -0.2391
 9691TIP3    H250489   6.013   4.262  16.976 -2.8079 -1.8369 -0.6572
 9692TIP3   OH250490   6.207   4.679   1.665 -0.0773  0.7029 -0.3248
 9692TIP3    H150491   6.303   4.681   1.662 -0.0629  1.3771  0.1429
 9692TIP3    H250492   6.187   4.612   1.731 -0.0238 -1.5739 -2.4880
 9693TIP3   OH250493   2.606   2.634   2.160  0.2005  0.0290  0.5162
 9693TIP3    H150494   2.512   2.642   2.145  0.1923  0.9738  1.0067
 9693TIP3    H250495   2.613   2.612   2.253  0.4821  0.3926  0.5806
 9694TIP3   OH250496   1.759   0.952  15.795  0.8845 -0.0843 -0.1492
 9694TIP3    H150497   1.707   0.934  15.873 -1.2456  1.8739 -0.9986
 9694TIP3    H250498   1.774   0.866  15.755 -1.6965 -0.7518  0.1782
 9695TIP3   OH250499   0.482   3.986  16.596 -0.0825  0.2604 -0.0308
 9695TIP3    H150500   0.559   4.035  16.625 -1.1046  0.1097  3.4000
 9695TIP3    H250501   0.511   3.894  16.594  0.7138  0.4851 -2.4277
 9696TIP3   OH250502   4.665   5.148   6.258 -0.2693 -0.5531 -0.2232
 9696TIP3    H150503   4.683   5.201   6.336  1.3757  0.2320 -1.0703
 9696TIP3    H250504   4.733   5.081   6.259 -0.3075 -0.6086 -0.9071
 9697TIP3   OH250505   2.922   3.689  17.148  0.2614  0.4576  0.2038
 9697TIP3    H150506   2.903   3.720  17.236  2.3255  3.1760 -0.1719
 9697TIP3    H250507   2.911   3.767  17.092 -1.3926 -1.2591 -2.0568
 9698TIP3   OH250508   0.986   6.572  15.834  0.0026  0.5493 -0.4263
 9698TIP3    H150509   1.046   6.628  15.883 -0.9497 -0.4221  2.0291
 9698TIP3    H250510   0.907   6.625  15.824 -0.6421 -0.0470  1.2571
 9699TIP3   OH250511   2.258   3.889   1.923  0.5599  0.0040  0.0241
 9699TIP3    H150512   2.224   3.950   1.988 -0.7991 -0.5108 -0.1696
 9699TIP3    H250513   2.215   3.806   1.943  1.2584 -0.5289 -0.6213
 9700TIP3   OH250514   5.847   5.539  12.995 -0.7156  0.5558 -0.2228
 9700TIP3    H150515   5.822   5.555  13.086 -0.6930  1.2265 -0.3292
 9700TIP3    H250516   5.852   5.444  12.987 -0.6168  0.4970  0.5050
 9701TIP3   OH250517   4.036   0.454   1.656 -0.6310  0.0686 -0.0079
 9701TIP3    H150518   3.948   0.484   1.678 -0.3989  0.3458  0.5551
 9701TIP3    H250519   4.023   0.391   1.585 -1.0049  2.5492 -2.2824
 9702TIP3   OH250520   0.742   6.345   4.140 -0.3078 -0.6782  0.5031
 9702TIP3    H150521   0.762   6.438   4.129  0.1011 -0.5595  2.0856
 9702TIP3    H250522   0.766   6.306   4.056  0.0745  0.5460  0.0190
 9703TIP3   OH250523   6.647   5.990  14.230  0.8153  0.4686  0.0408
 9703TIP3    H150524   6.665   6.084  14.226 -1.3897  0.9188 -0.8313
 9703TIP3    H250525   6.636   5.964  14.139  0.3164 -0.4030  0.3364
 9704TIP3   OH250526   2.142   5.565  15.820  0.0600  0.3059  0.3965
 9704TIP3    H150527   2.051   5.570  15.794  0.1823  0.3596 -0.0319
 9704TIP3    H250528   2.189   5.541  15.740  0.4228  0.2938  0.6076
 9705TIP3   OH250529   0.031   6.183  13.930  0.0700  0.7369  0.3129
 9705TIP3    H150530  -0.022   6.198  14.008  0.4657 -3.0094  1.5055
 9705TIP3    H250531   0.121   6.178  13.962  0.3790  0.3239 -0.5766
 9706TIP3   OH250532   2.803   2.390   4.893 -0.3581 -0.2404 -0.2304
 9706TIP3    H150533   2.896   2.401   4.878  0.3424 -1.5293  2.4945
 9706TIP3    H250534   2.783   2.301   4.862 -0.3946 -0.4114  0.2703
 9707TIP3   OH250535   1.145   3.751   1.253 -0.4080 -0.1431  0.3855
 9707TIP3    H150536   1.176   3.826   1.304 -1.3230 -1.0908  2.4057
 9707TIP3    H250537   1.224   3.700   1.236 -0.0586  0.3166  0.5988
 9708TIP3   OH250538   1.300   0.666  12.306  0.1570  0.6388  0.0857
 9708TIP3    H150539   1.335   0.607  12.372 -1.3656 -0.3225  0.0742
 9708TIP3    H250540   1.375   0.687  12.251  0.6095 -1.9521 -0.4087
 9709TIP3   OH250541   0.717   2.295   1.374 -0.1824 -0.0969 -0.3869
 9709TIP3    H150542   0.786   2.243   1.335 -1.7133 -1.6708 -1.1184
 9709TIP3    H250543   0.754   2.325   1.458  1.4304 -0.6867 -0.8544
 9710TIP3   OH250544   4.253   3.249  14.761 -0.0809 -0.4091 -0.5196
 9710TIP3    H150545   4.194   3.226  14.690 -0.3542 -0.2919 -0.3329
 9710TIP3    H250546   4.312   3.315  14.723 -2.6588  2.6621  0.3598
 9711TIP3   OH250547   5.651   5.666   4.564  0.0434  0.3702 -0.1747
 9711TIP3    H150548   5.684   5.701   4.647  0.9620  0.6982 -0.6722
 9711TIP3    H250549   5.658   5.738   4.502  1.9874 -0.6384 -1.2298
 9712TIP3   OH250550   0.620   6.036   2.583 -0.1471 -0.5527 -0.7067
 9712TIP3    H150551   0.619   6.122   2.542  0.3262  0.5956  1.4908
 9712TIP3    H250552   0.680   5.984   2.529  0.1426  0.7211 -1.6604
 9713TIP3   OH250553   2.658   2.522  11.564 -0.7546 -0.2059 -0.1995
 9713TIP3    H150554   2.607   2.591  11.607 -2.1398 -0.2870 -1.6294
 9713TIP3    H250555   2.631   2.441  11.606  0.9712  0.0610  1.5755
 9714TIP3   OH250556   5.714   4.901   0.091 -0.1373  0.0567  0.1980
 9714TIP3    H150557   5.807   4.881   0.107 -0.1399 -0.8980 -0.8374
 9714TIP3    H250558   5.671   4.815   0.093 -0.8603  0.4081 -0.1622
 9715TIP3   OH250559   2.291   3.147   0.934  0.2644 -0.0873  0.5592
 9715TIP3    H150560   2.255   3.136   1.022  1.3049 -2.3434  0.7626
 9715TIP3    H250561   2.385   3.158   0.947  0.2846  0.8893 -0.2301
 9716TIP3   OH250562   3.330   0.424   4.569 -0.1244 -0.0908 -0.4842
 9716TIP3    H150563   3.354   0.387   4.484 -0.6094 -1.1081 -0.2023
 9716TIP3    H250564   3.295   0.350   4.618 -3.1102  1.1057 -0.6044
 9717TIP3   OH250565   4.033   3.255  15.444 -0.1367  0.1398 -0.5299
 9717TIP3    H150566   4.024   3.203  15.364 -1.1428  0.7146 -0.8119
 9717TIP3    H250567   3.944   3.259  15.480  0.1911  0.4383  0.2671
 9718TIP3   OH250568   0.395   5.737  16.234  0.4272 -0.1938  0.0762
 9718TIP3    H150569   0.489   5.744  16.218  0.2397  1.1594 -0.6316
 9718TIP3    H250570   0.379   5.791  16.311  0.3470 -1.1485  0.7395
 9719TIP3   OH250571   3.278   3.143   6.393  0.3774 -0.2230 -0.0526
 9719TIP3    H150572   3.329   3.221   6.375  2.5358 -1.2229  1.3269
 9719TIP3    H250573   3.250   3.152   6.484  0.8026 -1.1137  0.1774
 9720TIP3   OH250574   4.298   4.283   3.187 -0.2684  0.6182  0.6282
 9720TIP3    H150575   4.226   4.345   3.199 -1.2812 -0.7063  1.6603
 9720TIP3    H250576   4.283   4.245   3.101  0.0205  1.3428  0.2448
 9721TIP3   OH250577   2.211   0.694  11.552 -0.4837  0.5474  0.0803
 9721TIP3    H150578   2.116   0.684  11.550 -0.5936  1.5845 -0.7280
 9721TIP3    H250579   2.235   0.706  11.460  0.6789 -1.6943  0.0395
 9722TIP3   OH250580   6.700   2.608   3.695 -0.5043 -0.6488  0.0700
 9722TIP3    H150581   6.782   2.622   3.648  1.0509  0.2725  2.8314
 9722TIP3    H250582   6.727   2.594   3.786 -3.3356 -2.1609  0.7812
 9723TIP3   OH250583   1.758   3.348  15.153 -0.0094  0.1930  0.6761
 9723TIP3    H150584   1.730   3.439  15.155 -1.4691 -0.1576 -1.0970
 9723TIP3    H250585   1.728   3.311  15.236  0.9792  1.3873  1.6075
 9724TIP3   OH250586   5.392   5.166  12.872 -0.1253  0.4985  0.4414
 9724TIP3    H150587   5.320   5.128  12.822  0.4488 -0.3964  0.2853
 9724TIP3    H250588   5.376   5.260  12.868 -0.0305  0.4712 -1.5175
 9725TIP3   OH250589   0.257   1.523   6.378 -0.0289 -0.0961  0.0043
 9725TIP3    H150590   0.204   1.595   6.344  0.0972 -0.5480 -1.2004
 9725TIP3    H250591   0.248   1.453   6.313  2.5299  0.0384 -0.6122
 9726TIP3   OH250592   6.311   6.253  15.549  0.2910 -0.1427 -0.3243
 9726TIP3    H150593   6.386   6.309  15.527 -1.3713  1.5227 -2.2126
 9726TIP3    H250594   6.293   6.206  15.468 -1.8913  1.0303 -0.5923
 9727TIP3   OH250595   3.200   3.566   5.681 -0.0584 -0.1273 -0.7700
 9727TIP3    H150596   3.281   3.614   5.667 -0.5927  1.2477  0.6229
 9727TIP3    H250597   3.210   3.526   5.767 -0.8953  0.1240 -0.5509
 9728TIP3   OH250598   0.853   5.705  14.054  0.3949  0.3722  0.6237
 9728TIP3    H150599   0.904   5.784  14.034 -0.5689  1.0242  0.6568
 9728TIP3    H250600   0.772   5.717  14.005  0.6143 -1.0602 -0.1276
 9729TIP3   OH250601   4.875   2.506   2.170  0.3180  0.4884 -0.5350
 9729TIP3    H150602   4.922   2.485   2.089  1.3062  0.3766  0.0586
 9729TIP3    H250603   4.900   2.437   2.232 -0.2273  0.7155 -0.0468
 9730TIP3   OH250604   0.050   3.228   2.330 -0.3634 -0.7640  0.1234
 9730TIP3    H150605   0.106   3.178   2.389  0.4753 -0.4168 -0.3648
 9730TIP3    H250606   0.106   3.298   2.296 -1.0019 -0.5930 -0.6187
 9731TIP3   OH250607   1.185   3.654   4.160 -0.0552  0.2582 -0.0602
 9731TIP3    H150608   1.198   3.698   4.244  0.7241  0.2097 -0.1526
 9731TIP3    H250609   1.233   3.572   4.168 -0.6193 -0.1010 -0.2799
 9732TIP3   OH250610   2.550   0.287  17.193 -0.5070 -0.1089 -0.4678
 9732TIP3    H150611   2.528   0.377  17.217  2.6989  0.4094  1.0937
 9732TIP3    H250612   2.494   0.233  17.248 -0.1538  1.0283  1.0912
 9733TIP3   OH250613   3.684   4.668  12.490 -0.2520 -0.2951  0.1130
 9733TIP3    H150614   3.679   4.605  12.419 -0.8132 -1.3211  1.0320
 9733TIP3    H250615   3.717   4.618  12.565 -0.9506  0.4360  0.9329
 9734TIP3   OH250616   4.115   1.933   2.180 -0.0667 -0.5906  0.0087
 9734TIP3    H150617   4.142   1.940   2.271 -1.0932  0.3125  0.2676
 9734TIP3    H250618   4.084   2.021   2.157 -0.7218 -1.0372 -0.9091
 9735TIP3   OH250619   3.781   5.414   1.938 -0.1271  0.0684  0.2702
 9735TIP3    H150620   3.811   5.407   1.847 -1.6591 -1.1179 -0.1879
 9735TIP3    H250621   3.849   5.369   1.988 -0.6157 -1.8243 -0.6501
 9736TIP3   OH250622   1.871   3.118   3.352  0.5562  0.8420  0.4685
 9736TIP3    H150623   1.809   3.172   3.402  0.0402 -0.7608  1.6447
 9736TIP3    H250624   1.915   3.065   3.419  0.0246 -1.2085 -0.7219
 9737TIP3   OH250625   4.009   0.230  11.028  0.1423  0.2409  0.4444
 9737TIP3    H150626   4.011   0.144  10.987  0.9407 -0.6161  2.1705
 9737TIP3    H250627   3.929   0.230  11.081  0.4434  0.3439  0.9013
 9738TIP3   OH250628   0.163   3.476   1.842 -0.9965 -0.5302 -0.3066
 9738TIP3    H150629   0.224   3.402   1.833  0.5310  0.7343 -0.6861
 9738TIP3    H250630   0.219   3.552   1.852 -2.4721  0.9172 -2.3370
 9739TIP3   OH250631   0.851   3.642   2.263 -0.4073  0.0418  0.0869
 9739TIP3    H150632   0.886   3.554   2.277 -0.9978 -0.0711  0.9158
 9739TIP3    H250633   0.926   3.693   2.233  0.1678 -0.5051  0.5615
 9740TIP3   OH250634   0.607   6.449   1.830 -0.2041  0.5405  0.1446
 9740TIP3    H150635   0.699   6.424   1.843  0.1381  1.9795  0.6199
 9740TIP3    H250636   0.558   6.391   1.889  0.2639 -0.9594 -0.8642
 9741TIP3   OH250637   6.116   1.555   4.483  0.5561  0.2521 -0.5036
 9741TIP3    H150638   6.088   1.636   4.440  1.6100 -0.4013 -2.5449
 9741TIP3    H250639   6.073   1.485   4.435  1.4478 -0.4935 -0.2542
 9742TIP3   OH250640   4.363   0.499   5.739  0.6005 -0.1543 -0.1330
 9742TIP3    H150641   4.426   0.431   5.714  2.0178  0.6654  1.0872
 9742TIP3    H250642   4.365   0.561   5.666  0.9910 -0.2743 -0.2263
 9743TIP3   OH250643   5.859   3.766   0.832  0.9539 -0.1766 -0.5146
 9743TIP3    H150644   5.835   3.775   0.740  0.0361  0.6212 -0.2097
 9743TIP3    H250645   5.781   3.793   0.880  1.2513 -1.0627  0.5071
 9744TIP3   OH250646   1.551   5.073  11.278 -0.4944 -0.6132  0.5924
 9744TIP3    H150647   1.537   4.986  11.239 -1.9656 -0.4383  0.6864
 9744TIP3    H250648   1.631   5.105  11.237 -0.5826 -1.5242 -0.3309
 9745TIP3   OH250649   3.658   3.631   5.363 -0.1211  0.1469  0.6771
 9745TIP3    H150650   3.621   3.711   5.402 -0.1709  0.0966  0.7329
 9745TIP3    H250651   3.584   3.570   5.360 -0.1277  0.1637  0.4691
 9746TIP3   OH250652   3.483   4.920   5.014  0.0760  0.4765  0.1334
 9746TIP3    H150653   3.560   4.878   5.051 -1.0804  0.2145  2.4268
 9746TIP3    H250654   3.421   4.849   4.999 -1.6815  1.1088  3.5045
 9747TIP3   OH250655   0.627   4.393   0.677  0.3034 -0.1825 -0.7173
 9747TIP3    H150656   0.629   4.398   0.581  0.7513 -0.7900 -0.7393
 9747TIP3    H250657   0.562   4.326   0.696 -1.0234  1.0954 -0.5443
 9748TIP3   OH250658   1.373   3.661   3.418  0.5568 -0.1406 -0.0808
 9748TIP3    H150659   1.357   3.739   3.471 -1.8157  0.0674 -0.9813
 9748TIP3    H250660   1.418   3.693   3.340  1.3982 -0.0220  0.4336
 9749TIP3   OH250661   4.833   3.255   3.686  0.3557  0.0260  1.2577
 9749TIP3    H150662   4.785   3.194   3.741  0.7393 -0.7568  0.7420
 9749TIP3    H250663   4.766   3.313   3.650 -0.0745 -0.4344  1.3211
 9750TIP3   OH250664   5.039   0.424   5.934  0.2394  0.1135  0.3248
 9750TIP3    H150665   5.128   0.440   5.964 -0.1599  0.0169  1.6589
 9750TIP3    H250666   4.986   0.488   5.983 -0.4626 -0.0609 -0.1903
 9751TIP3   OH250667   1.274   3.080   6.021  0.2205 -0.1391 -0.1223
 9751TIP3    H150668   1.264   3.002   6.075  2.6496 -0.5944 -0.2325
 9751TIP3    H250669   1.369   3.091   6.011 -0.0958  1.6926 -1.7475
 9752TIP3   OH250670   2.897   3.794   1.149 -0.4076  0.4055  0.2511
 9752TIP3    H150671   2.919   3.840   1.068 -1.3919 -0.0902 -0.3197
 9752TIP3    H250672   2.847   3.857   1.200 -1.6267  0.0546 -0.4655
 9753TIP3   OH250673   3.098   6.004  13.687 -0.0112 -0.2426 -0.0058
 9753TIP3    H150674   3.047   6.083  13.704 -0.8445 -1.0869  1.7319
 9753TIP3    H250675   3.189   6.030  13.698 -0.3285  0.2503  1.7413
 9754TIP3   OH250676   1.040   6.517   1.754 -0.3433  0.4257  0.1368
 9754TIP3    H150677   1.048   6.457   1.681 -0.3926  1.0369 -0.3823
 9754TIP3    H250678   0.955   6.497   1.793 -0.9233  0.9919 -0.8035
 9755TIP3   OH250679   0.636   6.184   3.044 -0.0568 -0.0802  0.7626
 9755TIP3    H150680   0.607   6.093   3.031  0.5694  0.0173 -2.0451
 9755TIP3    H250681   0.705   6.178   3.110 -0.1372 -1.6159  0.7492
 9756TIP3   OH250682   6.359   0.522  13.512  0.0296 -0.2612 -0.4395
 9756TIP3    H150683   6.324   0.434  13.515  2.4104 -1.4823 -3.4588
 9756TIP3    H250684   6.425   0.524  13.582  1.1107 -1.5257 -1.3650
 9757TIP3   OH250685   1.817   2.364  10.751  0.4316 -0.2705  0.4158
 9757TIP3    H150686   1.884   2.431  10.735  1.4390 -1.6575 -1.4676
 9757TIP3    H250687   1.866   2.283  10.763 -0.8629 -1.0979  0.2845
 9758TIP3   OH250688   5.422   6.052  16.465  0.5195 -0.6045 -0.4134
 9758TIP3    H150689   5.383   6.138  16.450 -0.7214 -1.3214 -1.4201
 9758TIP3    H250690   5.512   6.061  16.434  1.3599  1.1697  2.2527
 9759TIP3   OH250691   5.909   3.390  14.408 -0.1247 -0.6268  0.0820
 9759TIP3    H150692   5.965   3.423  14.338 -2.7699  1.5962 -1.1743
 9759TIP3    H250693   5.859   3.320  14.367  0.9406 -1.9365  0.9237
 9760TIP3   OH250694   1.747   2.911  12.123  0.4764  0.0183  0.0612
 9760TIP3    H150695   1.759   2.907  12.217 -1.1190 -1.2127  0.2520
 9760TIP3    H250696   1.805   2.843  12.088  0.9872  0.4043  0.1456
 9761TIP3   OH250697   4.689   1.450   3.034  0.1050 -0.1493 -0.0354
 9761TIP3    H150698   4.723   1.361   3.044 -3.0517 -1.8146 -2.2394
 9761TIP3    H250699   4.695   1.488   3.122 -0.2754 -3.2947  1.4950
 9762TIP3   OH250700   2.322   2.932  15.724  0.5603 -1.1609 -0.0894
 9762TIP3    H150701   2.317   2.964  15.634  0.7083 -0.3086  0.1991
 9762TIP3    H250702   2.232   2.912  15.747  0.1158  1.2123  0.4795
 9763TIP3   OH250703   5.287   3.232  13.382  0.0202 -0.1496  0.0496
 9763TIP3    H150704   5.324   3.194  13.462  1.9246  1.2880 -0.0529
 9763TIP3    H250705   5.214   3.286  13.413 -1.8961 -2.7372  0.3172
 9764TIP3   OH250706   6.329   0.215  11.870  0.1229 -0.5230  0.6108
 9764TIP3    H150707   6.243   0.235  11.907  0.1842 -0.6991  0.8505
 9764TIP3    H250708   6.351   0.292  11.817 -0.1722 -0.4687  0.5680
 9765TIP3   OH250709   4.086   3.315   1.692  0.2200 -0.0730  0.3261
 9765TIP3    H150710   4.058   3.371   1.764  0.8639 -0.6113  0.9965
 9765TIP3    H250711   4.023   3.335   1.622  1.4446  2.7955 -0.1047
 9766TIP3   OH250712   4.555   1.972  14.700  0.5067 -0.0056  0.4280
 9766TIP3    H150713   4.635   2.009  14.736  0.0098  1.4656  0.0677
 9766TIP3    H250714   4.513   2.044  14.653 -1.3993 -0.5097  1.2298
 9767TIP3   OH250715   6.327   3.838   3.405  0.0773  0.2370  0.1576
 9767TIP3    H150716   6.390   3.891   3.455 -2.7921  3.1770  1.0233
 9767TIP3    H250717   6.272   3.797   3.471 -1.6253  1.3797 -0.4740
 9768TIP3   OH250718   5.817   3.643  12.715  0.3084 -0.3512  0.7927
 9768TIP3    H150719   5.789   3.679  12.799  0.4468  0.3259  0.5483
 9768TIP3    H250720   5.913   3.643  12.720  0.3302  0.2486  0.3999
 9769TIP3   OH250721   4.817   0.590   2.798  0.1865 -0.3907  0.0421
 9769TIP3    H150722   4.792   0.663   2.741  1.4813 -0.2613 -0.3745
 9769TIP3    H250723   4.898   0.619   2.839  0.8510 -1.7099 -0.3184
 9770TIP3   OH250724   5.151   2.348   4.251  0.5459  0.2435 -0.0789
 9770TIP3    H150725   5.060   2.371   4.273  0.5712 -0.6408  1.0826
 9770TIP3    H250726   5.175   2.408   4.181 -0.7648  0.8504 -0.0395
 9771TIP3   OH250727   5.942   2.752   0.945 -0.3395 -0.3959  0.2593
 9771TIP3    H150728   5.981   2.669   0.915 -2.4133 -1.3526  0.0400
 9771TIP3    H250729   5.948   2.748   1.040 -1.7406 -1.5140  0.3239
 9772TIP3   OH250730   0.037   1.008   1.331 -0.6943 -0.1934 -0.0172
 9772TIP3    H150731  -0.028   0.987   1.265 -2.1847  0.9043  1.0383
 9772TIP3    H250732   0.101   1.062   1.286 -0.5767 -1.1456 -1.0284
 9773TIP3   OH250733   2.254   1.199   1.969  0.2035 -0.2328  0.6331
 9773TIP3    H150734   2.278   1.252   1.892  0.5913  0.6930  1.3732
 9773TIP3    H250735   2.306   1.119   1.960 -0.8325 -0.7894 -0.8190
 9774TIP3   OH250736   0.547   3.527  12.195 -0.2102  0.3837 -0.5418
 9774TIP3    H150737   0.535   3.517  12.101 -0.4273  0.2543 -0.4992
 9774TIP3    H250738   0.562   3.438  12.228  0.2957  0.4746 -0.5144
 9775TIP3   OH250739   5.296   0.521  14.161  0.3613 -0.5344  0.2317
 9775TIP3    H150740   5.336   0.469  14.092 -0.1845 -0.4313 -0.1672
 9775TIP3    H250741   5.231   0.574  14.116  0.7549  0.3349  0.6592
 9776TIP3   OH250742   4.714   0.982   2.799  0.4775  0.1536 -0.0456
 9776TIP3    H150743   4.697   1.069   2.762  0.9413  0.9347  1.4568
 9776TIP3    H250744   4.737   1.000   2.891 -0.0361 -1.6144  0.4643
 9777TIP3   OH250745   0.892   2.805  17.256  0.6684  0.2695  0.1808
 9777TIP3    H150746   0.854   2.893  17.243 -1.1647 -0.4718  0.1724
 9777TIP3    H250747   0.857   2.754  17.182  2.1220 -0.3579 -0.0969
 9778TIP3   OH250748   0.908   1.734  13.293  0.4848 -0.0824  0.5143
 9778TIP3    H150749   0.904   1.734  13.389  0.1715  0.7416  0.5068
 9778TIP3    H250750   0.879   1.822  13.268  2.1846  0.3011 -0.2627
 9779TIP3   OH250751   5.657   4.889   6.668  0.2952 -0.1198  0.4890
 9779TIP3    H150752   5.638   4.978   6.638 -2.9134 -0.1494  1.9794
 9779TIP3    H250753   5.741   4.895   6.712  0.1949  2.1535  0.4616
 9780TIP3   OH250754   5.690   4.428  15.021 -0.2120  0.3652 -0.2961
 9780TIP3    H150755   5.644   4.497  14.972 -0.3926  0.1555 -0.4223
 9780TIP3    H250756   5.723   4.369  14.954  1.3672  1.1935 -0.2853
 9781TIP3   OH250757   2.281   6.469   4.974  0.6669  0.4125 -0.1764
 9781TIP3    H150758   2.188   6.449   4.982  0.9179 -0.9350 -0.3471
 9781TIP3    H250759   2.318   6.440   5.058  0.6552  2.8751  0.7611
 9782TIP3   OH250760   4.825   1.451   4.776 -0.0413  0.1357 -0.1333
 9782TIP3    H150761   4.920   1.439   4.774 -0.3362 -2.5741 -1.6348
 9782TIP3    H250762   4.795   1.420   4.691 -2.5333 -2.0860  1.4049
 9783TIP3   OH250763   5.421   1.964   4.079  0.2782 -0.0406  0.0199
 9783TIP3    H150764   5.403   1.919   4.161 -1.9505  2.6161  1.1430
 9783TIP3    H250765   5.478   2.037   4.102  0.3588  0.2231 -0.9502
 9784TIP3   OH250766   4.657   4.160   2.222  0.9793  0.1881 -0.0654
 9784TIP3    H150767   4.746   4.147   2.190  1.2892 -1.1795  1.2843
 9784TIP3    H250768   4.667   4.178   2.315 -0.1321  0.5166  0.0056
 9785TIP3   OH250769   5.758   2.517   1.860  0.5188  0.2547  0.1569
 9785TIP3    H150770   5.805   2.599   1.872  0.9265 -0.2477  2.3824
 9785TIP3    H250771   5.665   2.540   1.869  0.6014  0.5592  0.2343
 9786TIP3   OH250772   0.194   6.244  15.052  0.2923  1.1705 -0.0315
 9786TIP3    H150773   0.126   6.195  15.098  1.3275  0.0039  0.3272
 9786TIP3    H250774   0.244   6.287  15.121  0.7406  0.8912 -0.1722
 9787TIP3   OH250775   3.192   3.722   0.925  0.6014 -0.2225  0.0265
 9787TIP3    H150776   3.117   3.782   0.931 -0.2851 -1.2866 -0.1375
 9787TIP3    H250777   3.222   3.732   0.835 -0.0745 -0.6364 -0.2521
 9788TIP3   OH250778   2.668   1.656  12.027  0.7568  0.0194 -0.0346
 9788TIP3    H150779   2.622   1.734  12.057  1.0579  0.4575 -0.6724
 9788TIP3    H250780   2.761   1.680  12.032  0.9229 -0.7823  1.0565
 9789TIP3   OH250781   3.318   1.228   1.253 -0.2967  0.0357 -0.7119
 9789TIP3    H150782   3.292   1.168   1.324  0.0297  1.8110  1.0114
 9789TIP3    H250783   3.409   1.206   1.234 -0.8288 -1.4440 -1.6827
 9790TIP3   OH250784   6.590   1.415   0.046  0.1489 -0.4969  0.3873
 9790TIP3    H150785   6.522   1.375   0.101  0.3278 -1.0853  0.1970
 9790TIP3    H250786   6.664   1.427   0.105 -0.1342  0.1931  0.6073
 9791TIP3   OH250787   1.309   2.676   1.693 -0.6463 -0.2534  0.2676
 9791TIP3    H150788   1.337   2.762   1.660 -4.4060  1.4367  0.9488
 9791TIP3    H250789   1.273   2.632   1.616 -1.2141 -0.0507  0.4123
 9792TIP3   OH250790   0.931   6.236   1.255  0.2428 -0.1945  0.9655
 9792TIP3    H150791   0.909   6.329   1.242 -0.6094 -0.6341 -1.2502
 9792TIP3    H250792   1.026   6.236   1.266  1.0996  0.7044 -3.9065
 9793TIP3   OH250793   1.245   6.762  16.623  0.0296  0.7011 -0.3166
 9793TIP3    H150794   1.191   6.744  16.700 -1.2284  1.1437 -1.0699
 9793TIP3    H250795   1.281   6.849  16.639  1.1373  0.1140  0.5152
 9794TIP3   OH250796   2.312   6.210   2.634 -0.0844  0.0481  0.1657
 9794TIP3    H150797   2.380   6.169   2.580 -0.5555 -0.9021  0.2575
 9794TIP3    H250798   2.247   6.140   2.646 -1.9739  1.4338 -1.4241
 9795TIP3   OH250799   4.497   6.261  12.326  0.0362  0.1496 -0.0571
 9795TIP3    H150800   4.459   6.294  12.407 -0.1377 -2.5098  1.0755
 9795TIP3    H250801   4.554   6.332  12.295 -2.7768  2.7191  0.2674
 9796TIP3   OH250802   4.209   5.340   3.165 -0.2288  0.3613 -1.0052
 9796TIP3    H150803   4.280   5.359   3.104  0.9904 -3.1803 -0.9336
 9796TIP3    H250804   4.141   5.404   3.144  2.7947  3.8382 -1.1946
 9797TIP3   OH250805   4.715   0.891  12.508  0.4196 -0.5050 -0.1492
 9797TIP3    H150806   4.726   0.986  12.501 -2.4281 -0.1783 -1.4531
 9797TIP3    H250807   4.752   0.869  12.594 -0.6716  2.1398  1.1233
 9798TIP3   OH250808   4.086   2.880   2.971 -0.2094  0.3047  0.1338
 9798TIP3    H150809   4.085   2.835   3.055  2.5491  2.5494  1.5468
 9798TIP3    H250810   4.018   2.836   2.919 -0.6880 -2.4498  2.8090
 9799TIP3   OH250811   1.291   0.612  14.557  0.1773  0.0145 -0.1304
 9799TIP3    H150812   1.293   0.598  14.652 -1.2727 -0.7944 -0.1765
 9799TIP3    H250813   1.293   0.523  14.521 -1.7292  0.1865 -0.7420
 9800TIP3   OH250814   5.250   2.003   3.378 -0.0081 -0.0556  0.3263
 9800TIP3    H150815   5.297   1.947   3.316  1.8295 -0.6726  2.1704
 9800TIP3    H250816   5.159   1.976   3.369  0.5658 -2.0544 -0.2057
 9801TIP3   OH250817   5.906   3.614   2.231  0.6959  0.0317 -0.0914
 9801TIP3    H150818   5.909   3.697   2.279  0.7988 -0.2608  0.4207
 9801TIP3    H250819   5.990   3.573   2.249  1.7097  0.9235 -2.4198
 9802TIP3   OH250820   0.312   2.497  12.026 -0.4483  0.5333  0.2776
 9802TIP3    H150821   0.360   2.440  11.967 -1.4622  0.7428 -0.7807
 9802TIP3    H250822   0.284   2.440  12.098 -0.0397  0.0734  0.0772
 9803TIP3   OH250823   5.301   2.026   0.578 -0.0735  0.1217  0.7724
 9803TIP3    H150824   5.241   1.954   0.564 -1.1502  1.0441  0.5150
 9803TIP3    H250825   5.385   1.984   0.596  0.0657 -1.2180 -2.3324
 9804TIP3   OH250826   5.557   2.319  16.743  0.5173  0.1657 -0.3386
 9804TIP3    H150827   5.518   2.232  16.735 -0.0296  0.3189  0.6160
 9804TIP3    H250828   5.527   2.352  16.828  0.5956  1.3496 -0.7488
 9805TIP3   OH250829   2.515   4.289  14.451 -0.2052 -0.5883  0.6683
 9805TIP3    H150830   2.499   4.206  14.498 -0.6122  0.5598  2.6887
 9805TIP3    H250831   2.610   4.294  14.445 -0.1849 -1.5465 -0.1906
 9806TIP3   OH250832   0.519   0.533   3.731 -0.0050  0.4235  1.0789
 9806TIP3    H150833   0.576   0.541   3.808  2.4897  0.7067 -0.6878
 9806TIP3    H250834   0.578   0.507   3.660 -1.9962  1.2945 -1.0047
 9807TIP3   OH250835   1.720   0.237  15.539  0.8820  0.6245 -0.2979
 9807TIP3    H150836   1.772   0.178  15.485 -0.0768  0.2806 -0.8779
 9807TIP3    H250837   1.654   0.180  15.579  0.1393  1.2551 -0.6173
 9808TIP3   OH250838   5.822   5.924   1.336 -0.1300  0.2057 -0.0217
 9808TIP3    H150839   5.844   5.946   1.426 -1.5569 -1.0717  0.6837
 9808TIP3    H250840   5.821   6.008   1.290 -0.3635  0.9948  1.3842
 9809TIP3   OH250841   3.317   3.383   4.673 -0.6151  0.6500  0.0584
 9809TIP3    H150842   3.339   3.375   4.580 -0.5593 -2.0837  0.2519
 9809TIP3    H250843   3.377   3.450   4.706 -0.0609  1.0467 -1.6757
 9810TIP3   OH250844   4.024   2.128  13.301  0.3424  0.4092  0.1558
 9810TIP3    H150845   4.030   2.205  13.244 -1.4577  1.3678  1.1623
 9810TIP3    H250846   3.996   2.163  13.385 -0.2361 -1.3217  0.7200
 9811TIP3   OH250847   6.469   2.918  11.489 -0.7146 -0.1826 -0.4119
 9811TIP3    H150848   6.518   2.940  11.568  0.0486  1.6283 -1.3331
 9811TIP3    H250849   6.383   2.891  11.520  0.2127 -1.5012  1.1341
 9812TIP3   OH250850   3.798   0.329   3.759  0.7203 -0.0524  0.3700
 9812TIP3    H150851   3.825   0.260   3.699  1.1001 -0.2974  0.8152
 9812TIP3    H250852   3.718   0.296   3.800  1.2093 -0.4861  0.9995
 9813TIP3   OH250853   6.199   4.987  15.922  0.6658  0.0149 -0.1543
 9813TIP3    H150854   6.131   5.023  15.978  0.3209  0.1201 -0.6315
 9813TIP3    H250855   6.258   5.060  15.905  1.9019 -0.4909  1.6972
 9814TIP3   OH250856   6.326   5.007  10.965  0.5659 -0.2199 -0.5746
 9814TIP3    H150857   6.326   5.095  10.928  1.9089 -0.2142 -0.5890
 9814TIP3    H250858   6.383   5.013  11.042 -0.6432 -0.6970  0.3940
 9815TIP3   OH250859   4.934   6.541   2.411 -0.3584  0.3794 -0.2574
 9815TIP3    H150860   4.943   6.556   2.506  0.6076 -0.6372 -0.1717
 9815TIP3    H250861   4.976   6.617   2.371  0.4458  0.1582  0.1449
 9816TIP3   OH250862   2.195   5.086  11.718  0.5525 -0.0035  0.3154
 9816TIP3    H150863   2.107   5.081  11.681  0.6219 -0.6116  0.2238
 9816TIP3    H250864   2.247   5.026  11.664  0.7969 -0.4020  0.9840
 9817TIP3   OH250865   0.446   1.837  15.320  0.1939  0.0092 -0.0049
 9817TIP3    H150866   0.402   1.894  15.257 -2.5732 -0.7443  1.1232
 9817TIP3    H250867   0.519   1.799  15.270 -1.8709 -0.6026 -2.8185
 9818TIP3   OH250868   0.650   5.852   2.799 -0.0779  0.4629 -0.4407
 9818TIP3    H150869   0.657   5.759   2.781 -0.6943  0.3532 -0.1450
 9818TIP3    H250870   0.630   5.891   2.713 -3.7226 -0.1375 -0.0180
 9819TIP3   OH250871   3.662   4.031   0.862 -0.3445 -0.1988  0.4369
 9819TIP3    H150872   3.596   3.962   0.855 -0.6019 -0.0022  0.8503
 9819TIP3    H250873   3.702   4.017   0.948 -0.2256  0.0193  0.4186
 9820TIP3   OH250874   0.859   3.339   5.576 -0.5788  0.1457  0.1219
 9820TIP3    H150875   0.920   3.355   5.648 -0.3967  0.7421 -0.1545
 9820TIP3    H250876   0.772   3.354   5.613 -0.5730 -0.7570  0.5319
 9821TIP3   OH250877   1.114   1.988  11.032 -0.0299  0.3266 -0.3905
 9821TIP3    H150878   1.179   2.037  10.981 -1.8431  0.5587 -2.6490
 9821TIP3    H250879   1.069   1.934  10.967 -0.4612 -1.6856  1.5009
 9822TIP3   OH250880   1.306   1.784   0.590 -0.5767 -0.5505 -0.1140
 9822TIP3    H150881   1.280   1.762   0.680  0.3734 -0.4935  0.1835
 9822TIP3    H250882   1.349   1.705   0.557 -0.5744 -0.4382 -0.3837
 9823TIP3   OH250883   2.110   3.852  12.214  0.3287  0.0469 -0.3976
 9823TIP3    H150884   2.174   3.834  12.283 -1.3309 -0.2237  1.1484
 9823TIP3    H250885   2.064   3.769  12.201  0.9144 -0.0250 -2.1890
 9824TIP3   OH250886   0.473   3.743  12.338  0.6463  0.1215 -0.1968
 9824TIP3    H150887   0.469   3.662  12.288  0.7575  0.1815 -0.3047
 9824TIP3    H250888   0.434   3.809  12.280  2.9546  0.6921 -1.2270
 9825TIP3   OH250889   3.101   0.061  15.530 -0.2874 -0.3644  0.5376
 9825TIP3    H150890   3.067  -0.028  15.518 -1.3367 -0.1757  1.9448
 9825TIP3    H250891   3.039   0.117  15.483 -0.4488 -0.2520  0.8815
 9826TIP3   OH250892   3.451   4.474  11.515  0.4548  0.1444  0.1816
 9826TIP3    H150893   3.403   4.556  11.527 -0.7966 -0.6402  0.7437
 9826TIP3    H250894   3.543   4.500  11.514  0.1051  1.4996  0.9042
 9827TIP3   OH250895   6.217   4.179  12.639  0.0088  0.2561  0.5637
 9827TIP3    H150896   6.147   4.123  12.672  0.4927 -1.3416 -0.9939
 9827TIP3    H250897   6.295   4.151  12.687  0.5297 -1.4437 -1.1624
 9828TIP3   OH250898   5.870   5.831   5.211 -0.0391  0.1493 -0.8938
 9828TIP3    H150899   5.813   5.779   5.154 -0.6223 -0.2194 -0.0032
 9828TIP3    H250900   5.833   5.919   5.207 -0.9526 -0.1816  0.0176
 9829TIP3   OH250901   4.833   6.324  12.142 -0.3824 -0.1989 -0.0075
 9829TIP3    H150902   4.868   6.353  12.226  1.0962  0.4655 -0.8205
 9829TIP3    H250903   4.769   6.391  12.118  0.8533  0.8567 -0.4618
 9830TIP3   OH250904   4.047   0.141  16.577  0.0346 -0.3652 -0.2109
 9830TIP3    H150905   3.954   0.153  16.557  0.3144  0.7099 -0.9061
 9830TIP3    H250906   4.074   0.066  16.524 -0.2434 -0.1734 -0.6265
 9831TIP3   OH250907   6.130   3.963   4.510  0.3450  0.2040 -0.3394
 9831TIP3    H150908   6.179   3.913   4.575 -0.3340 -0.4312 -0.3011
 9831TIP3    H250909   6.190   3.971   4.436  0.9846  0.6036  0.2104
 9832TIP3   OH250910   3.928   5.045  15.191 -0.3279  0.1086  0.7775
 9832TIP3    H150911   3.983   5.018  15.118 -3.3283 -0.1851 -1.5895
 9832TIP3    H250912   3.989   5.075  15.258  2.6006  1.4018 -2.2128
 9833TIP3   OH250913   0.474   1.682  14.597 -0.1066 -0.0898 -0.3220
 9833TIP3    H150914   0.453   1.592  14.624  0.2759 -0.1649 -0.2659
 9833TIP3    H250915   0.423   1.696  14.518  0.0584 -0.4674 -0.5013
 9834TIP3   OH250916   4.323   2.688   4.995 -0.2542  0.6012 -0.3597
 9834TIP3    H150917   4.256   2.740   5.038 -0.2814  0.1261  0.1823
 9834TIP3    H250918   4.312   2.707   4.902 -1.1643  0.4928 -0.2837
 9835TIP3   OH250919   0.602   4.198   1.756 -0.4514  0.5463  0.1291
 9835TIP3    H150920   0.585   4.287   1.725  0.5440  0.3744 -0.9986
 9835TIP3    H250921   0.519   4.152   1.744 -0.7821  1.1414  0.0888
 9836TIP3   OH250922   0.591   4.427   0.979  0.3540 -0.6856  0.4353
 9836TIP3    H150923   0.590   4.495   0.911  2.1693 -0.5140  0.5464
 9836TIP3    H250924   0.607   4.346   0.930 -0.2380 -0.8330  0.4754
 9837TIP3   OH250925   6.455   1.897   1.658  0.2742 -0.0901  0.5837
 9837TIP3    H150926   6.387   1.942   1.608  0.0253 -0.3274  0.7088
 9837TIP3    H250927   6.494   1.965   1.712  1.3311  0.4311 -0.7682
 9838TIP3   OH250928   3.020   3.448   1.333 -0.1204  0.2712  0.3062
 9838TIP3    H150929   3.058   3.536   1.329 -0.8835  0.6985  1.6330
 9838TIP3    H250930   2.941   3.459   1.386  0.5098 -1.4561  1.6951
 9839TIP3   OH250931   2.678   3.993   5.076 -0.3127  0.3003  0.2169
 9839TIP3    H150932   2.740   3.940   5.026 -0.4714  1.4856 -1.2825
 9839TIP3    H250933   2.612   3.930   5.105  0.0505 -0.4973 -0.6397
 9840TIP3   OH250934   1.757   5.199  11.167 -0.5396  0.1533  0.7588
 9840TIP3    H150935   1.707   5.275  11.195 -0.5214 -0.5372  2.8495
 9840TIP3    H250936   1.784   5.219  11.077 -3.0595  1.2926  0.1589
 9841TIP3   OH250937   6.310   3.761   4.063 -0.3757 -0.2028  0.1724
 9841TIP3    H150938   6.388   3.724   4.104 -0.5750 -0.6245  0.1805
 9841TIP3    H250939   6.283   3.695   3.999  1.3794  1.5164 -2.4821
 9842TIP3   OH250940   3.755   4.131   5.661  0.3747  0.4320  0.8598
 9842TIP3    H150941   3.815   4.182   5.606  2.5801 -1.2360  1.6131
 9842TIP3    H250942   3.777   4.156   5.751  0.0875 -0.3721  1.1614
 9843TIP3   OH250943   2.346   3.052  14.180 -0.0513  0.8006  0.2740
 9843TIP3    H150944   2.288   3.050  14.104 -1.6747  0.8337  1.4639
 9843TIP3    H250945   2.331   3.138  14.219 -0.6926  0.0795  1.6805
 9844TIP3   OH250946   4.128   3.299  13.608  1.0260 -0.3365 -0.2234
 9844TIP3    H150947   4.065   3.287  13.537  0.4783 -1.5645  0.4307
 9844TIP3    H250948   4.141   3.393  13.614  2.8377 -0.2392 -3.4305
 9845TIP3   OH250949   0.121   1.664   0.343  1.0107 -0.4020  0.4502
 9845TIP3    H150950   0.208   1.627   0.331 -0.2242 -2.7850 -2.3409
 9845TIP3    H250951   0.115   1.733   0.278  0.6686 -0.5465  0.3263
 9846TIP3   OH250952   3.497   6.435   0.669  0.2544  0.0683  0.2661
 9846TIP3    H150953   3.557   6.489   0.617  0.0400 -0.3555 -0.4386
 9846TIP3    H250954   3.548   6.410   0.746  1.1174 -0.5724 -0.4863
 9847TIP3   OH250955   4.655   0.908  13.065  0.1626 -0.0548  0.4977
 9847TIP3    H150956   4.621   0.989  13.028  1.4382 -0.8138 -2.6054
 9847TIP3    H250957   4.580   0.848  13.066 -0.0361  0.1690 -0.3878
 9848TIP3   OH250958   6.617   4.909  16.765  0.0712  0.7779 -0.3749
 9848TIP3    H150959   6.610   4.998  16.797  0.3325  0.8676 -0.5600
 9848TIP3    H250960   6.598   4.916  16.671  1.7234  0.9091 -0.7414
 9849TIP3   OH250961   5.166   1.118   0.405 -0.1169 -0.2069 -0.5666
 9849TIP3    H150962   5.161   1.028   0.436 -0.1037  0.3179  1.0200
 9849TIP3    H250963   5.076   1.142   0.387 -0.4384  0.2340  1.3992
 9850TIP3   OH250964   1.279   1.637   5.510  0.1730  0.4288 -0.2475
 9850TIP3    H150965   1.316   1.624   5.598  2.4210 -0.8990 -1.2991
 9850TIP3    H250966   1.268   1.549   5.475 -0.4360  0.9444 -1.4022
 9851TIP3   OH250967   2.726   1.849  16.546 -0.3587  0.4417 -0.0114
 9851TIP3    H150968   2.738   1.934  16.589  0.7723  0.2913  0.0136
 9851TIP3    H250969   2.783   1.853  16.469  1.6681 -1.1646  1.2960
 9852TIP3   OH250970   3.064   6.556   0.370  0.1934 -0.4215  0.0820
 9852TIP3    H150971   3.111   6.635   0.344 -0.2220 -0.2073 -0.0326
 9852TIP3    H250972   2.980   6.562   0.323 -1.0066  0.4706  2.2067
 9853TIP3   OH250973   5.376   5.711   4.354 -0.1278  0.1002  0.1351
 9853TIP3    H150974   5.332   5.701   4.439  1.3315  1.5361  1.1269
 9853TIP3    H250975   5.452   5.653   4.361 -0.5824 -0.6123 -0.6575
 9854TIP3   OH250976   0.731   1.422   2.278  0.2428 -0.9318  0.0873
 9854TIP3    H150977   0.661   1.372   2.237  0.5751 -0.0331 -1.6884
 9854TIP3    H250978   0.811   1.380   2.245  0.5181 -0.3322 -0.0072
 9855TIP3   OH250979   1.573   4.162   6.213 -0.2011 -0.0701  0.3867
 9855TIP3    H150980   1.596   4.078   6.252  1.1124  0.5462  0.9875
 9855TIP3    H250981   1.532   4.211   6.284  0.6993  0.4461  0.5728
 9856TIP3   OH250982   3.420   0.731   4.016  0.2996 -0.1061  0.3295
 9856TIP3    H150983   3.443   0.713   3.925  0.6882 -1.5294  0.6847
 9856TIP3    H250984   3.499   0.771   4.053  0.8814 -1.4335  0.5568
 9857TIP3   OH250985   3.688   3.309  16.663 -0.1356 -0.3345  0.4243
 9857TIP3    H150986   3.680   3.382  16.724  0.4842  0.1820 -0.0999
 9857TIP3    H250987   3.665   3.347  16.577 -1.2488 -1.1080  0.3541
 9858TIP3   OH250988   2.550   3.219   3.840  0.0982  0.6948 -0.1404
 9858TIP3    H150989   2.578   3.258   3.922  1.1758 -2.1286  0.9777
 9858TIP3    H250990   2.454   3.220   3.843  0.1048  0.0629  1.5179
 9859TIP3   OH250991   0.702   3.015  11.926 -0.2919  0.4013  0.2735
 9859TIP3    H150992   0.756   3.000  12.003  0.9955 -0.1130 -0.6874
 9859TIP3    H250993   0.691   3.110  11.921 -1.0657  0.4002  1.5023
 9860TIP3   OH250994   1.969   1.832   1.897  0.3921 -0.2138 -0.5418
 9860TIP3    H150995   1.997   1.793   1.981 -0.9439 -0.2373 -0.0837
 9860TIP3    H250996   1.923   1.912   1.922 -0.1103 -0.2747 -1.2415
 9861TIP3   OH250997   3.723   3.663   2.209  0.0882 -0.2883 -0.0022
 9861TIP3    H150998   3.743   3.605   2.135 -1.6660 -0.4815 -0.3648
 9861TIP3    H250999   3.668   3.732   2.171 -0.0657  0.1302  0.9631
 9862TIP3   OH251000   4.269   2.849   3.848 -0.2375  0.5132  0.0123
 9862TIP3    H151001   4.296   2.916   3.911  0.0543  0.7360 -0.3494
 9862TIP3    H251002   4.177   2.833   3.869  0.0785 -0.0390  1.0598
 9863TIP3   OH251003   1.013   3.433   2.454  0.6019 -0.2357 -0.4644
 9863TIP3    H151004   1.015   3.362   2.518  0.7960  0.5206  0.3874
 9863TIP3    H251005   1.013   3.513   2.507 -1.7138  0.4111 -1.3238
 9864TIP3   OH251006   0.098   0.406  14.557 -0.2707 -0.2214 -0.0519
 9864TIP3    H151007   0.142   0.373  14.636 -1.8190 -0.2637  0.8414
 9864TIP3    H251008   0.147   0.369  14.484  1.1986 -0.1977  0.8891
 9865TIP3   OH251009   6.076   0.165  15.914  0.5057  0.3008  0.1874
 9865TIP3    H151010   6.092   0.158  16.008 -0.8634  1.8856  0.5798
 9865TIP3    H251011   6.100   0.079  15.879 -0.2043 -0.7733  2.1814
 9866TIP3   OH251012   2.371   1.847   2.907 -0.1031  0.4312 -0.8710
 9866TIP3    H151013   2.402   1.896   2.983  1.0543 -1.9322  0.2836
 9866TIP3    H251014   2.448   1.801   2.875 -1.3730 -1.7890 -0.9494
 9867TIP3   OH251015   4.590   0.540  14.539  0.4554  0.0737  0.3130
 9867TIP3    H151016   4.578   0.498  14.454 -0.2892 -2.4385  1.5511
 9867TIP3    H251017   4.519   0.605  14.543  0.6712  0.4332 -1.0483
 9868TIP3   OH251018   0.671   0.832   2.390 -0.4126  0.1758 -0.6885
 9868TIP3    H151019   0.752   0.881   2.385 -1.8573  2.7136 -0.8079
 9868TIP3    H251020   0.688   0.753   2.338  1.4806  1.3605 -2.0185
 9869TIP3   OH251021   0.108   5.139  12.235 -0.3465  0.6077 -0.5287
 9869TIP3    H151022   0.060   5.066  12.195  1.5490  0.0262 -1.8771
 9869TIP3    H251023   0.160   5.098  12.305 -0.7531  1.0153  0.0289
 9870TIP3   OH251024   0.668   4.497   5.232 -0.0905  0.5683 -0.0949
 9870TIP3    H151025   0.650   4.447   5.153 -0.3498 -2.1147  1.5603
 9870TIP3    H251026   0.600   4.564   5.235 -3.5979 -2.7088  0.5700
 9871TIP3   OH251027   1.829   0.976  11.199  0.3471 -0.2072 -0.5816
 9871TIP3    H151028   1.810   0.883  11.185 -0.2313  0.0013 -1.2136
 9871TIP3    H251029   1.924   0.982  11.191  0.9165 -1.3647  3.1503
 9872TIP3   OH251030   1.214   4.101  15.485 -0.2735 -0.1206 -0.0938
 9872TIP3    H151031   1.245   4.022  15.530 -1.3607 -0.4680  0.0596
 9872TIP3    H251032   1.182   4.157  15.555 -1.4941 -0.4476 -0.3816
 9873TIP3   OH251033   1.732   6.770   0.584 -0.7651 -0.4420  0.3984
 9873TIP3    H151034   1.769   6.795   0.499 -2.4115 -1.1420 -0.5802
 9873TIP3    H251035   1.740   6.848   0.638  2.2913 -0.6202  0.3643
 9874TIP3   OH251036   4.101   2.790   5.601 -0.2202 -0.3519  0.1338
 9874TIP3    H151037   4.133   2.755   5.684  1.1834  0.1984 -0.1382
 9874TIP3    H251038   4.177   2.835   5.563 -1.3847  1.2151 -0.4727
 9875TIP3   OH251039   1.861   6.219  11.334  0.0213  0.0730  0.3353
 9875TIP3    H151040   1.791   6.223  11.269  1.1768 -3.5980 -1.4403
 9875TIP3    H251041   1.942   6.211  11.283  1.2343 -0.6642  2.2348
 9876TIP3   OH251042   4.906   5.416   2.499 -0.1388 -0.1014 -0.1826
 9876TIP3    H151043   4.860   5.389   2.579 -0.7932  0.8533 -0.2237
 9876TIP3    H251044   4.839   5.414   2.431  0.1423  0.2239 -0.4695
 9877TIP3   OH251045   4.992   6.609   4.626  0.2944  0.0913  0.4456
 9877TIP3    H151046   4.944   6.547   4.681  0.4475  2.0280  2.9383
 9877TIP3    H251047   5.068   6.633   4.679 -0.0296  2.7466 -0.1984
 9878TIP3   OH251048   0.125   0.775  14.801 -0.0655 -0.3106 -0.3503
 9878TIP3    H151049   0.203   0.817  14.764  0.4410 -2.0683 -1.4003
 9878TIP3    H251050   0.154   0.687  14.824 -2.0039 -1.3801 -1.7895
 9879TIP3   OH251051   3.694   2.062   3.387 -0.2075  0.2534  0.1086
 9879TIP3    H151052   3.682   2.077   3.293 -1.0105 -1.0118 -0.0153
 9879TIP3    H251053   3.743   1.980   3.393 -0.1815  0.3079  0.7972
 9880TIP3   OH251054   5.688   0.092   4.223  0.1382  0.2622  0.8428
 9880TIP3    H151055   5.769   0.063   4.263  0.0542  0.2949  1.0369
 9880TIP3    H251056   5.695   0.187   4.219 -0.8262  0.4732  2.9196
 9881TIP3   OH251057   5.322   1.585  15.848  0.3070  0.4229 -0.0171
 9881TIP3    H151058   5.362   1.621  15.927  0.9130  1.9012 -0.9462
 9881TIP3    H251059   5.390   1.529  15.810  0.1242 -0.0454  0.3359
 9882TIP3   OH251060   1.900   6.381  15.576 -0.1545  0.1925 -0.2088
 9882TIP3    H151061   1.962   6.307  15.574  0.0308  0.2545  1.6297
 9882TIP3    H251062   1.869   6.388  15.486 -1.2340 -3.0202 -0.2019
 9883TIP3   OH251063   1.624   5.421  11.172  0.0221 -0.6478 -0.2692
 9883TIP3    H151064   1.538   5.431  11.131  0.0381 -0.5965 -0.2907
 9883TIP3    H251065   1.669   5.504  11.153 -0.7822  0.3474  1.8147
 9884TIP3   OH251066   1.467   5.273  10.517 -0.4954  0.1848 -0.0905
 9884TIP3    H151067   1.384   5.266  10.469  1.1450 -0.0043 -3.1647
 9884TIP3    H251068   1.487   5.184  10.544  0.1796 -0.3780 -2.2247
 9885TIP3   OH251069   6.723   0.949  14.499 -0.6749  0.5491  0.9129
 9885TIP3    H151070   6.650   0.952  14.560 -0.1228 -0.2892  1.6571
 9885TIP3    H251071   6.766   0.865  14.518 -0.4318  0.3067 -0.5730
 9886TIP3   OH251072   3.372   0.277   0.893  0.5656  0.4000 -0.1599
 9886TIP3    H151073   3.412   0.362   0.907  2.5673 -0.6142  0.6575
 9886TIP3    H251074   3.365   0.239   0.981 -1.3079  0.1029 -0.3836
 9887TIP3   OH251075   6.310   2.964   2.971  0.8750 -0.4633  0.6799
 9887TIP3    H151076   6.340   2.884   2.929  2.0546  0.1318  0.3461
 9887TIP3    H251077   6.238   2.936   3.028 -0.4291 -1.3769 -1.2833
 9888TIP3   OH251078   4.081   3.426  14.208 -0.1654  0.1783 -0.0006
 9888TIP3    H151079   4.047   3.340  14.184  1.6273 -1.1446  1.8269
 9888TIP3    H251080   4.156   3.439  14.150 -0.2173  0.3351 -0.0328
 9889TIP3   OH251081   5.928   3.144   4.120  0.4555 -0.5861 -0.3698
 9889TIP3    H151082   5.879   3.223   4.141  0.6030 -0.7449  0.6044
 9889TIP3    H251083   5.959   3.158   4.030  2.0740  1.2818  0.4164
 9890TIP3   OH251084   4.523   4.339  11.719  0.4179 -0.0628 -0.4482
 9890TIP3    H151085   4.614   4.316  11.700  0.0907 -1.2067 -0.7164
 9890TIP3    H251086   4.472   4.290  11.654 -0.4002  0.3802 -0.1519
 9891TIP3   OH251087   0.943   1.965  14.891  0.0948 -0.0716  0.3528
 9891TIP3    H151088   0.985   2.030  14.835 -1.3972  0.6712  0.0685
 9891TIP3    H251089   0.854   1.957  14.858  0.9015 -4.4941 -1.5740
 9892TIP3   OH251090   4.899   4.676  12.386 -0.5922  0.3937 -0.0154
 9892TIP3    H151091   4.869   4.653  12.297 -0.6732 -0.7974  0.3029
 9892TIP3    H251092   4.970   4.738  12.372 -1.5927  1.4095 -0.8676
 9893TIP3   OH251093   4.544   4.848   3.165  0.3683  0.3164  0.1516
 9893TIP3    H151094   4.484   4.798   3.110  1.1752 -0.6269  0.1126
 9893TIP3    H251095   4.541   4.804   3.250  0.4952  0.6788  0.3483
 9894TIP3   OH251096   3.627   0.781   3.544  0.1031  0.1519 -0.3935
 9894TIP3    H151097   3.597   0.829   3.621 -0.3739 -1.4787  0.4865
 9894TIP3    H251098   3.547   0.751   3.501  0.3555  1.2408 -1.6919
 9895TIP3   OH251099   2.724   3.809   2.370 -0.0767  0.1090 -0.0349
 9895TIP3    H151100   2.668   3.763   2.433 -1.1392  0.7969 -0.4409
 9895TIP3    H251101   2.688   3.897   2.366 -0.8716 -0.2487 -2.5478
 9896TIP3   OH251102   2.005   1.415   1.547 -0.0196 -0.0443  0.2709
 9896TIP3    H151103   2.086   1.373   1.575  1.4060  1.5695 -1.2152
 9896TIP3    H251104   1.979   1.469   1.622  0.7782  0.1347  0.4221
 9897TIP3   OH251105   1.823   4.586   5.551  0.0711  0.1261  1.0479
 9897TIP3    H151106   1.763   4.661   5.551  1.6657  1.4623  0.8865
 9897TIP3    H251107   1.841   4.570   5.644  1.4915  1.4949  1.0621
 9898TIP3   OH251108   3.023   0.014  14.507  0.2426 -0.9808 -0.2034
 9898TIP3    H151109   3.101   0.002  14.561  1.1938 -2.8214 -1.8550
 9898TIP3    H251110   2.952  -0.026  14.558  0.5822 -0.3119  0.8126
 9899TIP3   OH251111   4.813   5.096   0.388 -0.2411  0.2935  0.0816
 9899TIP3    H151112   4.772   5.117   0.305 -2.0805 -1.4733  0.4531
 9899TIP3    H251113   4.793   5.170   0.445 -2.4624 -0.2212  0.0501
 9900TIP3   OH251114   6.394   6.444  12.637  0.2141 -0.1365 -0.3110
 9900TIP3    H151115   6.454   6.381  12.676 -0.7927 -0.2234  1.2219
 9900TIP3    H251116   6.309   6.399  12.640 -0.2368  0.6858 -0.6827
 9901TIP3   OH251117   2.527   3.436   5.917 -0.0261 -0.1792  0.1094
 9901TIP3    H151118   2.552   3.513   5.968  0.4744 -1.0000  1.1444
 9901TIP3    H251119   2.578   3.442   5.837  1.4519 -0.3858  1.0005
 9902TIP3   OH251120   6.604   3.366   2.303 -0.3587 -0.0326  0.3491
 9902TIP3    H151121   6.684   3.325   2.336 -0.4448  0.8935  1.8037
 9902TIP3    H251122   6.633   3.422   2.231  0.1137 -0.6553  0.0461
 9903TIP3   OH251123   2.976   6.016  12.836 -0.0181  0.3511 -0.7857
 9903TIP3    H151124   2.967   6.093  12.779 -0.3006 -0.4249 -1.8068
 9903TIP3    H251125   2.963   5.941  12.778  0.7683 -0.4981  0.0977
 9904TIP3   OH251126   3.113   2.858   3.692  0.2662 -0.0170  0.2464
 9904TIP3    H151127   3.206   2.837   3.687  0.1497 -0.8955  1.2515
 9904TIP3    H251128   3.072   2.807   3.622  0.1889 -2.1104  1.7045
 9905TIP3   OH251129   1.609   5.847   2.266 -0.6216  0.4583 -0.6562
 9905TIP3    H151130   1.527   5.819   2.225 -0.4916 -1.6645  0.3498
 9905TIP3    H251131   1.644   5.766   2.305  2.1714  1.2042 -1.4234
 9906TIP3   OH251132   1.940   3.691  14.867  1.0866  0.2106 -0.3449
 9906TIP3    H151133   1.864   3.705  14.811  0.1662 -0.8394  0.5845
 9906TIP3    H251134   1.984   3.615  14.829  0.4668 -0.4968  0.3038
 9907TIP3   OH251135   4.318   5.464   0.699  0.2716  0.2724 -0.4147
 9907TIP3    H151136   4.326   5.425   0.787 -1.3799  0.9114  0.0411
 9907TIP3    H251137   4.264   5.403   0.650 -0.7053  1.0218 -0.2882
 9908TIP3   OH251138   2.544   0.348  12.467  0.5510  0.1515 -0.0791
 9908TIP3    H151139   2.612   0.336  12.534 -0.8416 -1.3160  1.1505
 9908TIP3    H251140   2.498   0.427  12.494 -0.2235 -0.6199  0.9611
 9909TIP3   OH251141   4.748   3.363  15.411  0.1832  0.0106  0.2186
 9909TIP3    H151142   4.730   3.282  15.364  0.1353  1.2478 -1.9992
 9909TIP3    H251143   4.817   3.405  15.361 -0.5363  1.8506  0.6906
 9910TIP3   OH251144   1.317   4.896  15.141 -0.1517  0.0464 -0.3232
 9910TIP3    H151145   1.291   4.839  15.214 -0.1194  0.6214  0.1479
 9910TIP3    H251146   1.378   4.844  15.090 -0.0808 -0.3233  0.1365
 9911TIP3   OH251147   4.644   6.729   0.239 -0.7484  0.0249  0.2759
 9911TIP3    H151148   4.584   6.692   0.304 -0.8281 -2.9259 -1.2984
 9911TIP3    H251149   4.590   6.790   0.189 -2.2224 -1.6940 -0.3567
 9912TIP3   OH251150   0.385   4.841   2.163  0.0335 -0.1125 -0.0129
 9912TIP3    H151151   0.338   4.913   2.119  1.0589 -0.5441 -1.9384
 9912TIP3    H251152   0.318   4.774   2.177 -0.7708  0.8767  1.1064
 9913TIP3   OH251153   3.959   1.300  14.231  0.2538 -0.4916 -0.1163
 9913TIP3    H151154   3.937   1.309  14.324 -2.3166 -0.6022 -0.6438
 9913TIP3    H251155   4.004   1.381  14.209 -0.2522  0.1022  0.9583
 9914TIP3   OH251156   6.455   1.116  14.974  0.4360  0.2735  0.3767
 9914TIP3    H151157   6.410   1.032  14.965  1.0432 -0.0473  0.2983
 9914TIP3    H251158   6.520   1.101  15.042  0.6883  0.6167  0.2105
 9915TIP3   OH251159   2.296   0.027  12.924 -0.5709 -0.5047  0.0224
 9915TIP3    H151160   2.236  -0.015  12.862 -1.8098  0.6597  0.3919
 9915TIP3    H251161   2.326   0.106  12.879  0.6544 -1.0155 -0.1174
 9916TIP3   OH251162   3.908   3.436  10.602 -0.0469 -0.2402  0.4298
 9916TIP3    H151163   3.998   3.435  10.635 -0.9487 -0.6379  3.1718
 9916TIP3    H251164   3.872   3.520  10.631  0.2641  1.4915 -3.5205
 9917TIP3   OH251165   0.574   1.795   2.925  0.2410 -0.2157  0.0228
 9917TIP3    H151166   0.553   1.868   2.867 -2.0649 -0.4713  0.4306
 9917TIP3    H251167   0.668   1.805   2.943  0.5854  1.0173 -2.1110
 9918TIP3   OH251168   5.228   4.054   2.071 -0.4282  0.6241 -0.4723
 9918TIP3    H151169   5.214   4.133   2.018 -2.4214  0.2780 -0.5261
 9918TIP3    H251170   5.177   4.069   2.151  0.6857  0.1560  0.3598
 9919TIP3   OH251171   0.343   6.343   2.800 -0.4912 -0.0783  0.3438
 9919TIP3    H151172   0.267   6.361   2.745  1.8644  2.0276 -2.5369
 9919TIP3    H251173   0.334   6.404   2.873 -1.4073  0.3392 -0.0978
 9920TIP3   OH251174   1.296   1.401  12.364  0.5352  0.3306 -0.0005
 9920TIP3    H151175   1.389   1.390  12.344  0.4337 -0.8251  0.0844
 9920TIP3    H251176   1.253   1.331  12.315 -0.4231  1.4971 -0.8983
 9921TIP3   OH251177   1.546   1.593   2.207 -0.1810  0.2776  0.5498
 9921TIP3    H151178   1.543   1.660   2.275  0.4734  0.5227  0.3445
 9921TIP3    H251179   1.532   1.511   2.253  2.0885  0.2381  1.2830
 9922TIP3   OH251180   1.073   5.597   4.481 -0.0391  0.4691  0.0162
 9922TIP3    H151181   1.088   5.606   4.576 -2.7114  0.1453  0.5491
 9922TIP3    H251182   1.014   5.669   4.460  0.4965  0.5026 -1.4291
 9923TIP3   OH251183   2.474   0.515   0.693 -0.4406 -0.0128 -0.0451
 9923TIP3    H151184   2.420   0.594   0.697 -0.7689 -0.2602  2.4058
 9923TIP3    H251185   2.479   0.494   0.600 -1.1971  2.2897 -0.6870
 9924TIP3   OH251186   6.611   3.974   2.876 -0.0556  0.0892 -0.2718
 9924TIP3    H151187   6.590   3.968   2.783 -0.7880  1.3392 -0.2104
 9924TIP3    H251188   6.704   3.997   2.879 -0.3622  1.5088 -0.7597
 9925TIP3   OH251189   0.308   0.756   1.899 -0.4036 -0.7321  0.2289
 9925TIP3    H151190   0.232   0.759   1.840  0.2069 -0.9411 -0.5809
 9925TIP3    H251191   0.273   0.718   1.980 -1.1688 -0.8286 -0.1326
 9926TIP3   OH251192   2.920   0.264  13.355  0.3113  0.7336 -0.1911
 9926TIP3    H151193   2.896   0.324  13.285  0.9688  0.0471 -1.0333
 9926TIP3    H251194   2.996   0.305  13.397  1.5766 -0.0565 -1.5851
 9927TIP3   OH251195   5.042   2.839  11.276  0.3609 -0.0712 -0.5018
 9927TIP3    H151196   4.952   2.871  11.281  0.4579  0.5119 -1.8557
 9927TIP3    H251197   5.034   2.744  11.279 -0.3743 -0.0451 -1.1945
 9928TIP3   OH251198   5.294   0.334   2.835 -0.0215  0.0927 -0.3613
 9928TIP3    H151199   5.335   0.406   2.788  0.8640 -1.0075 -1.3329
 9928TIP3    H251200   5.207   0.326   2.796  0.9678 -1.3175 -2.5022
 9929TIP3   OH251201   5.219   4.075  15.627 -0.0603  0.5149 -0.0108
 9929TIP3    H151202   5.254   4.088  15.715  1.1178  1.2738 -0.5653
 9929TIP3    H251203   5.191   4.162  15.599 -1.8608  0.0306  0.1689
 9930TIP3   OH251204   4.257   6.061   5.168  0.0955  0.1667 -0.1295
 9930TIP3    H151205   4.342   6.100   5.147 -0.2269  1.5468  0.9542
 9930TIP3    H251206   4.274   5.967   5.175  1.2798  0.2877 -1.0528
 9931TIP3   OH251207   5.876   6.540  14.322 -0.1460  0.3847  0.1689
 9931TIP3    H151208   5.939   6.531  14.393 -0.2331  0.2332  0.2254
 9931TIP3    H251209   5.847   6.631  14.328  1.1352  0.8958 -0.7423
 9932TIP3   OH251210   5.942   4.781  16.252 -0.0747  0.1286 -0.4450
 9932TIP3    H151211   5.976   4.727  16.182 -1.3913  0.9188 -1.7582
 9932TIP3    H251212   5.924   4.719  16.323 -0.0811 -0.9161 -1.3252
 9933TIP3   OH251213   6.044   1.240  13.086 -0.3894  0.2805 -0.2913
 9933TIP3    H151214   6.116   1.201  13.035  0.4603  1.0243  0.3068
 9933TIP3    H251215   6.059   1.334  13.079 -1.0847  0.4261  0.1819
 9934TIP3   OH251216   0.161   4.247   4.274  0.3577  0.1835  0.0278
 9934TIP3    H151217   0.093   4.222   4.336 -0.1967  0.5311 -0.4316
 9934TIP3    H251218   0.210   4.316   4.318  0.3693 -0.0138  0.3288
 9935TIP3   OH251219   0.693   4.807   0.370 -0.2291  0.2221  0.0970
 9935TIP3    H151220   0.645   4.809   0.454 -0.3780 -2.6525  0.1852
 9935TIP3    H251221   0.777   4.848   0.390 -0.2989 -0.2992  1.6642
 9936TIP3   OH251222   5.184   6.712   0.090 -0.1067  0.0751  0.0414
 9936TIP3    H151223   5.129   6.728   0.013  0.3924  0.2991 -0.2700
 9936TIP3    H251224   5.136   6.646   0.140  0.2544 -1.1511 -1.1832
 9937TIP3   OH251225   3.289   6.420  12.308 -0.2312  0.0088 -0.1221
 9937TIP3    H151226   3.314   6.391  12.220 -3.2235  1.2796 -1.5677
 9937TIP3    H251227   3.282   6.515  12.301  0.0702  0.2103  1.7141
 9938TIP3   OH251228   3.561   3.397  15.558 -0.1073  0.2163 -0.1334
 9938TIP3    H151229   3.574   3.490  15.542  0.6524  0.2384  0.5656
 9938TIP3    H251230   3.581   3.355  15.474  1.4364  0.5316  0.0439
 9939TIP3   OH251231   4.677   3.139  11.818  0.3031  0.6520 -0.0170
 9939TIP3    H151232   4.758   3.146  11.869 -1.5312  2.9641  2.9590
 9939TIP3    H251233   4.613   3.107  11.881 -1.6934  1.5886 -1.4707
 9940TIP3   OH251234   4.876   5.378   3.315  0.0971 -0.1984 -0.1655
 9940TIP3    H151235   4.781   5.389   3.305  0.2643  0.6661 -0.9219
 9940TIP3    H251236   4.892   5.393   3.408 -0.4161  0.4261 -0.1660
 9941TIP3   OH251237   5.479   3.544   5.163 -0.2398  0.1217 -0.2099
 9941TIP3    H151238   5.438   3.630   5.167 -0.4435  0.0296 -0.3176
 9941TIP3    H251239   5.477   3.520   5.070 -2.0043 -0.8678  0.0398
 9942TIP3   OH251240   3.100   6.106   3.637  0.3917 -0.2452 -0.0484
 9942TIP3    H151241   3.120   6.199   3.653  0.8068 -0.3987  0.3368
 9942TIP3    H251242   3.041   6.107   3.562  1.9611  0.2207 -1.3407
 9943TIP3   OH251243   1.127   1.314   2.536  0.2955  0.6012 -0.1642
 9943TIP3    H151244   1.052   1.361   2.500 -0.3445  0.9246  1.5326
 9943TIP3    H251245   1.156   1.368   2.610  2.7001  0.8939 -1.2129
 9944TIP3   OH251246   4.863   4.819  13.772 -0.3053 -0.0771  0.0472
 9944TIP3    H151247   4.918   4.894  13.749  0.6936 -0.9938 -0.6218
 9944TIP3    H251248   4.821   4.845  13.854 -0.5673  1.5070 -0.5580
 9945TIP3   OH251249   6.745   4.756   6.510 -0.0237 -0.4533  0.6072
 9945TIP3    H151250   6.775   4.727   6.424 -1.0089  2.6730 -0.9454
 9945TIP3    H251251   6.656   4.787   6.495 -0.7675 -1.1330  3.1250
 9946TIP3   OH251252   2.090   3.289  12.808 -0.2008 -0.7629 -0.1488
 9946TIP3    H151253   2.009   3.314  12.852  0.8144  0.8661  0.8957
 9946TIP3    H251254   2.155   3.282  12.878  1.1294  0.4422 -1.2017
 9947TIP3   OH251255   0.906   3.283  15.701  0.9832 -0.9551 -0.1858
 9947TIP3    H151256   0.911   3.334  15.621  1.1215 -0.8476 -0.1100
 9947TIP3    H251257   0.991   3.297  15.744  0.3498  0.2279  0.7293
 9948TIP3   OH251258   6.738   4.971   3.987  0.1684 -0.0848 -0.4253
 9948TIP3    H151259   6.717   5.064   3.985 -1.3874 -0.3780 -3.2383
 9948TIP3    H251260   6.653   4.927   3.987  0.8402 -1.4600 -0.9476
 9949TIP3   OH251261   0.669   2.513   0.928  0.0879  0.4182  0.4236
 9949TIP3    H151262   0.645   2.574   0.859 -1.2169 -0.7412 -0.2073
 9949TIP3    H251263   0.604   2.528   0.997  0.1901  0.2269  0.5619
 9950TIP3   OH251264   2.145   6.618   3.003  0.5604  0.0824  0.1042
 9950TIP3    H151265   2.068   6.657   3.044  0.9844  1.2416 -0.1307
 9950TIP3    H251266   2.130   6.524   3.005 -1.2898  0.3156 -0.7689
 9951TIP3   OH251267   1.231   4.934   0.032 -0.4686 -0.1216 -0.4722
 9951TIP3    H151268   1.285   4.991  -0.023 -1.3812  1.0509 -0.1772
 9951TIP3    H251269   1.198   4.867  -0.029  0.8277 -0.5466 -0.7635
 9952TIP3   OH251270   0.631   3.111   0.379  0.0425 -0.3284  0.0035
 9952TIP3    H151271   0.716   3.105   0.424  0.1750 -0.5249 -0.2642
 9952TIP3    H251272   0.570   3.142   0.446 -0.0440 -1.8598  0.6859
 9953TIP3   OH251273   4.790   0.759  13.609  0.7113 -1.2115 -0.5257
 9953TIP3    H151274   4.810   0.750  13.516  0.2192 -0.9761 -0.6612
 9953TIP3    H251275   4.702   0.797  13.611  1.1470 -0.1683  0.0257
 9954TIP3   OH251276   0.451   6.071  16.313  0.2558 -0.4022  0.3201
 9954TIP3    H151277   0.410   6.152  16.344 -1.0310 -0.5130 -0.9685
 9954TIP3    H251278   0.436   6.008  16.383 -2.2277 -0.5441 -0.2387
 9955TIP3   OH251279   6.456   4.794  12.228 -0.1557 -0.1248 -0.1092
 9955TIP3    H151280   6.551   4.799  12.230 -0.0980 -1.2236  0.5504
 9955TIP3    H251281   6.436   4.724  12.165 -0.4547 -1.0615  0.9914
 9956TIP3   OH251282   2.240   2.457   2.595 -0.0652 -0.3153  0.0145
 9956TIP3    H151283   2.328   2.423   2.580 -0.3177 -0.1518 -2.0860
 9956TIP3    H251284   2.248   2.551   2.580 -0.6202 -0.3168 -0.2963
 9957TIP3   OH251285   4.336   3.167   2.714 -0.1892  0.1753 -0.5204
 9957TIP3    H151286   4.322   3.075   2.692  0.0094 -0.1183  0.5428
 9957TIP3    H251287   4.341   3.211   2.629  1.2222 -1.0060 -1.1022
 9958TIP3   OH251288   2.516   1.482  14.818 -0.1172 -0.1990 -0.4725
 9958TIP3    H151289   2.600   1.458  14.857 -0.2918  0.5694  0.4109
 9958TIP3    H251290   2.465   1.519  14.891 -1.7622 -1.9570 -0.6440
 9959TIP3   OH251291   4.865   3.147   2.724 -0.2870 -0.3047  0.3763
 9959TIP3    H151292   4.816   3.099   2.657  0.5972 -1.2313  0.3680
 9959TIP3    H251293   4.798   3.189   2.777 -1.0157  1.7313 -1.9773
 9960TIP3   OH251294   0.645   3.177  11.625 -1.2414  0.0783  0.3199
 9960TIP3    H151295   0.699   3.229  11.566  1.4854 -2.7568  0.0462
 9960TIP3    H251296   0.676   3.200  11.712 -1.2510  0.1424  0.3065
 9961TIP3   OH251297   5.239   5.403  15.580 -0.4944  0.2997  0.5112
 9961TIP3    H151298   5.184   5.384  15.656 -1.3068  0.1430 -0.1050
 9961TIP3    H251299   5.310   5.457  15.615 -1.8639  1.8093  1.0777
 9962TIP3   OH251300   2.731   2.035  11.158 -0.1692 -0.1068 -0.1992
 9962TIP3    H151301   2.772   2.093  11.222 -0.0245 -0.0288 -0.3617
 9962TIP3    H251302   2.805   2.000  11.108 -0.3037  0.0487 -0.5085
 9963TIP3   OH251303   1.027   6.736   6.572  0.3080  0.0455 -0.9828
 9963TIP3    H151304   1.059   6.824   6.594 -2.2803  0.8937 -0.2205
 9963TIP3    H251305   0.978   6.748   6.491 -0.4940 -0.5648 -0.5990
 9964TIP3   OH251306   6.400   2.983  17.134 -0.3708  0.7778  0.2982
 9964TIP3    H151307   6.450   2.909  17.168 -0.5222  0.7999  0.5676
 9964TIP3    H251308   6.452   3.060  17.158 -0.1279  0.7531 -0.1291
 9965TIP3   OH251309   2.348   0.211  12.747  0.0182  0.3345 -1.0200
 9965TIP3    H151310   2.368   0.301  12.772 -0.8829  0.4459 -0.6843
 9965TIP3    H251311   2.287   0.219  12.674 -2.1072  0.0504  0.6166
 9966TIP3   OH251312   5.492   5.621  14.444  0.2103 -0.3666 -0.2664
 9966TIP3    H151313   5.504   5.688  14.512  1.1455 -0.2545 -0.5335
 9966TIP3    H251314   5.415   5.651  14.395 -0.1424 -0.1618  0.4026
 9967TIP3   OH251315   5.049   1.529  15.267  0.4516 -0.3477  1.1136
 9967TIP3    H151316   5.066   1.478  15.188  1.7488  0.6208  0.7309
 9967TIP3    H251317   4.955   1.544  15.266  0.2494 -1.5291  0.5046
 9968TIP3   OH251318   6.443   0.084   2.386 -0.1658 -0.2789 -0.0393
 9968TIP3    H151319   6.381   0.142   2.429  1.0222  1.9621 -1.1518
 9968TIP3    H251320   6.469   0.131   2.307  2.3155 -1.4720 -0.0329
 9969TIP3   OH251321   4.146   2.473   2.985 -0.2642  0.7815  0.1658
 9969TIP3    H151322   4.117   2.446   2.898 -3.1585  0.2888  1.1490
 9969TIP3    H251323   4.211   2.408   3.011 -2.8642 -2.0152  0.1813
 9970TIP3   OH251324   1.779   5.202   0.431 -0.5961 -0.5829 -0.6326
 9970TIP3    H151325   1.768   5.195   0.337  0.3018 -1.2992 -0.6992
 9970TIP3    H251326   1.863   5.247   0.442 -1.3705  0.8276 -0.1572
 9971TIP3   OH251327   0.702   3.493  14.720 -0.4206  0.7922 -0.7002
 9971TIP3    H151328   0.646   3.524  14.791  0.5158  1.5975 -0.3070
 9971TIP3    H251329   0.717   3.400  14.741  0.2394  1.1333  0.4290
 9972TIP3   OH251330   6.629   5.593   3.475 -0.3532  0.0438  0.4545
 9972TIP3    H151331   6.606   5.649   3.400  0.0001 -0.5190 -0.0856
 9972TIP3    H251332   6.621   5.651   3.551  0.4727  0.9683 -0.1368
 9973TIP3   OH251333   3.197   3.182  16.201  0.3832  0.0186 -0.2098
 9973TIP3    H151334   3.261   3.116  16.175  0.2479 -0.1307 -0.1664
 9973TIP3    H251335   3.213   3.256  16.142  0.6970  0.0410 -0.0989
 9974TIP3   OH251336   2.637   6.589   0.695 -0.0717 -0.0171 -0.0429
 9974TIP3    H151337   2.645   6.516   0.633  1.3534  1.4361 -1.6785
 9974TIP3    H251338   2.546   6.617   0.687  0.1368  0.3231 -1.7989
 9975TIP3   OH251339   2.578   3.873   4.831 -0.2164  0.2807  0.5284
 9975TIP3    H151340   2.664   3.858   4.791 -1.0648  0.8968 -1.6914
 9975TIP3    H251341   2.580   3.964   4.860 -0.7271  0.8966 -1.2721
 9976TIP3   OH251342   3.253   1.213  12.360  0.1877 -0.1607  0.0445
 9976TIP3    H151343   3.295   1.161  12.291 -1.2930 -0.8954 -0.3502
 9976TIP3    H251344   3.292   1.181  12.441  0.1979 -1.0320 -0.2891
 9977TIP3   OH251345   2.166   2.457  14.374 -0.2565 -0.0303  0.0747
 9977TIP3    H151346   2.110   2.408  14.314  0.5833 -1.9496  0.7841
 9977TIP3    H251347   2.217   2.390  14.419  2.6885  1.6235 -0.5754
 9978TIP3   OH251348   1.962   0.482   5.331 -0.4472 -0.0707  0.2896
 9978TIP3    H151349   1.998   0.407   5.377  0.1245  0.7120  1.1660
 9978TIP3    H251350   2.028   0.551   5.342 -0.5489  0.3138 -1.2420
 9979TIP3   OH251351   4.059   6.287  14.381  0.3518 -0.3940  0.4043
 9979TIP3    H151352   4.141   6.333  14.400 -0.6967  1.7543  0.0032
 9979TIP3    H251353   4.039   6.240  14.462  0.5095  1.4388  1.5753
 9980TIP3   OH251354   1.791   2.147   4.507 -0.3260 -0.4648  0.1409
 9980TIP3    H151355   1.886   2.140   4.514 -0.1007  0.5050 -1.3978
 9980TIP3    H251356   1.766   2.207   4.577  0.5103  1.0375 -0.7815
 9981TIP3   OH251357   1.558   5.763   5.818  0.8758  0.1900  0.1290
 9981TIP3    H151358   1.615   5.782   5.892 -0.3921  2.1507  0.6734
 9981TIP3    H251359   1.583   5.827   5.751 -1.6219  2.2019  0.9619
 9982TIP3   OH251360   2.153   1.356   4.970 -0.6791 -0.7309  0.3950
 9982TIP3    H151361   2.104   1.287   4.925  0.4745 -0.4159 -1.4571
 9982TIP3    H251362   2.230   1.372   4.914  0.4394  0.2487  2.1112
 9983TIP3   OH251363   2.983   1.259  12.383  0.3044  0.3591 -0.0236
 9983TIP3    H151364   2.965   1.339  12.334 -1.8516 -0.8145 -1.3517
 9983TIP3    H251365   3.073   1.237  12.362  0.3513  1.4786 -1.0998
 9984TIP3   OH251366   0.667   5.157   3.361 -0.2314 -0.2108 -0.8066
 9984TIP3    H151367   0.731   5.145   3.432  0.6807  0.2467 -1.5282
 9984TIP3    H251368   0.584   5.126   3.398  0.3762 -0.6996  0.1980
 9985TIP3   OH251369   1.326   5.220   5.256 -0.6499  0.0461 -0.0247
 9985TIP3    H151370   1.298   5.185   5.340 -0.7848 -0.7866 -0.4080
 9985TIP3    H251371   1.394   5.159   5.226 -1.4015 -0.3127 -1.0357
 9986TIP3   OH251372   1.565   4.209   1.144  0.1451  0.0166 -0.0833
 9986TIP3    H151373   1.507   4.136   1.165 -1.2377  1.3273  0.8534
 9986TIP3    H251374   1.506   4.281   1.124  1.4486  1.4856  1.1713
 9987TIP3   OH251375   0.392   4.121   5.586 -0.4847 -0.4662  0.2282
 9987TIP3    H151376   0.309   4.099   5.543 -0.3246 -0.2590 -0.1974
 9987TIP3    H251377   0.437   4.037   5.594  0.2093 -0.3105 -1.5752
 9988TIP3   OH251378   5.576   2.103   4.459  0.2322 -0.0944 -0.1502
 9988TIP3    H151379   5.637   2.078   4.389 -0.4283 -1.5821 -0.2248
 9988TIP3    H251380   5.513   2.161   4.415  0.0959 -0.6370 -0.6926
 9989TIP3   OH251381   0.663   2.764  16.826 -0.3288 -0.1466 -0.6992
 9989TIP3    H151382   0.601   2.829  16.859 -0.7006 -0.6150 -0.4558
 9989TIP3    H251383   0.695   2.800  16.744  0.2484  0.8264 -0.0676
 9990TIP3   OH251384   1.498   3.103  13.448 -0.1707  0.5556  0.0606
 9990TIP3    H151385   1.444   3.025  13.459 -0.1736  0.8451  2.4604
 9990TIP3    H251386   1.449   3.157  13.386 -1.2346 -0.3925  0.0345
 9991TIP3   OH251387   6.650   0.670  13.006  0.3937  0.2786 -0.7046
 9991TIP3    H151388   6.609   0.671  13.093  1.4024 -0.9063 -0.1715
 9991TIP3    H251389   6.744   0.678  13.024  0.5487  0.9081 -1.7560
 9992TIP3   OH251390   4.050   2.182  14.358  0.3927 -0.1644 -0.4124
 9992TIP3    H151391   4.034   2.119  14.288 -1.0326  0.8127 -1.0060
 9992TIP3    H251392   3.966   2.191  14.403  0.7648  0.7677  0.1323
 9993TIP3   OH251393   5.580   4.249   0.550 -0.4177  0.2191 -0.4998
 9993TIP3    H151394   5.628   4.307   0.491  1.1529  0.0266  0.5435
 9993TIP3    H251395   5.492   4.287   0.555  0.6610  2.8278  0.5080
 9994TIP3   OH251396   1.341   2.775  13.453 -0.7967 -0.3229 -0.3118
 9994TIP3    H151397   1.290   2.783  13.533  2.7056 -0.0476  2.1128
 9994TIP3    H251398   1.361   2.681  13.446 -1.5815 -0.4359 -1.2513
 9995TIP3   OH251399   1.190   4.920  12.502  0.5505  0.3969  0.1748
 9995TIP3    H151400   1.177   4.833  12.539 -0.5238  0.3233 -0.3261
 9995TIP3    H251401   1.184   4.906  12.407 -3.3030  1.4828  0.1072
 9996TIP3   OH251402   0.733   2.559   2.430  0.0358  0.1300 -0.0705
 9996TIP3    H151403   0.798   2.499   2.468  0.0146 -0.7762 -1.3656
 9996TIP3    H251404   0.754   2.558   2.336  0.5130  2.7703 -0.0479
 9997TIP3   OH251405   3.565   3.694  14.910 -0.2843 -0.1168  0.2321
 9997TIP3    H151406   3.605   3.616  14.871 -0.8766  0.6557 -2.1028
 9997TIP3    H251407   3.472   3.671  14.920 -0.7440  0.6908 -1.7765
 9998TIP3   OH251408   5.611   2.439  12.233  0.0640 -0.4734  0.2696
 9998TIP3    H151409   5.585   2.522  12.274  0.1873 -0.3983  0.1945
 9998TIP3    H251410   5.581   2.372  12.295 -1.5854 -0.4758 -0.4577
 9999TIP3   OH251411   4.694   3.881   2.480 -0.6404 -0.3733  0.1738
 9999TIP3    H151412   4.690   3.808   2.419  2.2182 -1.9917  1.6836
 9999TIP3    H251413   4.725   3.842   2.562  1.6497  2.5833  0.8996
10000TIP3   OH251414   0.517   1.838  12.486 -0.2208 -0.4846 -0.0540
10000TIP3    H151415   0.563   1.893  12.422  0.0955 -0.3642  0.2709
10000TIP3    H251416   0.523   1.887  12.568  0.0789 -1.0145  0.2448
10001TIP3   OH251417   2.226   2.515  12.888  0.0103  0.0035  0.0302
10001TIP3    H151418   2.198   2.528  12.979 -1.4976  1.6498 -0.6157
10001TIP3    H251419   2.312   2.557  12.883 -0.5998  1.3489  0.3463
10002TIP3   OH251420   3.609   0.117   1.649 -0.0941 -0.2505  0.6988
10002TIP3    H151421   3.638   0.029   1.624  0.0062  0.0770 -0.3751
10002TIP3    H251422   3.575   0.106   1.738  0.8555 -1.1684  0.9754
10003TIP3   OH251423   3.606   2.784   0.832  0.0258 -0.3016  0.5625
10003TIP3    H151424   3.671   2.727   0.790 -0.4230 -0.7847  0.5119
10003TIP3    H251425   3.648   2.870   0.835 -0.2465 -0.0419 -1.6599
10004TIP3   OH251426   0.198   3.753   6.608  0.1127  0.0412 -0.4198
10004TIP3    H151427   0.248   3.761   6.526  1.8669 -0.0348  0.5756
10004TIP3    H251428   0.108   3.742   6.581  0.6817 -0.1836 -2.3527
10005TIP3   OH251429   4.004   4.599   4.806 -0.5951  0.3977  0.1177
10005TIP3    H151430   4.042   4.685   4.826 -1.5063  0.8007  0.1769
10005TIP3    H251431   4.065   4.560   4.744 -0.6154  1.4692 -0.6136
10006TIP3   OH251432   3.002   2.933   3.120 -0.1216  0.0813 -0.9338
10006TIP3    H151433   3.061   3.008   3.129 -0.3298  0.3793 -1.8514
10006TIP3    H251434   2.951   2.953   3.041 -2.5918  0.6322  0.6748
10007TIP3   OH251435   4.304   6.581   0.165  0.3711 -0.5322 -0.3211
10007TIP3    H151436   4.357   6.554   0.090  1.5960  0.5454  0.1115
10007TIP3    H251437   4.271   6.499   0.202  3.1508 -1.4678  0.3898
10008TIP3   OH251438   4.415   1.571  14.359 -0.0209  0.3981  0.3279
10008TIP3    H151439   4.394   1.631  14.431 -0.2028  0.3639  0.3051
10008TIP3    H251440   4.335   1.520  14.347  0.7692 -1.2320  1.6780
10009TIP3   OH251441   4.561   6.352   1.536 -0.4991  0.0931 -0.4903
10009TIP3    H151442   4.486   6.328   1.590 -0.4791 -0.0310 -0.5182
10009TIP3    H251443   4.551   6.303   1.455 -0.2609 -0.1127 -0.3986
10010TIP3   OH251444   1.304   1.517  15.093 -0.0559  0.9248  0.0387
10010TIP3    H151445   1.333   1.427  15.108  1.6100  1.5767  1.0575
10010TIP3    H251446   1.336   1.565  15.169 -0.2891  2.5178 -0.8350
10011TIP3   OH251447   0.818   1.077   1.390  0.0627  0.0773 -1.0146
10011TIP3    H151448   0.739   1.129   1.376 -1.4404 -2.1891 -1.5813
10011TIP3    H251449   0.851   1.060   1.301 -1.1552 -2.2274 -1.1229
10012TIP3   OH251450   5.459   4.997  15.344  0.1604 -0.1251  0.2456
10012TIP3    H151451   5.433   4.984  15.436  1.2237  2.6362  1.0303
10012TIP3    H251452   5.394   4.947  15.294 -1.8623  0.1611  2.4165
10013TIP3   OH251453   1.856   1.730  12.986 -0.0984  0.4957 -0.9597
10013TIP3    H151454   1.900   1.652  12.950 -0.3800 -0.8189  1.3474
10013TIP3    H251455   1.763   1.708  12.983 -0.1267  0.2680  0.5915
10014TIP3   OH251456   1.516   2.281  15.079 -0.2987 -0.2347 -0.4732
10014TIP3    H151457   1.511   2.373  15.052  0.6202 -0.4386 -1.4238
10014TIP3    H251458   1.601   2.251  15.047 -0.3811 -1.2933  0.2377
10015TIP3   OH251459   0.697   1.989   0.053 -0.4551 -0.2513  0.2687
10015TIP3    H151460   0.633   1.986   0.125 -2.3647 -2.7407 -1.3475
10015TIP3    H251461   0.657   1.935  -0.016  2.3673  0.0724 -1.7651
10016TIP3   OH251462   1.754   4.272  15.466 -0.0678  0.3159  0.8503
10016TIP3    H151463   1.742   4.217  15.388  1.8703 -1.3030  1.6077
10016TIP3    H251464   1.666   4.305  15.485 -0.9217 -0.7645 -0.9360
10017TIP3   OH251465   5.871   0.402  16.928  0.1136 -0.5728 -0.4376
10017TIP3    H151466   5.796   0.460  16.940 -0.3229 -1.2187  0.0227
10017TIP3    H251467   5.916   0.436  16.850 -0.2824  0.2079 -0.3344
10018TIP3   OH251468   3.033   1.150   2.605  0.3643 -0.4289  0.1680
10018TIP3    H151469   3.116   1.122   2.567 -0.3466 -0.3944 -1.4728
10018TIP3    H251470   3.055   1.173   2.696  1.9573 -1.2681  0.0292
10019TIP3   OH251471   0.420   0.336   3.364  0.8156 -0.7405  0.1064
10019TIP3    H151472   0.466   0.420   3.355  1.0040 -0.7757  0.7440
10019TIP3    H251473   0.339   0.348   3.314  0.3597  0.1832  1.0264
10020TIP3   OH251474   0.014   1.660  15.840  0.2219  0.4728 -0.1660
10020TIP3    H151475   0.004   1.651  15.745  1.9470 -0.1332 -0.3186
10020TIP3    H251476  -0.065   1.619  15.876 -0.5444  0.8801 -1.3220
10021TIP3   OH251477   2.077   1.264  13.842  0.4971 -0.2045 -0.4680
10021TIP3    H151478   2.023   1.319  13.898  0.1995  0.0459 -1.0009
10021TIP3    H251479   2.103   1.321  13.770  0.5143 -0.6501 -0.8180
10022TIP3   OH251480   2.141   3.944  11.947  0.1314  0.4105 -0.2568
10022TIP3    H151481   2.177   3.888  11.878 -3.3532 -1.3290 -0.8559
10022TIP3    H251482   2.180   3.910  12.028  1.8184  0.4107 -1.0238
10023TIP3   OH251483   5.850   0.842  15.873 -0.0211 -0.0717 -0.2630
10023TIP3    H151484   5.885   0.753  15.864 -0.0389 -0.1369  0.2640
10023TIP3    H251485   5.925   0.894  15.902 -0.6843 -0.5453  2.6096
10024TIP3   OH251486   1.077   3.746  15.824 -0.6509  0.2081 -0.1360
10024TIP3    H151487   1.094   3.686  15.751 -1.9573 -1.3140  0.7556
10024TIP3    H251488   1.098   3.695  15.902  0.2377  1.6507  0.6003
10025TIP3   OH251489   4.587   2.434  12.440 -0.5040  0.0832 -0.1662
10025TIP3    H151490   4.612   2.375  12.510 -0.3580 -1.2115 -1.2665
10025TIP3    H251491   4.500   2.466  12.464 -0.8460 -1.0715  0.1520
10026TIP3   OH251492   5.052   3.792  16.298 -0.0047 -0.5733  0.0430
10026TIP3    H151493   5.014   3.808  16.384  1.6751  0.1706  0.7019
10026TIP3    H251494   5.028   3.868  16.246 -0.2450 -0.5814  0.1421
10027TIP3   OH251495   0.700   2.462   3.682  0.1452 -0.0216 -1.2375
10027TIP3    H151496   0.773   2.523   3.680  0.3557 -0.2737 -1.2804
10027TIP3    H251497   0.625   2.513   3.651 -0.3186  1.0446  1.4250
10028TIP3   OH251498   1.465   0.775  14.356  0.0999  0.3293 -0.1799
10028TIP3    H151499   1.408   0.757  14.431  1.2996 -0.6066  0.5441
10028TIP3    H251500   1.467   0.692  14.308  0.4435  0.5103 -0.4839
10029TIP3   OH251501   0.803   5.078   4.351 -0.0611  0.3809  0.0894
10029TIP3    H151502   0.778   5.156   4.302  0.0397  1.0207  1.0357
10029TIP3    H251503   0.846   5.022   4.287  0.8636  1.5751 -0.3604
10030TIP3   OH251504   5.727   5.651  12.188 -0.2632 -0.1332  0.7527
10030TIP3    H151505   5.635   5.624  12.186 -0.3143 -0.0529 -1.8932
10030TIP3    H251506   5.772   5.579  12.230 -1.5841  0.1381  2.7759
10031TIP3   OH251507   2.550   6.428  14.144  0.2499 -0.1530  0.1127
10031TIP3    H151508   2.619   6.425  14.209 -0.1944 -2.3884  0.5392
10031TIP3    H251509   2.581   6.493  14.080  2.9125 -1.3126  0.0876
10032TIP3   OH251510   5.005   2.472  12.328  0.0122  0.1613 -0.1913
10032TIP3    H151511   5.043   2.399  12.378 -1.7494 -0.3019  0.5474
10032TIP3    H251512   5.075   2.500  12.270  1.0459 -1.4988  0.1871
10033TIP3   OH251513   5.168   4.487   6.398 -0.2190  0.0098  0.2820
10033TIP3    H151514   5.140   4.567   6.353 -1.4252 -0.4890  0.1275
10033TIP3    H251515   5.190   4.516   6.487  1.9006  0.9542 -0.4648
10034TIP3   OH251516   6.099   0.693  11.624  0.0839 -0.3151 -0.1714
10034TIP3    H151517   6.045   0.656  11.694 -0.3543 -3.1469 -1.8417
10034TIP3    H251518   6.167   0.627  11.609  0.0810  0.1287 -2.4615
10035TIP3   OH251519   3.745   4.898   3.185 -0.2807  1.4408 -0.1196
10035TIP3    H151520   3.679   4.867   3.248  0.2805  1.5908  0.5482
10035TIP3    H251521   3.732   4.842   3.109 -2.3891  2.6318 -0.7137
10036TIP3   OH251522   0.184   5.501   5.859  0.6330 -0.3136 -0.0141
10036TIP3    H151523   0.254   5.446   5.824  1.0278  0.1627  0.0068
10036TIP3    H251524   0.134   5.444   5.917  0.0294 -1.1013 -1.2680
10037TIP3   OH251525   4.723   4.434   0.509  0.2267 -0.2669  0.0650
10037TIP3    H151526   4.791   4.452   0.574 -0.1342  0.5507  0.2295
10037TIP3    H251527   4.700   4.520   0.474 -0.7802 -0.5270  0.0710
10038TIP3   OH251528   0.752   2.545   3.147 -0.6748  0.2587  0.0550
10038TIP3    H151529   0.820   2.532   3.080 -0.2265 -1.1306  0.7362
10038TIP3    H251530   0.670   2.547   3.097 -0.4434 -1.7531 -0.5219
10039TIP3   OH251531   6.134   4.378   2.140 -0.5520 -0.1056  0.6455
10039TIP3    H151532   6.147   4.368   2.235 -0.4572 -3.4928  0.4088
10039TIP3    H251533   6.044   4.348   2.125 -0.7410  0.8873 -0.3014
10040TIP3   OH251534   6.325   2.701   4.843  0.9615  0.2841  0.2121
10040TIP3    H151535   6.337   2.794   4.824  1.7169 -0.1766 -1.8177
10040TIP3    H251536   6.293   2.699   4.933  0.9838  2.4956  0.3251
10041TIP3   OH251537   2.864   4.184   5.133 -0.2402 -0.0425 -0.0458
10041TIP3    H151538   2.791   4.124   5.119  0.0378 -0.5106  0.4839
10041TIP3    H251539   2.875   4.188   5.228  1.5438 -1.3776 -0.1387
10042TIP3   OH251540   4.130   5.485  16.854 -0.7103 -0.0645  0.1718
10042TIP3    H151541   4.128   5.560  16.794 -1.2265 -0.6803 -0.5964
10042TIP3    H251542   4.165   5.413  16.801  0.3779 -0.2359  1.0757
10043TIP3   OH251543   5.161   0.231  14.495  0.2786  0.2525 -0.1486
10043TIP3    H151544   5.229   0.164  14.487 -0.7796 -0.7669 -0.8792
10043TIP3    H251545   5.079   0.181  14.498 -0.7382  1.5580 -3.1445
10044TIP3   OH251546   2.303   0.158   0.379  0.0381  0.2701 -0.1248
10044TIP3    H151547   2.240   0.128   0.313  1.1382 -0.4147 -0.8946
10044TIP3    H251548   2.274   0.117   0.460 -0.4290 -0.1450 -0.4968
10045TIP3   OH251549   0.601   4.994  15.763  0.2675  0.9279  0.4120
10045TIP3    H151550   0.548   4.924  15.725  2.2508 -1.0243  1.0718
10045TIP3    H251551   0.621   5.051  15.689  0.4443 -0.4188 -0.6207
10046TIP3   OH251552   3.912   0.800  12.674  0.1698  0.6474  0.0426
10046TIP3    H151553   3.866   0.781  12.592 -0.5127  0.9771  0.3405
10046TIP3    H251554   3.956   0.718  12.695 -0.6043  0.1874 -0.0594
10047TIP3   OH251555   6.556   3.855  17.111 -0.4439 -0.1559 -0.1884
10047TIP3    H151556   6.508   3.796  17.168 -0.8255 -0.3461 -0.6998
10047TIP3    H251557   6.561   3.937  17.160 -0.1852 -0.5107  0.3880
10048TIP3   OH251558   5.614   1.561   0.949  0.3171  0.3719 -0.1063
10048TIP3    H151559   5.670   1.486   0.968 -0.4105 -0.1017  0.2408
10048TIP3    H251560   5.654   1.602   0.872 -0.2760 -1.4561 -1.4740
10049TIP3   OH251561   5.690   2.031   1.192 -0.2424  0.1745 -1.0867
10049TIP3    H151562   5.743   2.103   1.157  0.1008  1.0404  1.0422
10049TIP3    H251563   5.753   1.977   1.239 -0.7464 -0.6794 -1.3845
10050TIP3   OH251564   4.485   0.631   4.462 -0.3843 -0.2760 -0.3146
10050TIP3    H151565   4.528   0.666   4.540  0.6638 -1.7909 -0.1755
10050TIP3    H251566   4.551   0.576   4.421 -1.7480 -1.5683 -0.8616
10051TIP3   OH251567   5.957   2.505  15.748 -0.2013 -0.1544  0.3706
10051TIP3    H151568   5.943   2.440  15.679  0.6216 -1.1599  1.1150
10051TIP3    H251569   6.023   2.564  15.711 -1.2356  0.5264 -0.4594
10052TIP3   OH251570   2.968   4.358  13.959 -0.1982 -0.1078 -0.2397
10052TIP3    H151571   2.931   4.293  14.018  0.4950  0.2478  0.6031
10052TIP3    H251572   2.993   4.308  13.881  0.8808 -0.9827  0.6260
10053TIP3   OH251573   4.556   3.642   1.448 -0.3312  0.2819  0.5504
10053TIP3    H151574   4.519   3.729   1.435 -1.0006 -0.1093 -0.2242
10053TIP3    H251575   4.612   3.627   1.372 -1.1241 -0.4229  0.0972
10054TIP3   OH251576   1.503   5.445  14.964 -0.3302  0.2931  0.0760
10054TIP3    H151577   1.565   5.514  14.940 -1.2698  0.7765 -1.0529
10054TIP3    H251578   1.555   5.365  14.963  0.4666  0.8003  0.0037
10055TIP3   OH251579   2.394   5.942  12.984  0.2983  0.1068  0.2217
10055TIP3    H151580   2.397   6.019  12.927  3.4764 -0.2732 -0.2552
10055TIP3    H251581   2.364   5.976  13.068 -0.6958  1.3707 -0.5911
10056TIP3   OH251582   6.304   5.789   5.836  0.1739 -0.7568  0.3876
10056TIP3    H151583   6.340   5.701   5.830 -1.4630 -1.4134 -0.7187
10056TIP3    H251584   6.217   5.776   5.876 -0.4016  0.2312 -0.4921
10057TIP3   OH251585   4.794   3.568  11.041  0.0124 -0.1797 -0.3226
10057TIP3    H151586   4.739   3.646  11.028 -0.8141 -0.6065  0.5320
10057TIP3    H251587   4.861   3.575  10.973 -2.2367 -0.6642 -2.7490
10058TIP3   OH251588   2.802   3.049  11.251  0.1090  0.7342 -0.1892
10058TIP3    H151589   2.894   3.028  11.271 -0.2644 -0.5034  0.2716
10058TIP3    H251590   2.794   3.034  11.157  0.0287 -0.5304  0.0115
10059TIP3   OH251591   3.838   1.547  14.430 -0.0677 -0.1695  0.2392
10059TIP3    H151592   3.780   1.473  14.449 -1.5133  0.9739  0.4150
10059TIP3    H251593   3.914   1.533  14.486 -1.2180 -0.4828  1.7751
10060TIP3   OH251594   6.416   2.735   5.476 -0.6892  0.0658  0.5178
10060TIP3    H151595   6.346   2.797   5.455  0.7463  1.0359 -1.7410
10060TIP3    H251596   6.495   2.788   5.482  0.4693 -1.4235 -0.7247
10061TIP3   OH251597   0.969   3.492  12.425 -0.6061 -0.5730  0.0737
10061TIP3    H151598   0.899   3.541  12.381  0.7783  0.3902 -1.1694
10061TIP3    H251599   0.993   3.547  12.501 -0.3848 -0.2843 -0.2013
10062TIP3   OH251600   2.365   3.915   2.517  0.1000  0.2069 -0.2548
10062TIP3    H151601   2.360   3.849   2.448  2.2758 -1.6521  1.1695
10062TIP3    H251602   2.459   3.933   2.525 -0.0545  0.2073  2.2655
10063TIP3   OH251603   4.935   0.749   3.590  0.1709 -0.5103  0.3152
10063TIP3    H151604   4.864   0.689   3.569  0.5777 -1.5726  1.7773
10063TIP3    H251605   4.906   0.792   3.671  0.1895  0.7873 -0.3466
10064TIP3   OH251606   2.684   1.660  15.721  0.5765  0.5020  0.5255
10064TIP3    H151607   2.780   1.657  15.718  0.6907 -2.0385  2.6945
10064TIP3    H251608   2.664   1.726  15.788  0.8627  0.4691  0.6443
10065TIP3   OH251609   2.233   1.109  15.690 -0.4468 -0.2873  0.4652
10065TIP3    H151610   2.151   1.061  15.688  0.6875 -2.3067 -1.1496
10065TIP3    H251611   2.223   1.177  15.623 -0.5386 -1.0322 -0.2886
10066TIP3   OH251612   1.662   4.995  16.432 -0.2139  0.5483 -0.0038
10066TIP3    H151613   1.686   4.943  16.355  1.3526  1.9490 -0.5295
10066TIP3    H251614   1.592   4.945  16.474  0.9259 -1.7643 -0.6757
10067TIP3   OH251615   1.350   5.783  14.773  0.0319 -0.5719  0.1758
10067TIP3    H151616   1.264   5.807  14.738  0.5749  0.4612 -0.5056
10067TIP3    H251617   1.384   5.717  14.712  0.8514  1.0094 -1.1541
10068TIP3   OH251618   6.753   1.862  11.568  0.2348  0.0716 -0.0225
10068TIP3    H151619   6.660   1.860  11.548 -0.1044 -0.8096  1.4610
10068TIP3    H251620   6.759   1.914  11.648  1.0083  0.0236 -0.0429
10069TIP3   OH251621   3.674   5.492  15.012  0.2862 -0.6173 -0.5209
10069TIP3    H151622   3.696   5.401  15.033  2.7382  0.3338  1.5442
10069TIP3    H251623   3.631   5.524  15.092  3.2949  1.1181  0.5382
10070TIP3   OH251624   0.143   0.982   2.025  0.2577  0.3372 -0.4461
10070TIP3    H151625   0.194   0.904   2.004 -1.1067 -0.1415 -2.2114
10070TIP3    H251626   0.121   0.972   2.118  1.6409 -0.4266 -0.1664
10071TIP3   OH251627   0.581   6.744  13.828  0.4576  0.4379  0.1817
10071TIP3    H151628   0.558   6.651  13.832 -1.2556  0.7450 -1.2357
10071TIP3    H251629   0.661   6.747  13.775 -0.5274 -0.1199 -1.4014
10072TIP3   OH251630   4.967   5.119   1.096 -0.2150  0.0761  0.1226
10072TIP3    H151631   5.024   5.184   1.137 -1.9112  1.5717  0.2005
10072TIP3    H251632   4.884   5.126   1.143 -1.4765  0.1931 -1.9975
10073TIP3   OH251633   4.586   3.514   3.317  0.4025 -0.5340  0.0278
10073TIP3    H151634   4.548   3.447   3.262 -0.1544 -0.9347  0.8828
10073TIP3    H251635   4.648   3.467   3.373 -1.1010 -0.6166  1.6825
10074TIP3   OH251636   5.723   3.738  15.503 -0.2788  0.4221 -0.2984
10074TIP3    H151637   5.724   3.643  15.507 -1.4162  0.4183  0.5490
10074TIP3    H251638   5.685   3.759  15.418 -1.8320  0.0705  0.2717
10075TIP3   OH251639   5.979   5.489   0.399 -0.5865  0.4681 -0.2089
10075TIP3    H151640   6.072   5.490   0.377 -0.1510  2.5292  1.3944
10075TIP3    H251641   5.947   5.406   0.364  1.5418  0.2859 -1.9684
10076TIP3   OH251642   3.616   4.531   5.489 -0.4125 -0.0258  0.0491
10076TIP3    H151643   3.679   4.586   5.443 -0.6318 -0.2738 -0.5543
10076TIP3    H251644   3.605   4.454   5.433 -0.9064 -0.1953  0.3681
10077TIP3   OH251645   0.270   6.024   0.455 -0.1216  0.3899 -0.1245
10077TIP3    H151646   0.302   5.950   0.403  1.0590  0.7507  0.0581
10077TIP3    H251647   0.285   6.101   0.400 -0.0679  0.6409  0.2411
10078TIP3   OH251648   4.883   4.586   1.429 -0.6210 -0.1455  0.4803
10078TIP3    H151649   4.958   4.644   1.440  0.8662 -1.9050  0.1984
10078TIP3    H251650   4.885   4.561   1.337 -1.4713 -0.3544  0.5093
10079TIP3   OH251651   5.216   5.471   6.491  0.2935  0.5390  1.0722
10079TIP3    H151652   5.241   5.382   6.467  1.4667  0.9522  0.7131
10079TIP3    H251653   5.124   5.479   6.464 -0.0194 -0.7501  1.6748
10080TIP3   OH251654   1.344   6.636   4.557  0.5048  0.8394 -0.1447
10080TIP3    H151655   1.373   6.721   4.588  1.4995  0.2634  0.5775
10080TIP3    H251656   1.417   6.577   4.576 -0.8144 -0.5241  0.9771
10081TIP3   OH251657   1.251   2.510   2.438 -0.8281  0.3864  0.3535
10081TIP3    H151658   1.174   2.566   2.428 -1.0939  0.0933  0.7289
10081TIP3    H251659   1.312   2.542   2.372 -1.3642  0.4708 -0.1106
10082TIP3   OH251660   6.008   0.155  11.979  0.4082 -0.2318 -0.3497
10082TIP3    H151661   6.036   0.242  12.007  0.9754 -0.7409  0.7275
10082TIP3    H251662   5.918   0.148  12.010  0.0152  0.3337 -1.3200
10083TIP3   OH251663   3.264   6.473   2.496  0.7865 -1.0323 -0.4196
10083TIP3    H151664   3.319   6.465   2.574  0.4683 -1.4630 -0.2335
10083TIP3    H251665   3.184   6.515   2.528  1.9474  2.0588 -1.1486
10084TIP3   OH251666   3.114   6.361  12.524  0.2132  0.0075  0.2437
10084TIP3    H151667   3.031   6.314  12.534 -0.2786  0.7279 -0.2589
10084TIP3    H251668   3.102   6.412  12.443  0.4291  1.5639  1.1565
10085TIP3   OH251669   6.696   4.855   5.351 -0.3481  0.5056 -0.1720
10085TIP3    H151670   6.614   4.876   5.306  0.0428  0.7070 -0.8057
10085TIP3    H251671   6.670   4.833   5.440 -1.1049  0.4498 -0.4010
10086TIP3   OH251672   2.765   0.151  13.593 -0.0268  0.3645 -0.5929
10086TIP3    H151673   2.861   0.151  13.594  0.0018  1.9767  0.8869
10086TIP3    H251674   2.742   0.233  13.550 -0.6952  0.7666  0.4875
10087TIP3   OH251675   1.168   6.771   5.076 -0.1881 -0.4672 -0.1029
10087TIP3    H151676   1.136   6.713   5.006  0.1189  0.2966 -0.8969
10087TIP3    H251677   1.198   6.849   5.030  0.8328 -0.2968  0.8171
10088TIP3   OH251678   6.106   6.272   6.200  0.2487  0.0490 -0.1914
10088TIP3    H151679   6.197   6.293   6.177  0.4991  0.3822  1.0047
10088TIP3    H251680   6.061   6.356   6.197  0.1216 -0.0206 -0.2066
10089TIP3   OH251681   6.574   4.087   2.418 -0.4282 -0.8109 -0.1812
10089TIP3    H151682   6.527   4.167   2.442  2.2231  1.1271 -0.9965
10089TIP3    H251683   6.559   4.027   2.491 -3.6048 -0.1705 -0.1499
10090TIP3   OH251684   0.849   3.889  12.537 -0.3738 -0.5930  0.5365
10090TIP3    H151685   0.768   3.931  12.566 -0.8464 -0.8406 -0.3657
10090TIP3    H251686   0.861   3.922  12.447 -1.0430 -2.7487 -0.4000
10091TIP3   OH251687   0.301   4.659  14.566  1.0193 -0.1312  0.2005
10091TIP3    H151688   0.392   4.685  14.551  1.4530 -1.2323  0.8293
10091TIP3    H251689   0.304   4.564  14.579 -0.2732 -0.2440 -0.1565
10092TIP3   OH251690   5.871   6.456  17.093  0.5373  0.4875  0.3554
10092TIP3    H151691   5.931   6.474  17.021  1.0714  0.6533  0.8473
10092TIP3    H251692   5.912   6.385  17.142 -0.4351 -0.5181 -0.2299
10093TIP3   OH251693   4.527   2.882   4.070  0.4607  0.3728  0.1880
10093TIP3    H151694   4.492   2.801   4.034  0.8837 -0.4839  1.6235
10093TIP3    H251695   4.449   2.935   4.090 -0.1472 -1.3848  3.0723
10094TIP3   OH251696   1.068   3.301   5.750  0.5287 -0.4552 -0.9317
10094TIP3    H151697   1.104   3.214   5.769  1.7818  0.1196 -0.5902
10094TIP3    H251698   1.144   3.353   5.724 -0.0809  0.7600 -0.3417
10095TIP3   OH251699   0.668   0.905   3.935  0.4066  0.2351  0.3176
10095TIP3    H151700   0.596   0.927   3.876  0.2540 -0.6446  0.1547
10095TIP3    H251701   0.744   0.900   3.878  0.6478  1.3928  0.5268
10096TIP3   OH251702   6.374   2.805   4.151  0.6359  0.0587  0.2695
10096TIP3    H151703   6.343   2.739   4.213 -0.0266  1.0692  1.0546
10096TIP3    H251704   6.307   2.874   4.155  0.2799 -0.0924 -1.9825
10097TIP3   OH251705   4.175   5.849   2.782 -1.1419  0.1025 -0.2756
10097TIP3    H151706   4.139   5.778   2.836 -4.6732  2.3472  0.6442
10097TIP3    H251707   4.121   5.850   2.704  1.1154 -0.2817 -1.9539
10098TIP3   OH251708   0.647   1.472  16.224  0.1286 -0.1021  0.3741
10098TIP3    H151709   0.630   1.497  16.134  2.3018 -0.9634 -0.3456
10098TIP3    H251710   0.578   1.410  16.246 -0.3509  0.0285 -0.7232
10099TIP3   OH251711   2.441   3.812   1.009 -0.3278 -0.6075 -0.2471
10099TIP3    H151712   2.378   3.756   0.963  0.2063 -1.5841  0.1612
10099TIP3    H251713   2.512   3.825   0.947 -0.9523  0.5449 -0.7292
10100TIP3   OH251714   1.518   5.360   2.609  0.1839  0.0967 -0.0563
10100TIP3    H151715   1.545   5.431   2.667 -1.3999  0.8522 -0.1920
10100TIP3    H251716   1.536   5.280   2.659  1.2042  0.6059  0.4310
10101TIP3   OH251717   3.545   0.943  13.042  0.1056 -0.0519  0.2556
10101TIP3    H151718   3.584   1.012  13.095 -1.3450  1.8486 -1.0304
10101TIP3    H251719   3.617   0.911  12.988  1.1809 -0.7909  2.0444
10102TIP3   OH251720   1.870   5.183   2.245  0.1091 -0.5069 -0.6495
10102TIP3    H151721   1.963   5.161   2.238  0.3545  0.7505 -1.5527
10102TIP3    H251722   1.844   5.206   2.156 -0.6981  0.5565 -0.1584
10103TIP3   OH251723   1.760   2.088  13.748  0.4342 -0.4837  0.0430
10103TIP3    H151724   1.666   2.070  13.736  0.5946 -0.4619 -1.4744
10103TIP3    H251725   1.803   2.039  13.677  1.3032  1.7464 -1.0736
10104TIP3   OH251726   5.696   1.519   5.889 -0.0633  0.4339  0.2520
10104TIP3    H151727   5.769   1.476   5.845  2.7781 -0.2918  4.9142
10104TIP3    H251728   5.638   1.448   5.915 -0.5135  0.5995 -0.2751
10105TIP3   OH251729   6.148   5.374   3.249  0.2398 -0.0281 -0.7254
10105TIP3    H151730   6.069   5.424   3.273  0.1851 -0.6756  0.5191
10105TIP3    H251731   6.122   5.282   3.258  1.4753 -0.2629  0.9710
10106TIP3   OH251732   5.164   5.111  16.469 -0.3469 -0.4940  0.3243
10106TIP3    H151733   5.216   5.185  16.438 -0.3543  0.1566  1.7890
10106TIP3    H251734   5.087   5.110  16.412  0.9365 -1.0804 -1.4650
10107TIP3   OH251735   3.649   0.606   2.243  0.1353  0.3562 -0.0174
10107TIP3    H151736   3.719   0.605   2.178 -0.8370 -0.5362 -1.0960
10107TIP3    H251737   3.600   0.525   2.226 -2.0294  1.6743 -0.2843
10108TIP3   OH251738   4.577   1.046  16.600 -0.2471 -0.2254  0.6637
10108TIP3    H151739   4.556   1.026  16.508  1.1236 -1.2416  0.5336
10108TIP3    H251740   4.578   1.141  16.604 -0.0023 -0.1639 -0.4737
10109TIP3   OH251741   6.130   0.413  12.062 -0.2081  0.3773 -0.0614
10109TIP3    H151742   6.225   0.409  12.051 -0.3202 -0.9598 -0.8289
10109TIP3    H251743   6.117   0.439  12.153  0.9287 -1.4455  0.6848
10110TIP3   OH251744   4.249   6.006  15.177 -0.0618 -0.1417  0.1315
10110TIP3    H151745   4.203   5.922  15.179  1.4083 -0.9851 -0.1361
10110TIP3    H251746   4.321   5.993  15.115 -0.2671  1.5771 -0.5408
10111TIP3   OH251747   4.586   4.497   5.198 -0.1321  0.1068 -0.3812
10111TIP3    H151748   4.567   4.405   5.177 -2.4586  0.0253  1.6389
10111TIP3    H251749   4.629   4.494   5.283  1.8123  0.8242 -1.2968
10112TIP3   OH251750   5.021   6.186  12.024 -0.1331  0.2350  0.3462
10112TIP3    H151751   4.942   6.219  12.066 -0.7308 -2.0076  1.1252
10112TIP3    H251752   5.080   6.261  12.021 -2.5144  2.2334 -0.9863
10113TIP3   OH251753   5.711   2.689   4.795  0.1097  0.0808 -0.5777
10113TIP3    H151754   5.712   2.768   4.740  0.3663  0.9217  0.5895
10113TIP3    H251755   5.678   2.620   4.738 -0.9781  1.2245 -1.3792
10114TIP3   OH251756   2.293   5.336   3.369  0.0907  0.4980 -0.3927
10114TIP3    H151757   2.199   5.342   3.347  0.1439  0.9673 -0.5026
10114TIP3    H251758   2.300   5.256   3.420 -0.7022  1.4571  1.3124
10115TIP3   OH251759   2.020   2.780   0.294 -0.0616  0.6059  0.3375
10115TIP3    H151760   2.057   2.822   0.372  1.5120 -1.9023  1.0456
10115TIP3    H251761   1.962   2.712   0.329  0.1048 -0.0796 -0.6907
10116TIP3   OH251762   0.106   1.700   1.448 -0.1460 -0.3120 -0.3286
10116TIP3    H151763   0.189   1.703   1.495 -1.6566 -1.7597  2.7331
10116TIP3    H251764   0.131   1.691   1.356  3.1241 -2.1481  0.5561
10117TIP3   OH251765   1.215   5.779   1.501  0.2715 -0.6669  0.0449
10117TIP3    H151766   1.171   5.825   1.430  0.0581  0.4841  0.8886
10117TIP3    H251767   1.297   5.747   1.462 -0.2270 -0.7821 -0.9239
10118TIP3   OH251768   1.964   5.973  16.620 -0.3554  0.4176  0.2830
10118TIP3    H151769   1.973   6.066  16.600 -1.5621  0.4285 -0.2966
10118TIP3    H251770   2.050   5.946  16.653  0.0239  1.7130  0.3706
10119TIP3   OH251771   3.949   6.714   2.828 -0.5754  0.6340 -1.7226
10119TIP3    H151772   3.867   6.721   2.878  0.6651 -0.8794  0.6984
10119TIP3    H251773   3.987   6.802   2.832  0.3527  0.2101  1.7284
10120TIP3   OH251774   5.520   4.946  14.003 -0.5179 -0.0365  0.7556
10120TIP3    H151775   5.585   5.009  14.032 -0.2598  0.4962 -0.8463
10120TIP3    H251776   5.572   4.874  13.966 -0.8223 -0.2882  0.8164
10121TIP3   OH251777   5.264   3.109  15.748 -0.0350  0.6525  0.1605
10121TIP3    H151778   5.169   3.106  15.757  0.1223  0.7654  2.2036
10121TIP3    H251779   5.295   3.031  15.794  0.8816  0.8309 -0.1383
10122TIP3   OH251780   0.490   2.501   4.703  0.5191 -0.0973 -0.0375
10122TIP3    H151781   0.472   2.429   4.764  0.0304  0.1333  0.0934
10122TIP3    H251782   0.405   2.542   4.689  0.7794  0.3895 -0.1995
10123TIP3   OH251783   4.414   4.530  13.280  0.0171  0.1181 -0.1801
10123TIP3    H151784   4.426   4.618  13.315 -1.9731  0.3321  0.0910
10123TIP3    H251785   4.389   4.478  13.356 -1.6285 -0.0268 -0.7908
10124TIP3   OH251786   6.494   4.157   4.973 -0.2260  0.5258  0.2540
10124TIP3    H151787   6.581   4.190   4.997  0.3644 -2.0376  2.0462
10124TIP3    H251788   6.436   4.193   5.039 -0.3007  1.0812 -0.1046
10125TIP3   OH251789   5.242   2.168  14.778 -0.1178  0.2618  0.0024
10125TIP3    H151790   5.324   2.202  14.740  1.2574 -1.6623  1.0708
10125TIP3    H251791   5.249   2.188  14.871 -0.7047 -0.2081  0.1499
10126TIP3   OH251792   1.310   0.228  11.451 -0.0758 -0.0838  0.4759
10126TIP3    H151793   1.233   0.272  11.415  0.3469 -1.4755 -2.4903
10126TIP3    H251794   1.381   0.291  11.439 -0.1694 -0.0614  0.0047
10127TIP3   OH251795   6.032   3.932  17.097  0.0928  0.0570  0.5918
10127TIP3    H151796   6.065   3.848  17.063  0.6615  0.5753 -0.1699
10127TIP3    H251797   6.075   3.998  17.043  1.0137  0.9250  2.3003
10128TIP3   OH251798   4.614   2.263  13.059 -0.3475 -0.2015 -0.3524
10128TIP3    H151799   4.707   2.259  13.081  0.1355 -1.1942 -2.2698
10128TIP3    H251800   4.592   2.174  13.033 -2.4619 -0.5137  2.1451
10129TIP3   OH251801   5.169   0.452  13.014  0.0959 -0.1987  0.3663
10129TIP3    H151802   5.237   0.514  12.986  0.3837 -1.0727 -0.9829
10129TIP3    H251803   5.091   0.478  12.964  1.0664 -2.8422 -2.8773
10130TIP3   OH251804   2.895   2.732   2.383 -0.4800 -0.3822  0.6208
10130TIP3    H151805   2.954   2.726   2.458  0.4136  0.6161  0.0372
10130TIP3    H251806   2.940   2.685   2.313 -1.8793 -2.4109  0.9885
10131TIP3   OH251807   0.295   6.685   2.633  0.1100 -0.3560  0.1428
10131TIP3    H151808   0.327   6.747   2.699 -1.2811  3.5579 -2.5030
10131TIP3    H251809   0.202   6.675   2.653  0.0364 -0.4867 -0.2655
10132TIP3   OH251810   4.838   1.971  11.338 -0.2674  0.5485  0.2466
10132TIP3    H151811   4.825   1.888  11.293  1.2329  0.7672 -0.6716
10132TIP3    H251812   4.821   1.951  11.430  1.8270 -1.2791  0.3303
10133TIP3   OH251813   3.436   4.371   1.419  0.8724  0.2183  0.1738
10133TIP3    H151814   3.378   4.388   1.493 -0.2245  0.2253 -0.6678
10133TIP3    H251815   3.520   4.408   1.446  0.2773  0.9659  1.0845
10134TIP3   OH251816   2.942   4.107   5.896  0.0463  0.5008 -0.2482
10134TIP3    H151817   2.962   4.200   5.902 -1.4938  0.8394  0.0230
10134TIP3    H251818   2.988   4.078   5.817 -0.2688  1.7126 -0.8965
10135TIP3   OH251819   4.246   3.780   0.528 -0.2834  0.8077  0.2390
10135TIP3    H151820   4.180   3.743   0.469  0.0004 -1.4038  1.2048
10135TIP3    H251821   4.195   3.809   0.604 -0.1635 -2.1308  1.5837
10136TIP3   OH251822   6.334   0.189   2.711 -0.1993 -0.0243 -0.8255
10136TIP3    H151823   6.323   0.155   2.800 -0.6816 -2.0850 -1.6264
10136TIP3    H251824   6.257   0.244   2.697  0.4416  1.2468  0.3944
10137TIP3   OH251825   0.507   6.057  16.694  0.3650  0.3138 -0.1649
10137TIP3    H151826   0.437   6.116  16.723  2.1012  2.6189 -0.3511
10137TIP3    H251827   0.526   6.003  16.771 -0.9088  0.3638  0.2078
10138TIP3   OH251828   0.684   3.932  15.232 -0.3133  0.0698  0.0114
10138TIP3    H151829   0.611   3.942  15.293 -1.1798 -0.3151 -0.9354
10138TIP3    H251830   0.700   3.838  15.229 -0.8305 -0.0022 -0.9609
10139TIP3   OH251831   3.719   0.205  11.118 -0.1324  0.7327  0.4440
10139TIP3    H151832   3.737   0.121  11.159  0.7275  0.3545 -0.6455
10139TIP3    H251833   3.650   0.186  11.054  1.5647  0.3259 -1.3630
10140TIP3   OH251834   6.020   0.185   5.844 -0.1713 -0.5118 -0.2760
10140TIP3    H151835   6.026   0.265   5.896  1.5747 -1.3213  0.8451
10140TIP3    H251836   6.018   0.217   5.753 -1.9595  0.8665  0.2015
10141TIP3   OH251837   0.138   1.294  13.904  0.2679 -0.1400 -0.2068
10141TIP3    H151838   0.225   1.311  13.938  0.1422 -1.2396  0.6922
10141TIP3    H251839   0.146   1.309  13.810  1.1844  0.6789 -0.0108
10142TIP3   OH251840   5.728   4.332  12.010 -0.2354  0.1178  0.1175
10142TIP3    H151841   5.769   4.256  11.968 -0.4482 -0.8564  1.5962
10142TIP3    H251842   5.634   4.310  12.011 -0.1875 -0.1398  1.5185
10143TIP3   OH251843   6.096   2.470   5.665  0.1559  0.1088 -0.3304
10143TIP3    H151844   6.161   2.439   5.728  1.3691  2.4483 -0.3347
10143TIP3    H251845   6.016   2.480   5.717 -0.3389 -2.9373 -0.3591
10144TIP3   OH251846   2.125   5.340  13.768  0.0915 -0.2954  0.1236
10144TIP3    H151847   2.078   5.382  13.840 -1.4898 -0.2763 -0.8582
10144TIP3    H251848   2.215   5.331  13.799 -0.1436  1.3390  1.4076
10145TIP3   OH251849   4.078   6.657   2.013  0.0152  0.1571  0.0960
10145TIP3    H151850   4.016   6.649   1.939 -2.0019 -1.6639  1.8465
10145TIP3    H251851   4.036   6.719   2.072 -0.0641 -0.9354  1.2152
10146TIP3   OH251852   5.734   6.079  11.526  0.2984  0.5580  0.4921
10146TIP3    H151853   5.748   6.010  11.461 -0.3291  1.6784 -0.8923
10146TIP3    H251854   5.639   6.085  11.536  0.3275  1.4017  0.3769
10147TIP3   OH251855   0.122   3.622  12.978 -0.2138 -0.3647 -0.4608
10147TIP3    H151856   0.073   3.703  12.966  1.2806  0.5890 -0.3756
10147TIP3    H251857   0.072   3.573  13.043 -0.5616  0.9877  0.3283
10148TIP3   OH251858   0.031   4.142  10.898  0.3441  0.5928 -0.0720
10148TIP3    H151859  -0.051   4.132  10.850  0.0630 -1.6480  0.7497
10148TIP3    H251860   0.018   4.220  10.952 -1.5847 -0.1338  0.6055
10149TIP3   OH251861   4.865   2.344   5.047 -0.4588 -0.2707  0.3066
10149TIP3    H151862   4.853   2.439   5.054 -0.5405 -0.2656  0.1001
10149TIP3    H251863   4.830   2.310   5.130  0.5825 -0.0311  0.8586
10150TIP3   OH251864   3.332   5.519  12.704 -0.1403 -0.0166 -0.2504
10150TIP3    H151865   3.323   5.563  12.789  0.0030 -2.2121  0.9603
10150TIP3    H251866   3.242   5.499  12.677 -0.0851 -2.4717  1.1727
10151TIP3   OH251867   1.602   2.082  16.016  0.0609 -0.1015  0.8803
10151TIP3    H151868   1.668   2.101  15.950  0.0173 -0.3070  0.7742
10151TIP3    H251869   1.651   2.041  16.088 -0.0390 -0.9042  0.5104
10152TIP3   OH251870   4.188   5.116  13.947  0.0812  0.3297  0.0830
10152TIP3    H151871   4.213   5.056  13.877 -1.3359 -1.5685  1.1264
10152TIP3    H251872   4.250   5.189  13.939  2.3394 -1.5578 -0.8277
10153TIP3   OH251873   0.784   2.561  12.383 -0.0257  0.8097  0.0839
10153TIP3    H151874   0.756   2.641  12.338 -0.9586  1.0629  1.0820
10153TIP3    H251875   0.854   2.526  12.328 -0.7388  1.4170 -1.2485
10154TIP3   OH251876   2.188   1.733  11.424 -0.2028 -0.2852  0.0305
10154TIP3    H151877   2.232   1.808  11.464  0.1000 -0.1160 -0.6049
10154TIP3    H251878   2.117   1.713  11.484  0.4228 -0.2339  0.8102
10155TIP3   OH251879   2.916   1.212   1.135  0.2387 -0.3705 -0.8043
10155TIP3    H151880   2.932   1.121   1.111  0.5306 -0.5801  0.1546
10155TIP3    H251881   2.975   1.229   1.208 -0.2324  0.4063 -0.5864
10156TIP3   OH251882   1.500   2.066   3.868  0.0265 -0.7465  0.5272
10156TIP3    H151883   1.504   2.101   3.957 -2.4672 -1.0839  0.8463
10156TIP3    H251884   1.495   2.143   3.812 -0.4517 -0.5437  0.8435
10157TIP3   OH251885   6.081   3.834   4.175 -1.0279  0.4802 -0.4864
10157TIP3    H151886   6.052   3.742   4.171  0.2073 -0.0730  1.5029
10157TIP3    H251887   6.174   3.831   4.152 -1.1458  1.3420 -1.0942
10158TIP3   OH251888   2.313   5.899   6.140 -0.3975 -0.4975  0.3236
10158TIP3    H151889   2.260   5.890   6.218  1.0280  1.0106  1.5341
10158TIP3    H251890   2.397   5.857   6.162  0.4602  1.0171  0.1024
10159TIP3   OH251891   3.124   1.414   1.894  0.4435 -0.1755 -0.3580
10159TIP3    H151892   3.057   1.482   1.900  1.2675  0.8407 -2.0246
10159TIP3    H251893   3.125   1.374   1.981 -0.0678  1.9204  0.6828
10160TIP3   OH251894   0.495   2.483  13.848 -0.1427  0.7418 -0.7569
10160TIP3    H151895   0.525   2.401  13.808  0.0857 -0.3091  1.4503
10160TIP3    H251896   0.574   2.521  13.886 -0.6325  0.7788  0.2591
10161TIP3   OH251897   2.722   5.245  11.709 -0.3307 -0.1107  0.6815
10161TIP3    H151898   2.800   5.298  11.726 -0.3343 -0.4099  1.6924
10161TIP3    H251899   2.712   5.191  11.788 -0.6837 -1.1703 -0.0796
10162TIP3   OH251900   3.930   3.329   0.528  0.1146 -0.4984  0.0185
10162TIP3    H151901   4.012   3.303   0.487 -0.5344 -0.7604 -1.1320
10162TIP3    H251902   3.865   3.265   0.497 -0.4043 -0.7158  1.4550
10163TIP3   OH251903   2.673   6.195   6.078  0.3360 -0.2226  0.2422
10163TIP3    H151904   2.598   6.248   6.107  0.1416 -0.7855  0.7803
10163TIP3    H251905   2.633   6.118   6.037  0.6219 -0.1873 -0.1055
10164TIP3   OH251906   0.013   3.193  13.245  0.2107 -0.1577  0.3639
10164TIP3    H151907  -0.067   3.148  13.274  1.4884 -3.2125 -0.4902
10164TIP3    H251908   0.074   3.182  13.317  0.7077 -0.2452 -0.0659
10165TIP3   OH251909   2.301   5.483   1.612  0.2507 -0.4121  0.2346
10165TIP3    H151910   2.258   5.500   1.696 -0.9871 -0.3369 -0.3870
10165TIP3    H251911   2.286   5.390   1.596  0.5862 -0.4513  0.1456
10166TIP3   OH251912   0.421   6.408   1.623  0.1154 -0.3353 -0.2672
10166TIP3    H151913   0.491   6.424   1.686  0.5758  0.6608 -1.0156
10166TIP3    H251914   0.461   6.427   1.538 -1.1675  0.6366 -0.6754
10167TIP3   OH251915   2.459   5.876  11.055  0.3736  0.1375 -0.2676
10167TIP3    H151916   2.415   5.927  11.123  0.5625  0.4949 -0.4099
10167TIP3    H251917   2.450   5.930  10.976 -0.2337 -0.4791 -0.6284
10168TIP3   OH251918   5.348   4.332  12.235  0.4173  0.3391 -0.7413
10168TIP3    H151919   5.324   4.351  12.326  1.0375  1.1620 -0.7320
10168TIP3    H251920   5.294   4.391  12.183  0.0439 -0.1502 -0.9163
10169TIP3   OH251921   4.166   1.109   5.320 -0.0350  0.2416 -0.2968
10169TIP3    H151922   4.105   1.099   5.393  1.3022  0.6686  0.9389
10169TIP3    H251923   4.120   1.165   5.258 -0.4496  1.6052  1.1772
10170TIP3   OH251924   0.459   5.005  11.626 -0.2319  0.0732  0.4354
10170TIP3    H151925   0.514   4.930  11.651  0.9161  0.6943 -0.1670
10170TIP3    H251926   0.420   5.034  11.709  3.0690  1.7551  1.5942
10171TIP3   OH251927   5.844   0.294   4.507  0.1616 -0.8128 -0.0276
10171TIP3    H151928   5.821   0.332   4.422  1.4599  1.5823  0.6254
10171TIP3    H251929   5.760   0.284   4.552 -0.6922 -3.2502 -1.9391
10172TIP3   OH251930   5.895   1.404  16.894 -0.1940 -0.5674  0.2703
10172TIP3    H151931   5.929   1.493  16.905 -3.1500  1.1124 -2.5887
10172TIP3    H251932   5.938   1.372  16.814  1.2425 -2.0440  1.5543
10173TIP3   OH251933   1.026   5.033   2.650 -0.1495  0.1769 -0.1064
10173TIP3    H151934   0.970   4.957   2.644  1.6221 -1.1510 -0.7162
10173TIP3    H251935   1.001   5.076   2.732 -0.0469 -2.0054  1.1201
10174TIP3   OH251936   1.891   3.641   4.682  0.0674 -0.1545 -0.4102
10174TIP3    H151937   1.878   3.576   4.751  0.8934  0.8545  0.7333
10174TIP3    H251938   1.958   3.699   4.716 -0.6866  1.3476 -1.3796
10175TIP3   OH251939   0.866   6.609  14.232  0.1904 -0.5241 -0.1014
10175TIP3    H151940   0.947   6.613  14.182 -0.2720 -1.2847 -0.9454
10175TIP3    H251941   0.831   6.698  14.229  0.9562 -0.2110  0.2148
10176TIP3   OH251942   1.157   1.888   4.894  0.3979 -0.0683 -0.0313
10176TIP3    H151943   1.080   1.836   4.869 -0.6549  1.2039  0.4566
10176TIP3    H251944   1.126   1.978   4.894  0.9243  0.2748  3.4233
10177TIP3   OH251945   5.834   4.270  14.825 -0.1688  0.4853 -0.3958
10177TIP3    H151946   5.780   4.222  14.762 -1.3065  1.4653 -0.1823
10177TIP3    H251947   5.862   4.348  14.778  0.0831  0.5722 -0.1077
10178TIP3   OH251948   2.261   5.527  11.570  0.2845 -0.0964 -0.2697
10178TIP3    H151949   2.216   5.560  11.648  0.0443 -1.6698  0.2831
10178TIP3    H251950   2.225   5.580  11.498 -1.4843 -0.3994  0.3284
10179TIP3   OH251951   4.961   4.047  12.435  0.0996 -0.0539 -0.1908
10179TIP3    H151952   4.887   4.107  12.435 -0.5097 -0.7649 -1.3187
10179TIP3    H251953   5.034   4.098  12.470 -0.6712  0.9784 -0.0642
10180TIP3   OH251954   0.748   3.628   3.727  0.7047 -0.0764  0.4581
10180TIP3    H151955   0.676   3.684   3.699  0.8775  0.0882  0.3366
10180TIP3    H251956   0.783   3.670   3.805  2.5549  1.5074 -1.1083
10181TIP3   OH251957   0.723   1.297  17.128 -0.4964 -0.0287  0.3727
10181TIP3    H151958   0.640   1.345  17.121 -0.9405 -0.8759 -0.3841
10181TIP3    H251959   0.758   1.297  17.040  1.5019  2.2982  1.0614
10182TIP3   OH251960   0.165   1.838  14.950  0.1028  0.1161 -0.1905
10182TIP3    H151961   0.127   1.890  14.879  1.3180  1.6788  0.2307
10182TIP3    H251962   0.206   1.903  15.008 -0.0315 -1.1851  1.4462
10183TIP3   OH251963   3.800   4.323  17.095  0.1860  0.3308 -0.1316
10183TIP3    H151964   3.714   4.357  17.073 -0.1740 -0.2729  0.3014
10183TIP3    H251965   3.855   4.401  17.108  0.2021  0.7379 -2.1916
10184TIP3   OH251966   5.729   2.276   4.886 -0.4673 -0.4395 -0.0637
10184TIP3    H151967   5.655   2.230   4.846 -2.8924  1.1544  2.2723
10184TIP3    H251968   5.689   2.344   4.940  2.8256  2.1349 -0.5517
10185TIP3   OH251969   5.714   3.146  15.737 -0.2366  0.4001  0.4340
10185TIP3    H151970   5.672   3.231  15.745 -0.5945  0.3310 -0.5315
10185TIP3    H251971   5.807   3.166  15.725 -0.3341  0.6694  0.0945
10186TIP3   OH251972   3.476   2.233   4.908 -0.6204 -0.2930  0.0364
10186TIP3    H151973   3.512   2.302   4.965 -1.4046 -0.7192  1.0919
10186TIP3    H251974   3.544   2.218   4.842  0.5301 -0.0979  1.1340
10187TIP3   OH251975   2.952   5.328  11.246 -0.2252  0.7081 -0.5108
10187TIP3    H151976   2.874   5.272  11.255  1.1428 -1.0161  1.6068
10187TIP3    H251977   3.025   5.266  11.241  1.2633  2.3023  0.5316
10188TIP3   OH251978   6.255   5.572   1.852 -0.3467 -0.0490 -0.1406
10188TIP3    H151979   6.198   5.645   1.826 -0.9708  0.4170  2.2714
10188TIP3    H251980   6.343   5.609   1.851 -0.5854  0.5645  0.3699
10189TIP3   OH251981   3.046   0.002  16.622 -0.2902 -0.0970  0.0398
10189TIP3    H151982   2.966   0.004  16.674 -0.0477 -0.7303  0.4483
10189TIP3    H251983   3.017  -0.016  16.533 -0.6271  0.0311  0.1244
10190TIP3   OH251984   0.757   4.196  14.603 -0.6096  0.6415 -0.1092
10190TIP3    H151985   0.850   4.214  14.611 -0.7260  1.0268  0.3716
10190TIP3    H251986   0.746   4.170  14.511  0.0573  0.0416 -0.0244
10191TIP3   OH251987   5.656   5.907  15.815  0.6428  0.3397 -0.6879
10191TIP3    H151988   5.614   5.951  15.741  0.4105  0.4070 -0.5203
10191TIP3    H251989   5.734   5.959  15.833  0.1399  0.9548 -0.2126
10192TIP3   OH251990   5.558   3.208   1.533 -0.2007 -0.0354 -0.6961
10192TIP3    H151991   5.562   3.293   1.578 -0.4306 -0.0093 -0.7261
10192TIP3    H251992   5.467   3.182   1.539  0.0435 -0.7461  0.1620
10193TIP3   OH251993   4.746   6.678  16.719  0.3472 -0.4532  0.0989
10193TIP3    H151994   4.707   6.725  16.793 -0.3348  1.8813 -1.6312
10193TIP3    H251995   4.781   6.598  16.758  0.2743  0.7839  2.9859
10194TIP3   OH251996   0.076   4.492   5.642 -0.1765  0.1205  0.3624
10194TIP3    H151997   0.083   4.500   5.547 -1.7625  1.0035  0.2966
10194TIP3    H251998   0.109   4.405   5.661 -1.2119 -0.6400 -1.1671
10195TIP3   OH251999   3.365   5.705   2.840  0.1683 -0.2913 -0.2703
10195TIP3    H152000   3.416   5.631   2.806 -0.5482 -0.5363 -0.8388
10195TIP3    H252001   3.285   5.665   2.873 -0.1525  0.2153 -0.4276
10196TIP3   OH252002   0.269   4.761   4.293 -0.1973 -0.2104  0.4686
10196TIP3    H152003   0.184   4.781   4.254  0.4046 -1.6273 -1.8137
10196TIP3    H252004   0.303   4.846   4.321 -1.7948  0.5539  0.2062
10197TIP3   OH252005   4.853   6.116  14.665  0.2549 -0.1628  0.7847
10197TIP3    H152006   4.813   6.033  14.689 -0.9492  0.5803  1.4693
10197TIP3    H252007   4.946   6.096  14.654 -0.2525 -1.9515 -0.8162
10198TIP3   OH252008   4.465   6.087   3.976 -0.2564 -0.4583 -0.2653
10198TIP3    H152009   4.482   6.112   4.067  0.9442 -0.9643 -0.3433
10198TIP3    H252010   4.510   6.003   3.965 -2.5163 -1.7105 -0.6064
10199TIP3   OH252011   4.679   3.795  14.304 -0.0198  0.2682  0.1117
10199TIP3    H152012   4.606   3.733  14.294  0.1498 -0.0779  0.9638
10199TIP3    H252013   4.752   3.754  14.259  0.1558 -0.2810  0.8667
10200TIP3   OH252014   1.509   4.294  15.729 -0.5959  0.2652  0.3068
10200TIP3    H152015   1.561   4.322  15.804 -0.2798  3.3670 -0.9034
10200TIP3    H252016   1.420   4.323  15.750 -0.0413  3.9583 -1.5320
10201TIP3   OH252017   2.922   6.342   5.985  0.1408 -0.4376 -0.1481
10201TIP3    H152018   2.954   6.334   6.075  0.9468  1.3245 -0.2428
10201TIP3    H252019   2.838   6.297   5.986  0.8229 -1.8047  1.0838
10202TIP3   OH252020   4.807   6.609  11.263  0.2252  0.1201 -0.1083
10202TIP3    H152021   4.750   6.666  11.212 -0.3082  1.8954  2.2866
10202TIP3    H252022   4.762   6.525  11.264  0.4086 -0.0976 -2.7029
10203TIP3   OH252023   5.935   4.880   3.680  0.5013  0.3492 -0.1686
10203TIP3    H152024   5.953   4.792   3.711  0.6837  0.0249 -1.1622
10203TIP3    H252025   6.001   4.934   3.723  1.0109 -0.1524 -0.3081
10204TIP3   OH252026   0.418   3.216  15.830 -0.3055  0.3275 -0.3196
10204TIP3    H152027   0.383   3.299  15.797 -1.1742  0.3041  0.5070
10204TIP3    H252028   0.375   3.204  15.914  2.0959  0.5788  1.0512
10205TIP3   OH252029   4.743   6.598  16.139 -0.1040 -0.0774 -0.2193
10205TIP3    H152030   4.692   6.557  16.209  0.2588 -0.5940 -0.2506
10205TIP3    H252031   4.735   6.692  16.155  0.7532 -0.1973  1.0912
10206TIP3   OH252032   1.830   6.047  11.044 -0.2860 -0.1725  0.1115
10206TIP3    H152033   1.798   6.134  11.070  1.9559  0.7594 -0.0271
10206TIP3    H252034   1.867   6.060  10.957  0.3563 -1.2165  0.2123
10207TIP3   OH252035   3.308   5.085   2.063  0.0538  0.3923 -0.3091
10207TIP3    H152036   3.391   5.062   2.105 -0.9590 -0.1011  1.5468
10207TIP3    H252037   3.302   5.025   1.989  1.0551 -0.0212 -0.0774
10208TIP3   OH252038   2.484   4.578  14.584  0.1146  0.0205  0.0252
10208TIP3    H152039   2.422   4.645  14.553 -0.4543  0.7640  2.4950
10208TIP3    H252040   2.436   4.496  14.577 -1.1460  0.5497  1.5855
10209TIP3   OH252041   0.612   6.049   4.165  0.4999 -0.0342  0.4100
10209TIP3    H152042   0.601   6.139   4.194  0.4113 -0.1492  0.7332
10209TIP3    H252043   0.602   6.054   4.069 -0.2843  0.1806  0.4952
10210TIP3   OH252044   0.224   2.884   1.103 -0.8164 -0.2347  0.3891
10210TIP3    H152045   0.220   2.797   1.063 -0.0669 -0.0759 -0.0532
10210TIP3    H252046   0.210   2.944   1.030 -1.6118  0.0093  0.7453
10211TIP3   OH252047   6.045   4.716   2.046  0.1548  0.4584  0.6527
10211TIP3    H152048   6.111   4.770   2.088  3.7402 -1.5341 -1.8378
10211TIP3    H252049   6.018   4.766   1.969 -2.0301  1.6204  2.0837
10212TIP3   OH252050   6.123   3.354  17.188 -0.0214  0.2522  0.4367
10212TIP3    H152051   6.164   3.315  17.264  1.4255  0.8896  0.0167
10212TIP3    H252052   6.109   3.281  17.127  3.0547  0.3427 -0.5226
10213TIP3   OH252053   6.752   3.609  12.103  0.4794  0.2929 -0.1150
10213TIP3    H152054   6.710   3.530  12.138  0.4853  0.9612  1.5266
10213TIP3    H252055   6.682   3.656  12.060  0.3845 -0.4025 -0.7367
10214TIP3   OH252056   6.307   6.134   0.765  0.0883  0.0804  0.2425
10214TIP3    H152057   6.240   6.105   0.703  1.3119 -0.6091 -0.8081
10214TIP3    H252058   6.366   6.189   0.713  1.6005 -1.1732  0.5516
10215TIP3   OH252059   5.333   4.782   0.549  0.3889  0.1116  0.2354
10215TIP3    H152060   5.258   4.746   0.502 -0.3726  0.2137  1.3329
10215TIP3    H252061   5.378   4.835   0.484  0.4421 -1.2484 -0.8789
10216TIP3   OH252062   3.709   3.242   3.686 -0.0765  0.1592  0.3976
10216TIP3    H152063   3.633   3.273   3.637  0.4735 -0.4206 -0.8724
10216TIP3    H252064   3.783   3.287   3.646  0.4080 -0.4630  0.5874
10217TIP3   OH252065   5.868   6.546  15.998 -0.2820 -0.4169  0.4639
10217TIP3    H152066   5.940   6.599  16.033  0.0274  0.1867 -1.0005
10217TIP3    H252067   5.822   6.605  15.938 -0.3979 -1.5681 -0.6195
10218TIP3   OH252068   3.717   3.464   2.395 -0.5895  0.4858  0.2795
10218TIP3    H152069   3.794   3.476   2.450 -0.3616 -0.3475  0.1670
10218TIP3    H252070   3.720   3.535   2.331  1.4346 -0.8572 -1.2551
10219TIP3   OH252071   0.945   0.727   2.561  0.0087  0.6815  0.4630
10219TIP3    H152072   0.986   0.811   2.540  0.1382  0.2628 -1.1390
10219TIP3    H252073   0.874   0.749   2.622  0.0714  1.9463  0.1067
10220TIP3   OH252074   6.681   5.666  16.694 -0.1433 -1.1262 -0.2326
10220TIP3    H152075   6.673   5.655  16.789 -0.0500 -2.0489 -0.3187
10220TIP3    H252076   6.637   5.749  16.675  1.1031 -0.2061  0.7953
10221TIP3   OH252077   6.553   4.277  13.246  0.1756  0.6428  0.3491
10221TIP3    H152078   6.603   4.355  13.221  0.0995  0.4121 -0.5855
10221TIP3    H252079   6.541   4.285  13.340  0.7734  1.4070  0.3707
10222TIP3   OH252080   4.912   5.086  11.754 -0.3077  0.0743  0.1508
10222TIP3    H152081   4.952   5.001  11.771 -1.8772 -0.4302  1.5096
10222TIP3    H252082   4.902   5.126  11.840  0.5345  1.7339 -0.4738
10223TIP3   OH252083   3.590   2.350  15.548  0.0605  0.0502  0.0857
10223TIP3    H152084   3.666   2.338  15.491  0.8931 -1.9281  1.5114
10223TIP3    H252085   3.584   2.269  15.598 -0.2316  1.8229  3.2425
10224TIP3   OH252086   3.567   2.570  14.482 -0.3831  0.0407  0.1513
10224TIP3    H152087   3.617   2.631  14.428  1.7571 -1.6514  0.0744
10224TIP3    H252088   3.484   2.560  14.436  1.3690 -1.4130 -3.0653
10225TIP3   OH252089   2.418   2.239  14.780 -0.0663  0.2191  0.1359
10225TIP3    H152090   2.495   2.191  14.750 -0.2897 -0.0118 -0.0713
10225TIP3    H252091   2.386   2.188  14.854 -0.7327 -0.3637 -0.5428
10226TIP3   OH252092   2.145   2.574   4.835 -0.2380  0.7427 -0.0934
10226TIP3    H152093   2.148   2.654   4.782 -0.1196  0.5879 -0.3226
10226TIP3    H252094   2.096   2.599   4.913  1.7574  1.6849  0.9363
10227TIP3   OH252095   1.187   5.407   0.670 -0.1023 -0.2950  0.0008
10227TIP3    H152096   1.161   5.494   0.639  1.4179  0.7015  1.3660
10227TIP3    H252097   1.181   5.413   0.765 -1.7253 -2.3092  0.0940
10228TIP3   OH252098   4.626   0.079  15.822 -0.4513 -0.0216  0.4155
10228TIP3    H152099   4.679   0.021  15.767  0.8849  1.1524  0.4371
10228TIP3    H252100   4.563   0.020  15.864  0.7328 -1.4348  0.2824
10229TIP3   OH252101   4.988   0.784  16.507 -0.0391  0.6840 -0.1764
10229TIP3    H152102   5.036   0.782  16.424  0.9540  1.8420  0.3531
10229TIP3    H252103   5.020   0.707  16.554 -0.8906 -0.1996 -0.9949
10230TIP3   OH252104   4.965   1.510   2.386  0.1857  0.0733 -0.2849
10230TIP3    H152105   4.892   1.535   2.443  0.7680 -0.8184  0.8913
10230TIP3    H252106   4.926   1.505   2.298 -0.9437  0.5366  0.1739
10231TIP3   OH252107   4.677   3.997  14.966  0.6806  0.3295 -0.0072
10231TIP3    H152108   4.622   3.931  14.923 -0.9122  2.0406 -0.7173
10231TIP3    H252109   4.660   3.984  15.060  1.7607 -1.3845 -0.0075
10232TIP3   OH252110   3.390   0.748   4.435  0.1611  0.0031 -0.1308
10232TIP3    H152111   3.386   0.674   4.375 -0.4778 -0.3268  0.3013
10232TIP3    H252112   3.479   0.745   4.470  0.1165 -0.6219 -0.0515
10233TIP3   OH252113   3.464   2.941  11.252 -0.1807  0.4342 -0.0857
10233TIP3    H152114   3.381   2.931  11.299  0.0457  0.3305  0.2935
10233TIP3    H252115   3.486   2.852  11.225 -0.9252  0.6361 -1.4642
10234TIP3   OH252116   5.543   0.537  13.096 -0.0989 -0.0129 -0.3371
10234TIP3    H152117   5.474   0.543  13.030 -0.9386  1.4942  0.6412
10234TIP3    H252118   5.609   0.600  13.067 -0.9984  1.5254  0.8156
10235TIP3   OH252119   1.410   4.949  16.912 -0.3847 -0.1463 -0.3416
10235TIP3    H152120   1.482   5.004  16.882  0.0278 -1.0148 -0.9974
10235TIP3    H252121   1.361   5.004  16.973  1.8693 -0.1069  1.5702
10236TIP3   OH252122   5.257   0.585  16.113  0.3259  0.1044 -0.0170
10236TIP3    H152123   5.237   0.506  16.063 -0.0737 -1.7048  2.8007
10236TIP3    H252124   5.350   0.576  16.136  0.1699  0.2281  0.6791
10237TIP3   OH252125   1.879   5.143  13.357 -0.5550 -0.0365 -0.5144
10237TIP3    H152126   1.886   5.219  13.415  1.7057 -0.3750 -0.2692
10237TIP3    H252127   1.805   5.093  13.392  1.2728 -0.7161  2.7417
10238TIP3   OH252128   0.381   1.694   1.561 -0.0547 -0.4813 -0.4033
10238TIP3    H152129   0.405   1.642   1.484  1.7323  0.0516 -0.2429
10238TIP3    H252130   0.347   1.630   1.623 -0.8488 -1.0182 -1.3508
10239TIP3   OH252131   2.513   1.141   4.013  0.2092  0.6750  0.3965
10239TIP3    H152132   2.448   1.158   3.945 -0.4805 -0.4793  0.7458
10239TIP3    H252133   2.573   1.078   3.973  0.6042  1.0574  0.3838
10240TIP3   OH252134   2.631   3.311  15.292 -0.4268 -0.0100 -0.7826
10240TIP3    H152135   2.603   3.307  15.383 -1.5193 -1.6976 -1.1449
10240TIP3    H252136   2.714   3.264  15.290 -0.8640 -0.8097 -0.7825
10241TIP3   OH252137   3.961   3.442  17.002  0.1763 -0.3897 -0.3029
10241TIP3    H152138   4.033   3.493  17.038  0.8337  0.7028 -2.9197
10241TIP3    H252139   3.882   3.481  17.039  0.8057 -1.7370  2.7741
10242TIP3   OH252140   0.572   0.635   5.797 -0.2026  1.0042  0.2554
10242TIP3    H152141   0.496   0.579   5.813  0.8465 -1.0131 -1.3536
10242TIP3    H252142   0.577   0.640   5.701  2.2141  0.2797  0.2953
10243TIP3   OH252143   2.037   0.787  17.086  0.0526 -0.3290  0.4131
10243TIP3    H152144   2.022   0.835  17.004 -0.5033  0.5089  0.9901
10243TIP3    H252145   2.008   0.698  17.067 -0.5462 -0.0201 -0.1525
10244TIP3   OH252146   3.527   4.329  15.624 -0.0506 -0.2185 -0.1695
10244TIP3    H152147   3.440   4.363  15.603 -0.1812  0.9059  1.9355
10244TIP3    H252148   3.587   4.400  15.600  0.0892 -0.2013  0.2234
10245TIP3   OH252149   4.602   6.116  11.520 -0.3538  0.0973  0.7256
10245TIP3    H152150   4.643   6.202  11.530  0.1009 -0.1394  0.8687
10245TIP3    H252151   4.528   6.118  11.581 -0.0790  0.2185  1.0546
10246TIP3   OH252152   3.066   6.403   0.094 -0.0063  0.3568  0.1525
10246TIP3    H152153   3.004   6.454   0.147 -0.9299 -1.3145  0.7911
10246TIP3    H252154   3.012   6.334   0.055  1.2372 -0.3831 -0.3185
10247TIP3   OH252155   3.417   1.572   4.527  0.1850 -0.6641  0.2729
10247TIP3    H152156   3.394   1.576   4.620 -1.8113  0.1699 -0.2197
10247TIP3    H252157   3.439   1.662   4.504 -1.6217 -0.4068 -0.5751
10248TIP3   OH252158   0.498   3.603  14.500  0.4576  0.1163 -0.4409
10248TIP3    H152159   0.557   3.592  14.574 -0.1086  0.8248  0.1270
10248TIP3    H252160   0.539   3.554  14.429  1.6315  0.4530 -0.0082
10249TIP3   OH252161   6.301   1.085  12.507 -0.0192  0.4323 -0.0322
10249TIP3    H152162   6.332   1.170  12.476  1.3552  0.2815  0.8821
10249TIP3    H252163   6.220   1.106  12.554 -0.1060  1.1225 -0.4574
10250TIP3   OH252164   5.623   1.529  11.368  0.0020  0.0848  0.2432
10250TIP3    H152165   5.562   1.559  11.436 -0.2248 -0.0620  0.1043
10250TIP3    H252166   5.571   1.526  11.288  0.4967  1.1618 -0.1356
10251TIP3   OH252167   3.058   1.744   0.301  0.3515 -0.2811 -0.1918
10251TIP3    H152168   2.988   1.767   0.361 -0.1546 -1.2775 -0.3706
10251TIP3    H252169   3.120   1.694   0.354 -0.1735 -1.2989 -0.5052
10252TIP3   OH252170   2.924   0.540   4.855 -0.4651  0.2043 -0.4353
10252TIP3    H152171   2.866   0.465   4.846  0.2953 -0.4105 -0.3786
10252TIP3    H252172   2.976   0.539   4.774 -1.4189  1.5382 -1.0927
10253TIP3   OH252173   4.751   2.979   0.350  0.7007 -0.1963 -0.1533
10253TIP3    H152174   4.781   3.046   0.412  0.9260  0.5199 -1.0137
10253TIP3    H252175   4.800   2.900   0.375  0.0001 -0.2193  1.2480
10254TIP3   OH252176   6.194   6.122  15.304  1.0303 -0.0925 -0.3100
10254TIP3    H152177   6.198   6.088  15.215 -0.7096 -1.2751  0.0178
10254TIP3    H252178   6.172   6.046  15.358  0.8203  0.8414  0.9662
10255TIP3   OH252179   5.793   2.535   5.562 -0.0946 -0.7143 -0.2743
10255TIP3    H152180   5.860   2.598   5.535  0.5837 -1.3116 -0.0094
10255TIP3    H252181   5.718   2.553   5.505 -0.2895  1.0040  0.4621
10256TIP3   OH252182   6.714   1.518  16.805  0.5336  0.0656  0.0781
10256TIP3    H152183   6.724   1.507  16.900 -0.4666 -1.9425  0.0208
10256TIP3    H252184   6.619   1.514  16.791  0.7445 -2.1378 -1.1849
10257TIP3   OH252185   2.299   5.825  10.595  0.1656 -0.0526 -0.4190
10257TIP3    H152186   2.224   5.775  10.629  1.3687 -1.7588 -0.1286
10257TIP3    H252187   2.260   5.906  10.562 -1.5577 -0.0193  1.4711
10258TIP3   OH252188   4.289   4.188  13.662 -0.4225 -0.3682  0.1355
10258TIP3    H152189   4.329   4.126  13.602 -1.0310 -0.8975  0.2652
10258TIP3    H252190   4.194   4.177  13.649 -0.5609 -0.3897  1.0782
10259TIP3   OH252191   3.168   4.009   3.739  0.0475  0.5241  0.4600
10259TIP3    H152192   3.255   4.028   3.772 -0.3724  1.1111  1.2801
10259TIP3    H252193   3.112   4.012   3.817 -0.6180 -0.4152  0.0379
10260TIP3   OH252194   2.453   2.063   1.365  0.3095  0.2092 -0.0991
10260TIP3    H152195   2.478   2.046   1.274 -1.6938  2.4036 -1.1639
10260TIP3    H252196   2.428   2.155   1.366 -2.6400 -0.4745  1.9491
10261TIP3   OH252197   5.091   2.441  13.910 -0.0079  0.2140 -0.0519
10261TIP3    H152198   5.176   2.469  13.945 -0.2259  0.8747 -0.0330
10261TIP3    H252199   5.065   2.511  13.850 -0.1139 -0.4203 -0.7731
10262TIP3   OH252200   5.428   3.989  16.226  0.5101 -0.0159 -0.4074
10262TIP3    H152201   5.466   4.072  16.198  0.8488  0.0645  0.2735
10262TIP3    H252202   5.502   3.929  16.231  0.5215  0.0677  0.6560
10263TIP3   OH252203   0.252   1.589  11.181  0.1520 -0.1657  0.0474
10263TIP3    H152204   0.201   1.653  11.230  0.4619 -0.2325  0.4705
10263TIP3    H252205   0.202   1.572  11.102  0.6549  1.5140 -0.6559
10264TIP3   OH252206   6.258   4.524   0.668 -0.1129  0.3075  0.4797
10264TIP3    H152207   6.201   4.447   0.661 -0.5187  0.4523  1.8653
10264TIP3    H252208   6.229   4.582   0.597 -0.7922 -0.1951  0.3309
10265TIP3   OH252209   0.001   4.760   4.170 -0.0334 -0.3387  0.4840
10265TIP3    H152210  -0.012   4.822   4.099 -2.1334 -0.2238  0.9224
10265TIP3    H252211  -0.049   4.795   4.243  0.5493 -1.4213  1.4470
10266TIP3   OH252212   1.475   1.444  14.636 -0.1294 -0.2333  0.0292
10266TIP3    H152213   1.474   1.366  14.692 -1.6998  0.3448  0.8622
10266TIP3    H252214   1.399   1.433  14.578  0.4237  0.0519 -0.7787
10267TIP3   OH252215   1.548   2.516  12.875  0.1122 -0.9373  0.3222
10267TIP3    H152216   1.475   2.494  12.933 -0.5772 -0.5595 -0.3828
10267TIP3    H252217   1.509   2.521  12.788  0.3708  2.1750  0.2812
10268TIP3   OH252218   4.396   5.679  11.611  0.3345  0.6419 -0.0800
10268TIP3    H152219   4.313   5.646  11.646 -1.5826  2.6075 -2.4553
10268TIP3    H252220   4.446   5.703  11.689 -0.9528 -1.2680  1.4505
10269TIP3   OH252221   3.435   1.674  13.115 -0.0205 -0.2910  0.0495
10269TIP3    H152222   3.351   1.708  13.148 -0.2170 -1.3499  0.6916
10269TIP3    H252223   3.411   1.613  13.045  0.2044 -0.6670  0.2960
10270TIP3   OH252224   1.819   0.473  16.499  0.2203 -0.5633 -0.2723
10270TIP3    H152225   1.820   0.553  16.446  0.2499 -0.4856 -0.1547
10270TIP3    H252226   1.836   0.403  16.436 -1.0438 -0.6057 -0.5881
10271TIP3   OH252227   6.333   5.880  11.681  0.3430 -0.1068 -0.3742
10271TIP3    H152228   6.354   5.946  11.615  1.6017  0.6482  0.7307
10271TIP3    H252229   6.250   5.910  11.719 -0.9006 -1.0553 -2.1839
10272TIP3   OH252230   4.249   3.195  17.044  0.6813  0.0064  0.2497
10272TIP3    H152231   4.255   3.285  17.011  1.1557 -0.2539 -0.4030
10272TIP3    H252232   4.167   3.193  17.093 -0.8880  0.0395 -2.1557
10273TIP3   OH252233   2.926   2.861  10.805 -0.4230  0.5239 -0.0410
10273TIP3    H152234   2.854   2.814  10.848 -0.5812  2.2866  1.8001
10273TIP3    H252235   2.888   2.894  10.724 -1.9297  1.8110  1.1030
10274TIP3   OH252236   4.257   4.036  12.751 -0.1182  0.6243 -0.0186
10274TIP3    H152237   4.170   3.998  12.764  0.7076 -2.0426 -1.4888
10274TIP3    H252238   4.309   4.001  12.824  0.3130  0.0368 -0.5964
10275TIP3   OH252239   1.801   3.929  15.575  0.0813  0.4013 -0.0186
10275TIP3    H152240   1.717   3.959  15.610 -0.5268  0.3209 -1.3605
10275TIP3    H252241   1.864   3.949  15.644 -1.0189  0.5574  0.9738
10276TIP3   OH252242   3.737   0.502   1.258 -0.3288  0.0533 -0.5071
10276TIP3    H152243   3.737   0.586   1.305 -2.0420  0.2311 -0.7614
10276TIP3    H252244   3.717   0.437   1.326  1.4369 -0.2356 -0.2254
10277TIP3   OH252245   1.417   2.571   1.086  0.0961 -0.6976  0.0315
10277TIP3    H152246   1.395   2.496   1.142  1.2638 -0.0078  1.4853
10277TIP3    H252247   1.482   2.536   1.025  1.7289 -0.6007  1.6233
10278TIP3   OH252248   3.200   6.443   1.046 -0.0902  0.2086  0.2430
10278TIP3    H152249   3.232   6.440   0.956  0.7764  0.7492  0.5258
10278TIP3    H252250   3.146   6.364   1.055  0.5323 -0.3037 -0.4812
10279TIP3   OH252251   6.620   1.056   1.120 -0.6861 -0.4724 -0.0656
10279TIP3    H152252   6.545   1.054   1.060 -0.5151 -0.8108 -0.2748
10279TIP3    H252253   6.694   1.079   1.064 -0.5614 -0.5819  0.0561
10280TIP3   OH252254   2.293   0.011   1.169 -0.2615  0.0083 -0.2379
10280TIP3    H152255   2.386  -0.001   1.152 -0.5679 -2.5738 -0.4610
10280TIP3    H252256   2.286   0.012   1.265 -0.0748 -0.4321 -0.2202
10281TIP3   OH252257   5.377   1.713   5.456  0.2983  0.3086 -0.2912
10281TIP3    H152258   5.404   1.688   5.368 -1.9620  0.7079 -1.1710
10281TIP3    H252259   5.363   1.629   5.501  1.9802  0.1038 -0.1026
10282TIP3   OH252260   3.180   2.501  16.540  0.3878 -0.0363 -0.5889
10282TIP3    H152261   3.133   2.583  16.553  1.5246  1.1318 -3.1385
10282TIP3    H252262   3.261   2.511  16.590 -0.9549 -1.1141  1.9396
10283TIP3   OH252263   4.182   3.305   3.498 -0.4982 -0.4513 -0.0292
10283TIP3    H152264   4.252   3.368   3.511 -2.5505  1.9252  0.2252
10283TIP3    H252265   4.227   3.224   3.472  2.3398  0.6344  1.1219
10284TIP3   OH252266   4.943   2.066  12.234  0.1527 -0.0815  0.0785
10284TIP3    H152267   5.039   2.056  12.237  0.0411 -1.1757  0.6571
10284TIP3    H252268   4.918   2.090  12.323 -0.2723 -1.8186  0.4787
10285TIP3   OH252269   3.504   0.988   1.122 -0.4399  0.1808 -0.0691
10285TIP3    H152270   3.424   1.024   1.083 -0.7718 -0.7956 -0.3204
10285TIP3    H252271   3.549   1.064   1.159 -0.5071  1.0518 -1.6498
10286TIP3   OH252272   2.644   5.466  11.049  0.1701  0.3512  0.1960
10286TIP3    H152273   2.660   5.391  11.106  0.9041  0.4706  0.1534
10286TIP3    H252274   2.599   5.530  11.105 -0.4579 -0.1072  0.2311
10287TIP3   OH252275   5.894   1.096   1.201 -0.0967 -0.3726  0.1224
10287TIP3    H152276   5.841   1.113   1.123  0.5451  0.8188 -0.0795
10287TIP3    H252277   5.930   1.009   1.186  0.8212  0.2262 -1.4241
10288TIP3   OH252278   1.486   0.603  13.175  0.0643 -0.3454  0.4505
10288TIP3    H152279   1.533   0.523  13.199  0.0496 -0.0009  1.7250
10288TIP3    H252280   1.478   0.651  13.257  0.3092  1.1001 -0.3415
10289TIP3   OH252281   2.805   0.010   4.244  0.3743  0.2328  0.1372
10289TIP3    H152282   2.814   0.021   4.150  0.7479  1.5683  0.3081
10289TIP3    H252283   2.891  -0.021   4.273  0.0769 -0.7710 -0.0278
10290TIP3   OH252284   3.849   4.977  13.830 -0.1724  0.1535 -0.0031
10290TIP3    H152285   3.852   4.882  13.839  1.0168  0.1367 -0.3791
10290TIP3    H252286   3.872   4.992  13.738  1.2587  0.8636  0.4464
10291TIP3   OH252287   2.238   0.262  11.949  0.0975  0.1644  0.1268
10291TIP3    H152288   2.239   0.334  11.886  1.1380 -1.9864 -2.5446
10291TIP3    H252289   2.146   0.242  11.961 -0.1302 -0.2656 -1.9371
10292TIP3   OH252290   6.390   4.579  12.047  0.3431 -0.5013 -0.0848
10292TIP3    H152291   6.375   4.523  12.123 -0.1093 -2.0439 -1.2463
10292TIP3    H252292   6.460   4.535  11.998  0.8191  0.6080 -0.4211
10293TIP3   OH252293   5.010   5.045   4.994 -0.5742  0.4378  0.1338
10293TIP3    H152294   4.985   5.138   4.995 -1.2172  0.2656  0.8164
10293TIP3    H252295   4.927   4.998   4.981  0.0765  0.0361 -3.7545
10294TIP3   OH252296   1.022   2.891  11.634 -0.4698  0.3233 -0.7998
10294TIP3    H152297   1.051   2.966  11.686  1.0811  0.1575 -1.3831
10294TIP3    H252298   0.948   2.855  11.683  0.9675  0.1293  1.3551
10295TIP3   OH252299   1.024   2.200   1.717 -0.2698  0.3126  0.0495
10295TIP3    H152300   1.091   2.267   1.729  0.2942 -0.3239  0.5997
10295TIP3    H252301   0.977   2.197   1.800 -1.3838  1.1591 -0.5281
10296TIP3   OH252302   6.364   5.686  17.208  0.0765 -0.1465  0.2367
10296TIP3    H152303   6.344   5.615  17.146 -0.9651  2.3437 -2.5116
10296TIP3    H252304   6.293   5.749  17.195  2.5827  2.8836  0.1104
10297TIP3   OH252305   6.005   1.691   5.883  0.2414 -0.5505  0.3752
10297TIP3    H152306   5.977   1.629   5.815  1.4739 -0.1060 -0.5743
10297TIP3    H252307   6.059   1.638   5.943  2.9608 -0.1181 -1.4988
10298TIP3   OH252308   2.296   5.961  15.949  0.2693 -0.2624 -0.3455
10298TIP3    H152309   2.263   6.046  15.977 -4.2578 -2.5135  2.3874
10298TIP3    H252310   2.282   5.959  15.855 -1.9956  1.1632 -0.1008
10299TIP3   OH252311   0.044   2.551  14.253 -0.5720  0.3690 -0.6473
10299TIP3    H152312   0.128   2.542  14.209  0.6190  0.7043  1.4032
10299TIP3    H252313   0.026   2.645  14.252  0.5264  0.6632  1.2828
10300TIP3   OH252314   1.287   2.975   5.268 -0.4323  0.2140 -0.1003
10300TIP3    H152315   1.205   3.007   5.306  0.2121  1.4708  0.3237
10300TIP3    H252316   1.307   2.896   5.318 -0.1862  1.2144  1.4760
10301TIP3   OH252317   4.451   1.166   3.017 -0.0301 -0.1483  0.3761
10301TIP3    H152318   4.384   1.099   3.003 -0.5513 -0.2473  2.8158
10301TIP3    H252319   4.402   1.247   3.030  0.4490  0.1750  0.1921
10302TIP3   OH252320   4.877   2.689   1.914 -0.2862 -0.5844  0.1306
10302TIP3    H152321   4.870   2.719   1.824 -0.1891 -0.1747  0.2595
10302TIP3    H252322   4.874   2.593   1.908 -1.6449 -0.5372 -0.1944
10303TIP3   OH252323   1.807   4.831   5.095  0.2704 -0.0974  0.0735
10303TIP3    H152324   1.783   4.837   5.187  3.2736  0.9212  0.8900
10303TIP3    H252325   1.733   4.787   5.054 -2.8210  2.5457  2.2872
10304TIP3   OH252326   5.022   6.194  11.223 -0.6205 -0.2446 -0.1130
10304TIP3    H152327   4.975   6.168  11.303  0.8303  0.2977  0.9715
10304TIP3    H252328   5.037   6.113  11.176  1.5499 -1.1265  1.9200
10305TIP3   OH252329   0.351   1.988   0.825 -0.6950  0.2515  0.3301
10305TIP3    H152330   0.283   1.964   0.762 -0.1646  1.5608 -0.7841
10305TIP3    H252331   0.363   2.082   0.814  0.6284  0.2147  1.1704
10306TIP3   OH252332   1.017   4.192   1.196  0.8102 -0.9543 -0.6652
10306TIP3    H152333   0.974   4.208   1.280 -1.6923 -3.6982 -1.2534
10306TIP3    H252334   1.032   4.279   1.159 -2.5539  0.2777  0.5063
10307TIP3   OH252335   3.720   2.272   2.714  0.2221 -0.4161 -0.9079
10307TIP3    H152336   3.712   2.330   2.638 -0.3599  0.0970 -0.4670
10307TIP3    H252337   3.634   2.232   2.723  0.5659 -1.1991 -1.0848
10308TIP3   OH252338   5.996   2.304  15.541  0.2904  0.1064  0.3957
10308TIP3    H152339   5.947   2.288  15.460  0.9292 -0.0686  0.0367
10308TIP3    H252340   6.087   2.285  15.518  0.2082 -2.4548  1.8050
10309TIP3   OH252341   6.148   1.592  12.708  0.4261 -0.6227 -0.1240
10309TIP3    H152342   6.189   1.534  12.773 -0.4544 -0.7899  0.2941
10309TIP3    H252343   6.222   1.636  12.666  1.1368 -2.3403 -0.7435
10310TIP3   OH252344   5.728   3.203  15.432 -0.2344 -0.2896  0.0622
10310TIP3    H152345   5.653   3.207  15.491  0.0072 -0.3636  0.3736
10310TIP3    H252346   5.800   3.242  15.482 -0.4394  1.2921 -0.8085
10311TIP3   OH252347   5.720   3.421  11.156  0.0242 -0.0305 -0.4466
10311TIP3    H152348   5.716   3.517  11.148  0.4732 -0.0206 -0.5775
10311TIP3    H252349   5.749   3.392  11.070  2.0628 -0.1291  0.2181
10312TIP3   OH252350   0.717   2.967   4.074  0.1219  0.1070  0.0001
10312TIP3    H152351   0.684   3.034   4.014 -0.0259 -0.2771 -0.3505
10312TIP3    H252352   0.660   2.891   4.059  1.7891 -0.9395 -1.3691
10313TIP3   OH252353   2.272   5.881   4.476  0.1932  0.1265 -0.5746
10313TIP3    H152354   2.367   5.869   4.486  0.2446  1.5320  1.0414
10313TIP3    H252355   2.263   5.936   4.399  0.8677  1.8208  0.5081
10314TIP3   OH252356   3.033   0.141  13.638 -0.3974 -0.3651 -0.3507
10314TIP3    H152357   3.070   0.178  13.559 -0.9292  0.4371 -0.2357
10314TIP3    H252358   3.106   0.096  13.681  0.8180  2.2176  0.5180
10315TIP3   OH252359   0.295   6.349   3.315 -0.4764  0.5922  0.2844
10315TIP3    H152360   0.301   6.301   3.233  1.0164 -0.2380  0.8352
10315TIP3    H252361   0.266   6.283   3.379 -1.9279  1.3006  0.3913
10316TIP3   OH252362   3.125   2.856  17.260  0.3677 -0.0050  0.2109
10316TIP3    H152363   3.179   2.866  17.338  0.4258  1.1576  0.0382
10316TIP3    H252364   3.097   2.764  17.261  1.5983 -0.3856  0.7811
10317TIP3   OH252365   5.062   3.669  16.926 -0.2442 -0.2931 -0.0387
10317TIP3    H152366   5.097   3.582  16.913  1.9209  0.3616  0.8927
10317TIP3    H252367   5.127   3.728  16.887 -1.6595  0.9135 -0.6797
10318TIP3   OH252368   6.644   0.757  11.911  0.0427 -0.0482 -0.1415
10318TIP3    H152369   6.641   0.701  11.988 -0.9167  0.3785  0.1618
10318TIP3    H252370   6.735   0.754  11.882  0.3792 -0.3778  0.8868
10319TIP3   OH252371   2.305   0.934   5.016 -0.4333 -0.2966 -0.0416
10319TIP3    H152372   2.361   1.006   4.986  1.6677 -0.6070  2.7861
10319TIP3    H252373   2.275   0.892   4.935  2.8063  0.3955 -1.7846
10320TIP3   OH252374   0.896   0.989   5.372  0.6733  0.2070  0.1447
10320TIP3    H152375   0.929   0.900   5.383 -3.9100 -1.9429 -0.8629
10320TIP3    H252376   0.846   0.986   5.290 -1.5921  2.9902  1.2308
10321TIP3   OH252377   0.062   5.238   3.759 -0.6234 -0.5696 -0.4103
10321TIP3    H152378  -0.004   5.307   3.768 -0.8541 -1.0005  1.8735
10321TIP3    H252379   0.103   5.255   3.674 -0.8851  2.1972 -0.0993
10322TIP3   OH252380   0.653   3.540   0.975  0.0620  0.2282  0.3856
10322TIP3    H152381   0.722   3.536   1.040  1.0050 -0.4128 -0.6214
10322TIP3    H252382   0.687   3.599   0.907 -0.5192  0.1811  0.0400
10323TIP3   OH252383   4.199   5.257  10.807 -0.2831  0.0196  0.1023
10323TIP3    H152384   4.285   5.299  10.819  0.0655  0.0553 -2.1651
10323TIP3    H252385   4.141   5.306  10.865  0.9724  0.8363  0.7326
10324TIP3   OH252386   5.409   3.516  16.939  0.0961  0.1273  0.5635
10324TIP3    H152387   5.429   3.484  16.851 -1.2325  0.1534  0.2300
10324TIP3    H252388   5.436   3.608  16.938  0.8491 -0.0921  0.4553
10325TIP3   OH252389   6.036   1.168  13.355 -0.2674  0.0771 -0.3915
10325TIP3    H152390   6.129   1.156  13.373 -0.4477 -3.4042 -1.0284
10325TIP3    H252391   6.033   1.191  13.262 -0.0342  3.0028  0.2221
10326TIP3   OH252392   4.664   6.719   3.270 -0.2784 -0.2314 -0.0058
10326TIP3    H152393   4.700   6.633   3.290  0.2634  0.1732  0.7969
10326TIP3    H252394   4.658   6.764   3.354 -1.2031  0.2779 -0.3250
10327TIP3   OH252395   3.458   0.395   3.296 -0.2879  0.3252  0.0439
10327TIP3    H152396   3.379   0.378   3.246 -0.1544  0.7341 -0.3194
10327TIP3    H252397   3.447   0.485   3.328 -0.1169  0.2680  0.2663
10328TIP3   OH252398   4.354   2.555   5.328  0.2474 -0.3227  0.7138
10328TIP3    H152399   4.268   2.512   5.325  0.2346 -0.2460 -1.5154
10328TIP3    H252400   4.403   2.516   5.256  1.9966 -0.1177  1.7395
10329TIP3   OH252401   6.012   5.496  13.402  0.3599  0.2560 -0.3216
10329TIP3    H152402   6.101   5.510  13.432  0.3746  1.8385 -1.0084
10329TIP3    H252403   5.959   5.558  13.452 -0.4218 -0.8560  0.2801
10330TIP3   OH252404   3.375   5.787   4.165  0.2285 -0.1975 -0.4355
10330TIP3    H152405   3.450   5.791   4.106  0.6868 -0.6061  0.1132
10330TIP3    H252406   3.397   5.718   4.228 -1.1625 -1.2683 -1.0449
10331TIP3   OH252407   4.222   2.358  11.942  0.8154  0.1091 -0.0962
10331TIP3    H152408   4.305   2.386  11.903 -0.8760  3.2965 -1.7837
10331TIP3    H252409   4.227   2.388  12.033  0.7861  2.2647 -0.7421
10332TIP3   OH252410   5.770   1.859   5.329  0.5010 -0.3195 -0.1939
10332TIP3    H152411   5.678   1.875   5.308  0.3119 -1.0636  0.0380
10332TIP3    H252412   5.768   1.806   5.409  1.0862 -1.4067 -0.8790
10333TIP3   OH252413   3.961   0.570  17.099 -0.0979  0.0860  0.2909
10333TIP3    H152414   3.911   0.489  17.100  0.3049 -0.1726 -0.1884
10333TIP3    H252415   3.922   0.622  17.029  1.4945 -0.9014 -1.4231
10334TIP3   OH252416   3.955   4.605  16.711 -0.4780 -0.0781 -0.2824
10334TIP3    H152417   4.019   4.616  16.781 -1.6836  0.5279  0.7653
10334TIP3    H252418   3.870   4.605  16.755 -1.3452  1.3189 -1.8279
10335TIP3   OH252419   5.657   1.574   3.485 -0.1913 -0.2611  0.0369
10335TIP3    H152420   5.609   1.657   3.488 -1.3859 -0.8642 -1.2704
10335TIP3    H252421   5.731   1.591   3.427  0.0006  0.1059  0.3903
10336TIP3   OH252422   4.441   0.816   4.280  0.2214  0.3667  0.0120
10336TIP3    H152423   4.433   0.748   4.347 -0.2618  0.5821  0.1780
10336TIP3    H252424   4.458   0.768   4.199  0.2130  0.0692  0.1851
10337TIP3   OH252425   3.508   0.475  11.595  0.2463 -0.1637  0.0748
10337TIP3    H152426   3.597   0.456  11.626  0.5167  0.5581 -0.2452
10337TIP3    H252427   3.490   0.564  11.627  0.2709  0.3355 -1.2603
10338TIP3   OH252428   3.813   4.647  11.098  0.2978  0.1640  0.1924
10338TIP3    H152429   3.828   4.701  11.020 -1.5641  0.5590  0.0544
10338TIP3    H252430   3.857   4.564  11.078 -1.6381 -0.4247 -2.1040
10339TIP3   OH252431   1.181   5.515  13.887 -0.0917  0.2313  0.2273
10339TIP3    H152432   1.152   5.427  13.864  0.0199  0.3361 -0.3218
10339TIP3    H252433   1.110   5.572  13.858 -0.8521  0.2151  1.9257
10340TIP3   OH252434   2.519   0.218   4.969  0.0338 -0.3066  0.0231
10340TIP3    H152435   2.519   0.199   4.875 -0.7608  0.7739 -0.2139
10340TIP3    H252436   2.436   0.263   4.984  1.0323  1.3470  0.8523
10341TIP3   OH252437   6.264   6.678   4.827 -1.0062 -0.1343  0.2087
10341TIP3    H152438   6.190   6.701   4.883 -0.9866 -1.2929  0.7423
10341TIP3    H252439   6.328   6.747   4.843 -1.4363  0.1422  0.7936
10342TIP3   OH252440   4.438   5.976   1.237  0.0098  0.5598 -0.0875
10342TIP3    H152441   4.450   6.018   1.322 -1.6826 -0.3617  0.6474
10342TIP3    H252442   4.519   5.926   1.223  0.5949  1.2828  0.6305
10343TIP3   OH252443   3.734   1.642  17.220 -0.0729  0.5455 -0.2665
10343TIP3    H152444   3.645   1.635  17.253 -0.1225 -0.2314 -0.5538
10343TIP3    H252445   3.790   1.631  17.297 -0.1738 -1.8242 -0.4550
10344TIP3   OH252446   2.631   3.197  15.897 -0.3691  0.8732  0.7296
10344TIP3    H152447   2.719   3.193  15.860 -1.1483 -1.2762 -1.1576
10344TIP3    H252448   2.644   3.203  15.992  1.7836  0.6048  0.4925
10345TIP3   OH252449   6.086   3.413   1.826  0.5716  0.6014 -0.2596
10345TIP3    H152450   6.121   3.451   1.745 -0.1145 -0.2910 -0.9959
10345TIP3    H252451   6.041   3.486   1.869  1.6319  1.2845 -0.2522
10346TIP3   OH252452   0.909   1.766  15.112 -0.1314 -0.2679 -0.3568
10346TIP3    H152453   0.952   1.809  15.038  0.9253  1.8889  1.3928
10346TIP3    H252454   0.969   1.696  15.137  1.4326  1.3568  0.7054
10347TIP3   OH252455   3.551   5.412   3.887  0.5003 -0.1534  0.0894
10347TIP3    H152456   3.594   5.399   3.972  0.5531 -2.3306 -0.2116
10347TIP3    H252457   3.505   5.330   3.871 -0.5000  0.6625 -1.4577
10348TIP3   OH252458   5.297   4.702  17.033  0.1151 -0.1786  0.7618
10348TIP3    H152459   5.262   4.777  16.984  2.0849 -0.6921 -1.6252
10348TIP3    H252460   5.235   4.632  17.017  0.8615 -0.4097 -1.3290
10349TIP3   OH252461   1.237   1.472   1.766 -0.4453 -0.0900  0.2167
10349TIP3    H152462   1.233   1.538   1.696 -1.1068 -0.0293  0.3047
10349TIP3    H252463   1.296   1.510   1.831  0.4866 -0.3142 -0.4718
10350TIP3   OH252464   6.037   2.546  16.007  0.2500 -0.3306 -0.3100
10350TIP3    H152465   5.981   2.533  15.931 -1.1048 -1.1452  0.7721
10350TIP3    H252466   6.094   2.470  16.008 -2.7190 -2.8189  1.8616
10351TIP3   OH252467   4.909   1.980   0.766  0.5299 -0.4135  0.8572
10351TIP3    H152468   4.816   1.978   0.742  0.7884  0.1955 -0.2865
10351TIP3    H252469   4.911   1.961   0.859 -0.4908 -3.9046  0.3045
10352TIP3   OH252470   3.671   5.616   1.608  0.6519  0.0306  0.0050
10352TIP3    H152471   3.680   5.685   1.674  1.3141  0.3837 -0.4414
10352TIP3    H252472   3.707   5.655   1.528 -0.8260 -0.1162 -0.7645
10353TIP3   OH252473   0.215   2.027  15.581  0.6114 -0.2640 -0.5204
10353TIP3    H152474   0.220   1.956  15.517  0.3071  0.8511 -1.8281
10353TIP3    H252475   0.138   2.007  15.633  0.4189 -0.7953 -0.9999
10354TIP3   OH252476   3.515   3.374  13.144 -0.5548 -0.0216 -0.3190
10354TIP3    H152477   3.547   3.312  13.079 -0.2736 -0.4455  0.2102
10354TIP3    H252478   3.453   3.430  13.097 -1.6910 -1.4236 -0.5562
10355TIP3   OH252479   5.381   1.075   4.908 -0.1870 -0.1647  0.4067
10355TIP3    H152480   5.349   1.124   4.833 -0.8923  0.3384  1.0275
10355TIP3    H252481   5.356   0.984   4.890  1.5377 -0.4068 -0.9651
10356TIP3   OH252482   6.453   1.369  14.858  0.5234  0.1393 -0.2378
10356TIP3    H152483   6.445   1.277  14.884 -0.9854  0.3651  0.2265
10356TIP3    H252484   6.466   1.366  14.764  2.9504 -0.6041  0.0636
10357TIP3   OH252485   0.238   5.283   3.547  0.0096  0.6008  0.6961
10357TIP3    H152486   0.324   5.245   3.532 -0.3939 -0.3983  0.8651
10357TIP3    H252487   0.243   5.370   3.507  0.3561 -0.3299 -1.3805
10358TIP3   OH252488   5.002   0.231   2.501 -0.7850  0.1888  0.1691
10358TIP3    H152489   5.054   0.285   2.442  2.5846 -0.8310  1.9455
10358TIP3    H252490   4.987   0.286   2.577 -1.1406  0.0154  0.2276
10359TIP3   OH252491   0.454   5.228   1.293 -0.2594  0.0285 -0.2133
10359TIP3    H152492   0.417   5.258   1.376  1.8362 -0.3000  0.8977
10359TIP3    H252493   0.387   5.250   1.228 -2.2813 -0.3310  1.6147
10360TIP3   OH252494   2.305   1.313  11.849 -0.2104  0.1421  0.4616
10360TIP3    H152495   2.353   1.233  11.869 -0.8144 -0.6894 -1.2564
10360TIP3    H252496   2.356   1.382  11.892  2.7613 -0.6321 -1.5105
10361TIP3   OH252497   3.827   2.449  11.736  1.0590  0.4717  0.4557
10361TIP3    H152498   3.910   2.496  11.745  2.2313 -1.3592 -0.3990
10361TIP3    H252499   3.815   2.438  11.642  1.1191 -1.4145  0.6423
10362TIP3   OH252500   4.442   6.203   5.972  0.0571 -0.8317  0.0253
10362TIP3    H152501   4.466   6.228   6.061  0.1656 -1.1729  0.0947
10362TIP3    H252502   4.450   6.284   5.921 -1.6977 -0.2351  0.6500
10363TIP3   OH252503   2.911   1.920   1.855 -0.1526 -0.0750 -0.2719
10363TIP3    H152504   2.833   1.942   1.906  0.2865 -0.7273  0.7238
10363TIP3    H252505   2.968   1.996   1.865 -0.7129  0.4873 -1.1642
10364TIP3   OH252506   1.416   4.183   2.461  0.6383  0.3655 -0.0821
10364TIP3    H152507   1.453   4.096   2.448  1.3893  0.9774 -2.4345
10364TIP3    H252508   1.322   4.167   2.475  0.9344 -0.8655  0.6315
10365TIP3   OH252509   4.022   2.244   1.855 -0.5589  0.5453  0.1006
10365TIP3    H152510   4.077   2.168   1.835 -1.6199  0.0937 -1.3329
10365TIP3    H252511   4.031   2.257   1.949  0.4404 -0.7340  0.2071
10366TIP3   OH252512   0.888   2.622  14.703 -0.1050 -0.4736  0.4988
10366TIP3    H152513   0.971   2.668  14.691  0.0965 -0.3941  1.9776
10366TIP3    H252514   0.911   2.529  14.697  0.0301 -0.4456  0.5703
10367TIP3   OH252515   0.865   6.557  11.303  0.0285  0.5366  0.0672
10367TIP3    H152516   0.909   6.575  11.386  0.7252  0.4930 -0.2878
10367TIP3    H252517   0.772   6.570  11.322  0.4038  4.8422 -0.1976
10368TIP3   OH252518   2.722   1.033  15.324 -0.2684 -0.0736  0.2913
10368TIP3    H152519   2.665   0.961  15.295 -1.5214  1.4266 -1.2358
10368TIP3    H252520   2.756   1.070  15.242  1.3155  0.3365  1.1068
10369TIP3   OH252521   6.247   2.874   5.850 -0.1284  0.2350 -0.7297
10369TIP3    H152522   6.206   2.827   5.923 -0.7341  0.9026 -0.6283
10369TIP3    H252523   6.304   2.809   5.809 -2.1177 -1.1176 -1.5730
10370TIP3   OH252524   6.619   2.950   0.684  0.0480 -0.7498  0.5288
10370TIP3    H152525   6.555   2.879   0.680 -1.1075  0.3250 -1.5191
10370TIP3    H252526   6.576   3.019   0.735  0.6517 -1.0018  1.4005
10371TIP3   OH252527   2.151   3.387  16.350  0.1518 -0.0018  0.0758
10371TIP3    H152528   2.215   3.370  16.280  0.8435  1.7912  0.2198
10371TIP3    H252529   2.073   3.418  16.303  0.8167  1.7853  0.0674
10372TIP3   OH252530   5.585   4.521  11.675 -0.1621  0.2314  0.1032
10372TIP3    H152531   5.675   4.517  11.642 -0.8395 -1.1972 -1.7993
10372TIP3    H252532   5.594   4.544  11.767  2.3637 -2.5421  0.7214
10373TIP3   OH252533   1.333   6.727   2.187 -0.1670 -0.7098  0.1804
10373TIP3    H152534   1.405   6.790   2.197  0.4203 -1.4741  1.0297
10373TIP3    H252535   1.310   6.732   2.095  1.1499 -0.6071 -0.1739
10374TIP3   OH252536   6.027   1.273   4.094  0.2194  0.2674  0.1666
10374TIP3    H152537   5.933   1.274   4.113  0.2247 -0.3644  0.2361
10374TIP3    H252538   6.067   1.243   4.176  0.4303 -0.1216 -0.0800
10375TIP3   OH252539   1.197   1.158   0.876 -0.2942  0.2571 -0.2853
10375TIP3    H152540   1.260   1.177   0.946  0.7875 -0.1664 -1.1129
10375TIP3    H252541   1.112   1.167   0.918  0.2684  1.8417  0.6400
10376TIP3   OH252542   2.476   4.215  13.800 -0.3521  0.4766 -0.1676
10376TIP3    H152543   2.426   4.200  13.720  0.8529 -0.2953 -0.8046
10376TIP3    H252544   2.537   4.286  13.778 -0.2011  0.4483  0.1483
10377TIP3   OH252545   5.175   6.191  11.518  0.7476 -0.4228 -0.6308
10377TIP3    H152546   5.093   6.218  11.559 -0.0659 -0.2269 -2.3003
10377TIP3    H252547   5.155   6.104  11.482  1.4976 -0.6720 -0.4544
10378TIP3   OH252548   3.006   1.045   3.941 -0.8974  0.2262 -0.5056
10378TIP3    H152549   3.083   0.989   3.952  0.2950  1.3589 -2.4718
10378TIP3    H252550   3.038   1.134   3.959 -2.2582  0.5409  0.5663
10379TIP3   OH252551   0.965   2.889   5.579 -0.4885  0.0035 -0.0541
10379TIP3    H152552   0.995   2.914   5.666  0.8984  0.3242 -0.5807
10379TIP3    H252553   0.878   2.927   5.571 -0.3272  0.6076  0.9196
10380TIP3   OH252554   4.210   1.198   2.013 -0.0833  0.0973 -0.0730
10380TIP3    H152555   4.139   1.140   2.041  0.3561 -0.8473 -0.8724
10380TIP3    H252556   4.221   1.180   1.920  1.4179 -0.0001  0.0998
10381TIP3   OH252557   6.477   5.666   1.606 -0.0165  0.6028 -0.2868
10381TIP3    H152558   6.386   5.666   1.575  0.1358  0.6870 -0.7410
10381TIP3    H252559   6.529   5.646   1.528  0.1976 -2.0861  0.4475
10382TIP3   OH252560   5.933   2.978  11.277  0.5013 -0.3497  0.3742
10382TIP3    H152561   5.863   3.022  11.326 -0.7024 -0.8768 -0.7952
10382TIP3    H252562   5.919   3.006  11.186  1.6008 -0.7526  0.0644
10383TIP3   OH252563   2.515   4.411  12.448 -0.3233  0.5868  1.1924
10383TIP3    H152564   2.476   4.360  12.519  1.6750 -0.3921  1.6735
10383TIP3    H252565   2.608   4.389  12.451 -0.0065  1.3020 -1.1028
10384TIP3   OH252566   4.250   2.623  11.041 -0.0764 -0.1957  0.2663
10384TIP3    H152567   4.273   2.716  11.043  0.0323 -0.2236  0.2955
10384TIP3    H252568   4.266   2.593  11.130  0.9351 -0.4980 -0.0018
10385TIP3   OH252569   2.789   3.508  11.721  0.0055 -0.1376 -0.0408
10385TIP3    H152570   2.811   3.531  11.811 -0.0778  1.0133 -0.3002
10385TIP3    H252571   2.873   3.483  11.682  0.4291  1.4172 -0.2127
10386TIP3   OH252572   1.750   0.906  10.524  0.2649  0.2796  0.6050
10386TIP3    H152573   1.799   0.978  10.563  0.6636  1.3859 -1.7317
10386TIP3    H252574   1.808   0.873  10.455 -1.6498  0.7739 -1.3842
10387TIP3   OH252575   4.618   2.258   1.832  0.3354 -0.1148 -0.1947
10387TIP3    H152576   4.690   2.320   1.825  0.2674  0.1557  1.2152
10387TIP3    H252577   4.542   2.311   1.857 -0.4090 -0.3810 -1.7454
10388TIP3   OH252578   6.600   0.285  11.766  0.2370  0.6360 -0.0826
10388TIP3    H152579   6.538   0.296  11.693 -0.1361 -1.1099 -0.0956
10388TIP3    H252580   6.686   0.287  11.725  0.0044 -2.9944 -1.1522
10389TIP3   OH252581   5.169   1.300  13.189  0.1506  0.1699  0.3428
10389TIP3    H152582   5.252   1.256  13.168 -0.2476 -0.1258 -0.6554
10389TIP3    H252583   5.104   1.230  13.184 -0.2644  0.5503  0.4301
10390TIP3   OH252584   5.909   4.925   4.409 -0.0001 -0.4903  0.1832
10390TIP3    H152585   5.837   4.891   4.462 -0.0750  0.1746  0.5190
10390TIP3    H252586   5.869   4.949   4.326 -1.2563  4.3022  1.8553
10391TIP3   OH252587   1.368   6.613   5.306  0.2655  0.5229 -0.0470
10391TIP3    H152588   1.283   6.635   5.344 -0.0647 -1.4362  0.4418
10391TIP3    H252589   1.432   6.649   5.368 -0.2466 -0.4160  1.0479
10392TIP3   OH252590   2.629   6.247  12.050  0.1911 -0.3595 -0.1740
10392TIP3    H152591   2.651   6.340  12.049  0.9406 -0.5368 -0.5500
10392TIP3    H252592   2.541   6.244  12.088  0.8076  0.3653  1.3970
10393TIP3   OH252593   5.973   4.200   2.008  0.2437  0.3995 -0.3612
10393TIP3    H152594   5.901   4.237   1.957 -0.0148 -0.2339 -0.4774
10393TIP3    H252595   6.052   4.227   1.963 -0.0029 -1.0299 -1.7510
10394TIP3   OH252596   0.654   3.918   3.025  0.6055 -0.4389 -0.9066
10394TIP3    H152597   0.709   3.943   3.099  1.2922  0.9792 -1.8582
10394TIP3    H252598   0.628   3.828   3.044  1.2679 -0.3149  0.7462
10395TIP3   OH252599   3.372   4.290  11.066  0.3538  0.0301  0.1747
10395TIP3    H152600   3.335   4.378  11.061 -1.4331 -0.6144  1.0056
10395TIP3    H252601   3.305   4.233  11.027  0.8541 -1.0907  0.8750
10396TIP3   OH252602   1.156   4.052   4.946  0.0504 -0.2391  0.0088
10396TIP3    H152603   1.171   4.024   5.036  1.3076 -1.3125 -0.5005
10396TIP3    H252604   1.113   3.977   4.905 -0.3584  0.1802 -0.3380
10397TIP3   OH252605   3.856   0.907   0.335 -0.2731  0.5957  0.0271
10397TIP3    H152606   3.803   0.972   0.289  1.1399  1.3076 -0.6850
10397TIP3    H252607   3.878   0.949   0.418  0.5217  0.9961 -0.3734
10398TIP3   OH252608   5.525   3.798  10.531 -0.3090  0.0224  0.0627
10398TIP3    H152609   5.566   3.856  10.595 -2.3007  0.3144  1.1489
10398TIP3    H252610   5.479   3.732  10.584 -1.8084  0.1316 -1.0406
10399TIP3   OH252611   4.693   4.281  16.197  0.0219 -0.2572 -0.0754
10399TIP3    H152612   4.667   4.202  16.149 -1.6746  1.3283 -1.9365
10399TIP3    H252613   4.666   4.264  16.287 -1.5239 -1.3345 -0.6981
10400TIP3   OH252614   1.062   2.006   1.056  0.2633  0.4951 -0.2938
10400TIP3    H152615   1.012   1.925   1.068  1.2195 -0.2783 -1.3357
10400TIP3    H252616   1.031   2.042   0.973 -0.6890  1.6223  0.5198
10401TIP3   OH252617   6.258   5.730  14.951  0.1836 -0.0535  0.2798
10401TIP3    H152618   6.274   5.698  14.863 -1.4583  0.2110 -0.1422
10401TIP3    H252619   6.338   5.710  14.999  1.1199 -0.1402 -1.2784
10402TIP3   OH252620   4.308   1.835  12.095  0.2652 -0.2372 -0.5480
10402TIP3    H152621   4.270   1.897  12.156  2.2062 -0.0140  0.4992
10402TIP3    H252622   4.386   1.878  12.062  1.5227 -1.9829  0.0114
10403TIP3   OH252623   1.726   1.196   2.371  0.6480 -0.1299  0.0516
10403TIP3    H152624   1.669   1.238   2.308  0.4352  0.0865  0.3860
10403TIP3    H252625   1.811   1.239   2.359  0.4569  0.3243  0.3224
10404TIP3   OH252626   5.317   1.665   0.538  0.4369 -0.5369 -0.0433
10404TIP3    H152627   5.256   1.609   0.587  1.4813 -1.2680  0.4369
10404TIP3    H252628   5.315   1.631   0.449 -1.1065  0.4998 -0.4635
10405TIP3   OH252629   6.726   1.481   1.349 -0.3863  0.2733 -0.0232
10405TIP3    H152630   6.664   1.527   1.406 -0.8162 -0.0039 -0.2564
10405TIP3    H252631   6.694   1.391   1.347  0.3004  0.0192  0.2266
10406TIP3   OH252632   4.777   3.426  15.102 -0.0444  0.0056 -0.1185
10406TIP3    H152633   4.688   3.413  15.134 -0.2810  0.3603 -0.6283
10406TIP3    H252634   4.785   3.364  15.029  0.5417 -0.9056  0.6794
10407TIP3   OH252635   2.111   2.697   1.501  0.5792  0.1372  0.0991
10407TIP3    H152636   2.191   2.750   1.497  2.2625 -2.2366  0.0946
10407TIP3    H252637   2.087   2.682   1.410  0.7514 -0.0113  0.0774
10408TIP3   OH252638   1.457   5.331  13.142 -0.3158  0.0399  0.1477
10408TIP3    H152639   1.388   5.389  13.110 -0.1859  0.8229  1.2620
10408TIP3    H252640   1.425   5.243  13.120 -0.6805  0.4788 -1.2258
10409TIP3   OH252641   4.171   3.753   5.359  0.3396 -0.3495  0.3304
10409TIP3    H152642   4.255   3.754   5.314  1.1296 -2.2851  1.6002
10409TIP3    H252643   4.117   3.817   5.312  2.2767  0.4341 -0.9470
10410TIP3   OH252644   0.512   0.585   5.285  0.4522  0.9523 -0.4004
10410TIP3    H152645   0.554   0.515   5.235 -0.9251  0.2662 -0.6647
10410TIP3    H252646   0.461   0.633   5.219  0.2119  1.2715  0.0173
10411TIP3   OH252647   4.688   5.132   4.990  1.1141  0.3354  0.6020
10411TIP3    H152648   4.643   5.130   4.906  0.1287  0.6415  1.1061
10411TIP3    H252649   4.705   5.041   5.012  0.2287  0.1809  0.6618
10412TIP3   OH252650   5.108   5.673   1.406 -0.1954 -0.2289  0.5340
10412TIP3    H152651   5.098   5.588   1.449 -0.6027  1.1136  3.3445
10412TIP3    H252652   5.081   5.737   1.473  0.0727  2.1232 -1.4606
10413TIP3   OH252653   6.371   6.062  16.838  0.3645 -0.8787 -0.0352
10413TIP3    H152654   6.304   6.016  16.888  1.3575 -0.7256  1.5073
10413TIP3    H252655   6.454   6.034  16.876  1.0497  1.3267  0.2540
10414TIP3   OH252656   3.262   5.912  16.065 -0.5182 -0.5024  0.0245
10414TIP3    H152657   3.278   6.006  16.052 -2.0988  0.0618  1.8010
10414TIP3    H252658   3.350   5.873  16.066  0.3129  1.2661  1.2948
10415TIP3   OH252659   2.814   5.755   3.661  0.0177 -0.4489 -0.2095
10415TIP3    H152660   2.748   5.687   3.648  1.0438 -1.3472 -0.9309
10415TIP3    H252661   2.828   5.793   3.574 -0.3754  0.5395  0.1441
10416TIP3   OH252662   0.278   4.490   2.811 -0.4182  0.0390 -0.5140
10416TIP3    H152663   0.203   4.431   2.815 -0.9272  0.7637  1.5279
10416TIP3    H252664   0.288   4.509   2.717 -0.6874 -2.6388 -1.1672
10417TIP3   OH252665   1.157   1.016  17.034 -0.4643  0.0091  0.0945
10417TIP3    H152666   1.228   1.069  17.069 -0.6969  1.3015 -1.2620
10417TIP3    H252667   1.084   1.031  17.095 -0.5718  1.4177 -0.3445
10418TIP3   OH252668   2.551   4.095  17.159  0.5686  0.2130  0.2662
10418TIP3    H152669   2.524   4.026  17.097  1.8019 -2.3474  2.3932
10418TIP3    H252670   2.503   4.074  17.239  4.2276 -1.0098  2.3408
10419TIP3   OH252671   1.167   1.408  13.258  0.0220  0.1492 -0.6568
10419TIP3    H152672   1.189   1.336  13.199  0.2737 -0.0052 -0.3829
10419TIP3    H252673   1.073   1.421  13.248  0.3496  1.4329 -2.5387
10420TIP3   OH252674   1.898   1.703   0.816  0.0198  0.1599 -0.2687
10420TIP3    H152675   1.914   1.670   0.904 -0.4250 -0.6225 -0.4685
10420TIP3    H252676   1.850   1.633   0.772 -1.0507  1.1110 -0.6894
10421TIP3   OH252677   2.648   2.603   0.295 -0.1942  0.6004  0.0864
10421TIP3    H152678   2.592   2.598   0.218  1.1108  1.2994 -0.9471
10421TIP3    H252679   2.658   2.512   0.323 -0.0336  0.2447 -1.0644
10422TIP3   OH252680   3.695   0.600   4.094  0.0093  0.0989 -0.6850
10422TIP3    H152681   3.688   0.695   4.086 -1.6904  0.2996  1.9233
10422TIP3    H252682   3.714   0.569   4.006  0.9954  2.8654 -1.5296
10423TIP3   OH252683   3.139   5.475   0.907 -0.0132  0.2694  0.5155
10423TIP3    H152684   3.084   5.399   0.888 -1.2098  1.4851 -1.2088
10423TIP3    H252685   3.216   5.463   0.852  0.8198 -0.6833  1.8162
10424TIP3   OH252686   2.241   1.431   1.119 -0.1094  0.0973 -0.2124
10424TIP3    H152687   2.179   1.457   1.187  1.6385  1.2601  1.0367
10424TIP3    H252688   2.226   1.337   1.108 -2.1403  0.3584 -0.0629
10425TIP3   OH252689   2.259   1.179  15.963  0.0196 -0.0925  0.0389
10425TIP3    H152690   2.272   1.240  15.891  0.3005  1.0502  1.0282
10425TIP3    H252691   2.236   1.096  15.921 -1.3104  0.9198 -1.2937
10426TIP3   OH252692   2.572   2.640  14.769  0.1374 -0.0825  0.0880
10426TIP3    H152693   2.556   2.724  14.812 -0.9332 -0.6841  0.9085
10426TIP3    H252694   2.496   2.626  14.713  1.1676  0.3293 -1.4878
10427TIP3   OH252695   5.376   1.467  15.323 -0.3308 -0.0445  0.2980
10427TIP3    H152696   5.340   1.519  15.395 -2.3623  0.5265 -1.0157
10427TIP3    H252697   5.436   1.527  15.278  1.8463 -0.7643  2.0877
10428TIP3   OH252698   2.824   1.689  11.251 -0.0774  0.4059  0.3314
10428TIP3    H152699   2.803   1.737  11.170 -0.1598  0.7512  0.5566
10428TIP3    H252700   2.870   1.611  11.220  0.1205  0.6607 -0.0392
10429TIP3   OH252701   3.611   2.592  14.738 -0.0365  0.2027 -0.4806
10429TIP3    H152702   3.554   2.667  14.752 -0.1719  0.2002 -1.0370
10429TIP3    H252703   3.603   2.571  14.645 -0.6978 -1.0706 -0.1613
10430TIP3   OH252704   5.742   4.969  16.390  0.1245  0.0511 -1.2109
10430TIP3    H152705   5.760   4.907  16.461  1.7859  2.8776  1.0820
10430TIP3    H252706   5.796   4.939  16.317  0.4671 -1.4579 -0.3589
10431TIP3   OH252707   5.576   3.062  11.603 -0.3194 -0.5259 -0.1129
10431TIP3    H152708   5.510   3.131  11.611  1.0849  0.7376  1.6522
10431TIP3    H252709   5.646   3.103  11.552  0.1970 -0.8829  0.2955
10432TIP3   OH252710   4.867   1.174   3.469  0.0598 -0.0381 -0.3061
10432TIP3    H152711   4.791   1.134   3.427 -0.6106  0.4515  0.4214
10432TIP3    H252712   4.939   1.159   3.408 -0.6752 -0.2756 -1.1273
10433TIP3   OH252713   3.480   0.425  13.193 -0.0177  0.3307 -0.1555
10433TIP3    H152714   3.398   0.474  13.196  0.4239  1.0759 -0.0067
10433TIP3    H252715   3.547   0.491  13.173  0.3239 -0.5418 -2.0691
10434TIP3   OH252716   3.531   1.733   1.562 -0.7333 -0.3764  0.0981
10434TIP3    H152717   3.454   1.785   1.537 -0.9393 -1.4143 -1.6057
10434TIP3    H252718   3.604   1.794   1.555 -0.9752 -0.2330 -1.7870
10435TIP3   OH252719   4.936   2.028   5.013 -0.5867 -0.2532  0.3291
10435TIP3    H152720   4.886   2.077   4.948 -0.4632  1.1741  1.2593
10435TIP3    H252721   4.909   2.066   5.097  1.8208  0.3875  0.8897
10436TIP3   OH252722   4.909   0.691   1.745 -0.4260  0.0387  0.1871
10436TIP3    H152723   4.968   0.742   1.801 -2.3303  3.5948 -0.7894
10436TIP3    H252724   4.943   0.704   1.656 -0.3922 -1.3304 -0.0315
10437TIP3   OH252725   6.744   4.268  15.085  0.5940  0.2533  0.5913
10437TIP3    H152726   6.665   4.244  15.134  0.9820  0.1089  1.1668
10437TIP3    H252727   6.778   4.185  15.051  0.3333  0.3526  0.0914
10438TIP3   OH252728   5.802   4.644   0.159  0.1778 -0.0599  0.0982
10438TIP3    H152729   5.727   4.590   0.184  1.3248 -1.8530 -0.1507
10438TIP3    H252730   5.816   4.703   0.233 -2.4504  1.5051 -0.5205
10439TIP3   OH252731   3.115   1.194   2.868  0.0358 -0.0042  0.4265
10439TIP3    H152732   3.036   1.217   2.916 -0.3100 -1.2675  0.4854
10439TIP3    H252733   3.186   1.209   2.931 -0.2173  0.4102  0.6184
10440TIP3   OH252734   3.872   6.526   5.195  0.3159  0.4918 -0.3856
10440TIP3    H152735   3.940   6.510   5.260  0.9716  2.0379 -0.6407
10440TIP3    H252736   3.794   6.484   5.230  1.6121 -2.2465 -0.5803
10441TIP3   OH252737   6.222   5.568  15.347 -0.4502  0.3052  0.3906
10441TIP3    H152738   6.166   5.533  15.416 -1.5635  0.3268 -0.4801
10441TIP3    H252739   6.165   5.625  15.295  0.3892  0.3915 -0.4785
10442TIP3   OH252740   4.284   1.604  13.608  0.0464 -0.8205 -0.8733
10442TIP3    H152741   4.300   1.577  13.518 -0.0465 -0.9051 -0.8652
10442TIP3    H252742   4.259   1.696  13.601  0.6075 -0.6709 -0.8751
10443TIP3   OH252743   0.029   6.224   4.771 -0.1056  0.5230 -0.5939
10443TIP3    H152744   0.110   6.192   4.811 -0.5271 -0.4464 -0.4815
10443TIP3    H252745  -0.039   6.203   4.835 -0.2165  3.3572  0.3512
10444TIP3   OH252746   3.483   5.518  12.247  0.1156  0.0053 -0.4260
10444TIP3    H152747   3.553   5.464  12.209  0.3861  1.0639 -1.5005
10444TIP3    H252748   3.496   5.511  12.341 -0.6456 -2.8235 -0.4244
10445TIP3   OH252749   1.500   1.582   3.410  0.3619  0.3644  0.6116
10445TIP3    H152750   1.530   1.672   3.406 -0.4877  0.6209 -0.5303
10445TIP3    H252751   1.440   1.573   3.336 -0.1663 -0.9132  1.1529
10446TIP3   OH252752   2.450   5.619  15.165  0.0150  0.4992  0.3367
10446TIP3    H152753   2.369   5.665  15.189 -0.8781 -1.0552  0.4237
10446TIP3    H252754   2.452   5.542  15.222  0.9612 -0.0898 -0.4642
10447TIP3   OH252755   3.031   2.339  16.368 -0.1848  0.2275  0.2746
10447TIP3    H152756   3.106   2.395  16.347 -1.0493  1.0877 -0.6244
10447TIP3    H252757   3.026   2.342  16.464  0.9653  0.0810  0.3610
10448TIP3   OH252758   3.168   3.099  16.667  0.1397 -0.1601 -0.0314
10448TIP3    H152759   3.214   3.166  16.717  0.8822  0.2080 -1.1787
10448TIP3    H252760   3.229   3.025  16.664  0.6007  0.2388 -1.3404
10449TIP3   OH252761   1.042   6.146  11.177  0.2453 -0.4172  0.3259
10449TIP3    H152762   1.067   6.128  11.267 -1.1714 -0.1519  0.8071
10449TIP3    H252763   1.056   6.063  11.131 -0.3037 -0.9622  1.1121
10450TIP3   OH252764   5.877   2.486  16.459 -0.0567  0.0961 -0.1690
10450TIP3    H152765   5.849   2.426  16.391  1.1712 -0.6370 -0.0511
10450TIP3    H252766   5.935   2.548  16.415 -0.8951  0.8868 -0.1843
10451TIP3   OH252767   3.386   3.147  17.124 -0.1279  0.5807 -0.1157
10451TIP3    H152768   3.361   3.155  17.032 -0.0167  1.8523 -0.0508
10451TIP3    H252769   3.304   3.150  17.172 -0.2402 -0.7126 -0.1836
10452TIP3   OH252770   4.810   2.961  12.024 -0.1421 -0.3704 -0.0411
10452TIP3    H152771   4.783   3.012  12.101 -0.8878  0.6524 -0.9504
10452TIP3    H252772   4.753   2.884  12.026 -0.5575 -0.0676  0.1261
10453TIP3   OH252773   5.416   0.537  13.331  0.2048  0.6899 -0.4156
10453TIP3    H152774   5.446   0.627  13.343 -0.8594  1.5903 -3.5715
10453TIP3    H252775   5.453   0.510  13.247 -0.0113 -1.6164  0.1671
10454TIP3   OH252776   2.949   6.495   2.543 -0.1591  0.0667  0.1579
10454TIP3    H152777   2.969   6.586   2.564  1.5330 -0.0417 -0.7568
10454TIP3    H252778   2.856   6.494   2.521 -0.1212  1.6485 -0.1558
10455TIP3   OH252779   3.259   6.647  14.363 -0.3917  0.0620  0.4141
10455TIP3    H152780   3.224   6.706  14.430 -1.4154  0.0266 -0.0643
10455TIP3    H252781   3.326   6.697  14.318 -2.1356  1.3735 -0.8601
10456TIP3   OH252782   1.285   5.875   5.508  0.4648  0.2737  0.0094
10456TIP3    H152783   1.206   5.907   5.463  2.1781  3.2523 -1.1571
10456TIP3    H252784   1.287   5.923   5.591 -0.5108 -2.1661  1.5545
10457TIP3   OH252785   5.074   1.056  13.253 -0.8840 -0.0050  0.1182
10457TIP3    H152786   5.039   1.076  13.340 -1.2410  0.8641 -0.2208
10457TIP3    H252787   5.044   0.966  13.236  1.4713 -1.2774  2.0198
10458TIP3   OH252788   3.303   6.283  14.768 -0.1818  0.1418 -0.5043
10458TIP3    H152789   3.248   6.360  14.763  0.9035  0.8437 -3.8147
10458TIP3    H252790   3.391   6.317  14.786  0.2185 -0.3493 -1.4719
10459TIP3   OH252791   2.858   2.164  12.430  0.5489  0.3420 -0.0269
10459TIP3    H152792   2.810   2.160  12.347 -0.7090 -0.4820  0.7032
10459TIP3    H252793   2.941   2.206  12.408 -0.4760  1.7846 -1.3561
10460TIP3   OH252794   6.256   1.236  15.115  0.3438  0.4927  0.2880
10460TIP3    H152795   6.171   1.196  15.095  0.6696  0.3435 -0.8985
10460TIP3    H252796   6.317   1.190  15.058  1.3231  0.2403  1.5126
10461TIP3   OH252797   0.143   2.613  16.174 -0.1619 -0.1257  0.1218
10461TIP3    H152798   0.061   2.609  16.124  1.0180 -0.5686 -1.9053
10461TIP3    H252799   0.150   2.705  16.200 -0.8836  0.1044 -0.4401
10462TIP3   OH252800   3.685   1.476  11.338  0.0967 -0.0870 -0.3585
10462TIP3    H152801   3.657   1.392  11.300  0.7232 -0.8643  0.8450
10462TIP3    H252802   3.777   1.463  11.359 -0.1871  0.3441  1.2827
10463TIP3   OH252803   1.074   2.957   0.347 -0.2134  0.2700  0.3601
10463TIP3    H152804   1.000   2.899   0.333  0.8150 -0.9398 -0.2105
10463TIP3    H252805   1.102   2.940   0.438  1.4169 -1.7859 -0.4518
10464TIP3   OH252806   5.919   3.670  12.284 -0.6704 -0.3289  0.2644
10464TIP3    H152807   5.912   3.735  12.213  1.1478 -1.0131 -0.6297
10464TIP3    H252808   5.845   3.689  12.342 -0.3572  2.3775 -0.0826
10465TIP3   OH252809   6.643   1.980  12.405  0.7986 -0.1909 -0.2710
10465TIP3    H152810   6.735   1.971  12.381  0.2444 -0.1387 -2.7409
10465TIP3    H252811   6.601   2.016  12.326 -1.2313  0.4159  0.9940
10466TIP3   OH252812   6.252   6.149  10.617  0.2183  0.0014 -0.4004
10466TIP3    H152813   6.341   6.117  10.603  0.3177  0.0361  0.1158
10466TIP3    H252814   6.199   6.070  10.628  0.3874 -0.0048  0.4325
10467TIP3   OH252815   3.675   6.111   4.283 -0.4826  0.4631 -0.2716
10467TIP3    H152816   3.767   6.094   4.303 -0.3398 -0.3631 -1.4765
10467TIP3    H252817   3.638   6.147   4.364  0.5496 -0.5686  0.6914
10468TIP3   OH252818   3.288   1.040  14.473  0.1746  0.2634  0.7759
10468TIP3    H152819   3.317   1.037  14.564  1.0414  1.3728  0.5583
10468TIP3    H252820   3.256   0.951  14.455  1.0414 -0.2819  1.8215
10469TIP3   OH252821   5.866   6.249  12.970  0.2608  0.5943  0.0284
10469TIP3    H152822   5.828   6.327  13.011 -2.5959  0.6169 -2.3055
10469TIP3    H252823   5.801   6.180  12.985  1.6351 -0.7634  0.0363
10470TIP3   OH252824   5.819   2.498   5.819 -0.3135  0.5697  0.4106
10470TIP3    H152825   5.786   2.585   5.840  2.9342  2.0641 -0.1139
10470TIP3    H252826   5.796   2.485   5.727 -0.8675  0.8256  0.5095
10471TIP3   OH252827   5.742   6.450   5.537 -0.1454  0.2809 -0.0725
10471TIP3    H152828   5.790   6.468   5.617  1.7898  0.2401 -1.1588
10471TIP3    H252829   5.659   6.412   5.566  0.1167  1.1303  1.9034
10472TIP3   OH252830   1.880   1.194   2.005  0.5726  0.0512 -0.1764
10472TIP3    H152831   1.817   1.140   1.956 -0.6623  1.4506 -0.1916
10472TIP3    H252832   1.847   1.194   2.095  0.8880  0.3122 -0.0590
10473TIP3   OH252833   3.361   6.567  16.260 -0.3118 -0.1675 -0.3773
10473TIP3    H152834   3.316   6.650  16.248 -1.4938 -0.7790 -0.3426
10473TIP3    H252835   3.401   6.549  16.175  1.3156  1.1894  0.0650
10474TIP3   OH252836   0.727   3.483   5.139 -0.6135  0.1369  0.1422
10474TIP3    H152837   0.759   3.411   5.085  0.1824  0.6328 -0.0655
10474TIP3    H252838   0.746   3.455   5.229 -0.1559  0.1443  0.0546
10475TIP3   OH252839   3.467   0.503  15.050  0.3057 -0.0829  0.0834
10475TIP3    H152840   3.407   0.536  15.117 -0.3055  0.5898 -0.7593
10475TIP3    H252841   3.431   0.419  15.024  0.5960 -0.3880  0.6530
10476TIP3   OH252842   4.565   5.622  16.635  0.3249 -0.1361  0.2361
10476TIP3    H152843   4.533   5.534  16.656 -0.4275 -0.2210 -1.1366
10476TIP3    H252844   4.524   5.679  16.701  0.7167 -0.7763  1.0530
10477TIP3   OH252845   2.014   4.129  11.604  0.1843  0.7641 -0.2520
10477TIP3    H152846   2.086   4.181  11.569  0.4410 -0.2628 -1.2942
10477TIP3    H252847   2.012   4.151  11.697  1.1596  1.6003 -0.4124
10478TIP3   OH252848   4.505   1.425  13.142 -0.2294  0.2131 -0.0835
10478TIP3    H152849   4.550   1.342  13.159 -0.9273  0.4459  3.8315
10478TIP3    H252850   4.569   1.492  13.167 -1.1414  0.6714  1.1089
10479TIP3   OH252851   1.511   4.558   5.210 -0.2167 -0.4777 -0.6409
10479TIP3    H152852   1.498   4.483   5.269 -0.2096 -0.0683 -0.1162
10479TIP3    H252853   1.424   4.598   5.203 -0.4363 -1.0945 -1.6984
10480TIP3   OH252854   2.249   0.615  13.339  0.0334 -0.3028  0.5912
10480TIP3    H152855   2.228   0.686  13.277 -0.1223 -0.6096  0.2908
10480TIP3    H252856   2.209   0.537  13.301  0.5032 -0.6213  0.7440
10481TIP3   OH252857   4.323   1.997   0.925  0.0260  0.4964  0.6331
10481TIP3    H152858   4.250   2.055   0.945  0.0562  1.0648 -0.7926
10481TIP3    H252859   4.370   1.987   1.008 -0.6229  1.6069  1.1498
10482TIP3   OH252860   3.332   3.681   2.155 -0.6798 -0.0026 -0.3072
10482TIP3    H152861   3.295   3.609   2.104 -0.9110  0.5874 -0.9957
10482TIP3    H252862   3.257   3.740   2.169 -0.7540 -0.4223  1.2099
10483TIP3   OH252863   0.429   1.766   5.252 -0.6335  0.4393  0.0683
10483TIP3    H152864   0.358   1.793   5.193 -1.1229  0.5610  0.7093
10483TIP3    H252865   0.391   1.696   5.305  0.1480 -0.4415 -0.5023
10484TIP3   OH252866   5.283   1.159  15.638 -0.0432  0.2399 -0.1619
10484TIP3    H152867   5.367   1.123  15.609 -0.9339 -2.2773  0.1793
10484TIP3    H252868   5.266   1.115  15.721 -1.5623  0.9472 -0.0729
10485TIP3   OH252869   0.376   3.528  17.158  0.2661  0.0217 -1.1917
10485TIP3    H152870   0.298   3.477  17.139 -0.2399 -0.1557  1.0970
10485TIP3    H252871   0.347   3.619  17.158 -0.1011 -0.0687  0.1086
10486TIP3   OH252872   4.771   4.256  11.837  0.2360 -0.2958  0.2535
10486TIP3    H152873   4.741   4.175  11.796  1.2824 -1.1688  1.1381
10486TIP3    H252874   4.763   4.240  11.931  1.8808  0.0207  0.4866
10487TIP3   OH252875   5.638   1.716  15.784 -0.0245  0.1530 -0.0289
10487TIP3    H152876   5.572   1.774  15.822  0.5921  0.4940  0.5454
10487TIP3    H252877   5.681   1.676  15.860 -0.9843 -1.7161 -0.4139
10488TIP3   OH252878   2.212   0.702  14.608  0.1039  0.3370  0.1470
10488TIP3    H152879   2.137   0.698  14.668  2.0837  0.9312  2.8092
10488TIP3    H252880   2.267   0.771  14.644  3.0385 -1.5810 -0.3769
10489TIP3   OH252881   1.698   0.147  12.388  0.5789 -0.2283  0.0190
10489TIP3    H152882   1.669   0.090  12.316  0.7852  1.4695 -1.4659
10489TIP3    H252883   1.675   0.098  12.467  0.6685 -2.3266 -1.1799
10490TIP3   OH252884   2.568   2.518  10.906 -0.3823 -0.9770 -0.6855
10490TIP3    H152885   2.618   2.446  10.869  1.1928  0.5751 -1.7520
10490TIP3    H252886   2.490   2.526  10.851 -0.1015 -1.2859 -1.1286
10491TIP3   OH252887   1.463   1.322  14.310  0.5970 -0.5926  0.2714
10491TIP3    H152888   1.390   1.287  14.361  0.3010  0.5499  0.6631
10491TIP3    H252889   1.502   1.245  14.268 -0.4352 -1.2990  0.5620
10492TIP3   OH252890   2.060   0.609   5.006  0.1216 -0.3144  0.5562
10492TIP3    H152891   2.043   0.648   4.921 -0.9706 -0.4197  0.7003
10492TIP3    H252892   1.993   0.647   5.063 -0.7933 -2.1128  0.7646
10493TIP3   OH252893   6.175   5.921  14.744  0.5870  0.2407  0.2526
10493TIP3    H152894   6.172   5.900  14.650 -0.6822 -0.2407  0.3859
10493TIP3    H252895   6.199   5.839  14.787  0.7516  0.3577  0.3863
10494TIP3   OH252896   3.891   2.630  13.891 -0.2885  0.0497 -0.2833
10494TIP3    H152897   3.812   2.683  13.878 -0.1706  0.3543  0.2040
10494TIP3    H252898   3.905   2.632  13.986  0.3570  0.0801 -0.3782
10495TIP3   OH252899   6.203   3.302  11.656 -0.2044 -0.1301  0.0559
10495TIP3    H152900   6.237   3.377  11.607 -0.1226 -0.3891 -0.2903
10495TIP3    H252901   6.276   3.275  11.712 -0.7437  1.0439  1.3916
10496TIP3   OH252902   6.084   2.129   1.175 -0.0587 -0.4379  0.2219
10496TIP3    H152903   6.107   2.105   1.264  0.2332 -0.1044  0.2363
10496TIP3    H252904   6.091   2.048   1.125 -1.0067 -0.8035  0.6529
10497TIP3   OH252905   4.685   6.737   1.005  0.5865 -0.2925 -0.8135
10497TIP3    H152906   4.664   6.657   1.053 -0.3522 -0.2622 -1.1531
10497TIP3    H252907   4.672   6.714   0.913  0.8375  0.0986 -0.9490
10498TIP3   OH252908   3.984   6.563   3.100 -0.1773  0.4691  0.7022
10498TIP3    H152909   4.029   6.627   3.154  0.9744  0.9894 -0.7824
10498TIP3    H252910   4.035   6.560   3.019 -0.5814 -1.8395  0.4548
10499TIP3   OH252911   5.339   0.452  12.136  0.4293 -0.2973 -0.1551
10499TIP3    H152912   5.330   0.541  12.104 -1.0986 -1.4248 -3.2238
10499TIP3    H252913   5.395   0.409  12.071  0.4072 -1.7970  0.7782
10500TIP3   OH252914   6.121   5.922  16.877  0.8695  0.7769  0.3547
10500TIP3    H152915   6.087   5.834  16.893  1.1784  1.0005  2.5152
10500TIP3    H252916   6.114   5.934  16.782  1.2125 -1.7282 -0.0406
10501TIP3   OH252917   1.925   4.158  14.771 -0.2145  0.7908 -0.2669
10501TIP3    H152918   1.932   4.120  14.683  0.5090  1.5571 -0.5544
10501TIP3    H252919   1.979   4.101  14.826  1.2489  1.6440 -0.7859
10502TIP3   OH252920   3.326   5.142  10.971 -0.2002  0.0095  0.0028
10502TIP3    H152921   3.260   5.138  10.903 -1.9716 -0.3440  1.6530
10502TIP3    H252922   3.372   5.058  10.965 -1.8387 -0.9856  0.6176
10503TIP3   OH252923   2.888   4.337  12.738 -0.3412 -0.0507  0.0577
10503TIP3    H152924   2.942   4.416  12.749 -0.3864 -0.2247  1.8139
10503TIP3    H252925   2.839   4.330  12.820  1.6490 -3.3895  1.1708
10504TIP3   OH252926   1.960   1.089  12.849 -0.0914  0.2665 -0.1583
10504TIP3    H152927   2.055   1.086  12.859 -0.2569  0.5488  1.8428
10504TIP3    H252928   1.927   1.098  12.938 -2.1247 -2.5727 -0.4902
10505TIP3   OH252929   5.022   6.691  16.404  0.5024  0.3297 -0.2471
10505TIP3    H152930   5.019   6.596  16.416  0.6730  0.2452 -0.8604
10505TIP3    H252931   5.017   6.704  16.309 -0.7350  0.9795 -0.1183
10506TIP3   OH252932   3.602   4.627   5.838 -0.8945 -0.1653  0.0657
10506TIP3    H152933   3.677   4.596   5.889 -1.6373 -0.5710  0.9583
10506TIP3    H252934   3.591   4.718   5.864 -0.7913 -0.1457  0.0385
10507TIP3   OH252935   4.640   2.048  12.856 -0.3337  0.3763 -0.4558
10507TIP3    H152936   4.672   2.023  12.943 -0.2920  1.5487 -0.1172
10507TIP3    H252937   4.613   1.965  12.816  1.7279 -0.4802 -0.1962
10508TIP3   OH252938   1.696   1.740   2.422 -0.3498 -0.4455 -0.0141
10508TIP3    H152939   1.780   1.767   2.460 -1.4122  2.1099  0.7558
10508TIP3    H252940   1.664   1.671   2.480  0.4247 -0.2281  0.6932
10509TIP3   OH252941   2.715   4.576   3.081 -0.0197 -0.6311 -0.0962
10509TIP3    H152942   2.795   4.535   3.114  0.3709  0.0116 -0.2344
10509TIP3    H252943   2.720   4.667   3.110 -0.4942 -0.4817 -0.4648
10510TIP3   OH252944   5.173   5.657  11.364 -0.0991  0.0058 -0.2594
10510TIP3    H152945   5.175   5.732  11.423  0.2731  0.2693 -0.6031
10510TIP3    H252946   5.257   5.613  11.378 -0.7899 -1.0219  0.7969
10511TIP3   OH252947   2.164   6.031   4.003  0.2309 -0.1656  0.5087
10511TIP3    H152948   2.119   6.112   3.979  0.2805 -0.6261 -1.2963
10511TIP3    H252949   2.122   5.964   3.948  0.8567 -1.1860  1.2491
10512TIP3   OH252950   2.787   5.940   0.583  0.3021 -0.2935  0.1768
10512TIP3    H152951   2.700   5.950   0.543  0.6691  1.1661 -0.3002
10512TIP3    H252952   2.818   5.855   0.552 -0.8225 -0.6910  0.1030
10513TIP3   OH252953   2.378   6.741   2.026  0.7748 -0.0722 -0.0084
10513TIP3    H152954   2.421   6.660   2.055 -0.1735 -0.9343 -0.9566
10513TIP3    H252955   2.340   6.719   1.941  1.7359  1.8041 -0.9737
10514TIP3   OH252956   4.655   1.111   0.848  0.0930 -0.2916 -0.7481
10514TIP3    H152957   4.732   1.157   0.815  0.0178  1.5016  1.3409
10514TIP3    H252958   4.581   1.158   0.810  0.0221 -0.4542 -0.8111
10515TIP3   OH252959   1.203   1.176  12.552 -0.0783  0.0360 -0.0252
10515TIP3    H152960   1.246   1.251  12.512 -0.0649  1.4196  2.4113
10515TIP3    H252961   1.260   1.150  12.624 -1.0243 -1.1302  0.3482
10516TIP3   OH252962   4.530   0.670  15.929 -0.2704  0.1562  0.1117
10516TIP3    H152963   4.603   0.682  15.869 -0.7520 -0.8884 -0.7157
10516TIP3    H252964   4.551   0.725  16.004 -0.0388  2.1909 -1.3414
10517TIP3   OH252965   2.849   2.444  16.200  0.2402  0.4214  0.3078
10517TIP3    H152966   2.922   2.409  16.250  1.5106 -3.1664 -3.5381
10517TIP3    H252967   2.774   2.390  16.226  0.6038 -0.5825 -0.7013
10518TIP3   OH252968   5.940   0.916  14.556 -0.3172  0.4408  0.7302
10518TIP3    H152969   5.989   0.971  14.495 -1.2259 -0.5787 -0.9725
10518TIP3    H252970   5.876   0.870  14.502 -0.5154 -1.2572  2.3020
10519TIP3   OH252971   3.923   5.489   1.369 -0.1725  0.0447 -0.1927
10519TIP3    H152972   3.991   5.447   1.422  0.0450  0.1951 -0.3505
10519TIP3    H252973   3.847   5.431   1.377  0.0545 -0.2577 -0.2245
10520TIP3   OH252974   5.420   2.031  11.403  0.6085  0.3407 -0.2765
10520TIP3    H152975   5.515   2.032  11.386  0.6875 -0.3323  0.0661
10520TIP3    H252976   5.411   2.058  11.494  0.4762  0.3409 -0.2895
10521TIP3   OH252977   4.660   0.555  12.080 -0.5278 -0.3771 -0.4718
10521TIP3    H152978   4.696   0.572  11.993 -1.2563  0.4785 -0.6177
10521TIP3    H252979   4.678   0.634  12.130 -2.4789  0.2331 -0.6526
10522TIP3   OH252980   2.168   1.436   5.436  0.5840  0.5350 -0.0369
10522TIP3    H152981   2.096   1.495   5.415 -0.6120 -0.8510  0.0254
10522TIP3    H252982   2.135   1.383   5.509  1.4931 -0.4458 -0.3157
10523TIP3   OH252983   2.693   6.005  13.101  0.4070 -0.4042  0.1241
10523TIP3    H152984   2.762   6.050  13.150 -0.7075  0.6109  0.8015
10523TIP3    H252985   2.643   5.957  13.167  1.1736 -2.1618 -0.5112
10524TIP3   OH252986   4.087   4.103   0.039 -0.0047 -0.3447  0.6832
10524TIP3    H152987   4.102   4.017   0.001 -1.1569 -1.4545  2.5548
10524TIP3    H252988   4.153   4.110   0.109  0.1875  0.3770  0.4383
10525TIP3   OH252989   5.694   1.345  15.108 -0.4123  0.3878 -0.6360
10525TIP3    H152990   5.698   1.279  15.177  0.0952  1.5388  0.4785
10525TIP3    H252991   5.786   1.369  15.093 -0.4629 -0.3034 -2.1910
10526TIP3   OH252992   0.517   3.349   2.791 -0.0144 -0.3281 -0.3383
10526TIP3    H152993   0.605   3.312   2.788 -0.1342 -1.0705  2.4639
10526TIP3    H252994   0.529   3.440   2.816 -0.0099 -0.5007  0.3237
10527TIP3   OH252995   5.293   3.376  14.512  0.0544  0.0635  0.6780
10527TIP3    H152996   5.201   3.350  14.512 -0.2896  1.1355 -1.0917
10527TIP3    H252997   5.341   3.295  14.492 -0.3950 -0.6699  2.3577
10528TIP3   OH252998   0.767   4.096   6.341 -0.4050 -0.0837  0.1312
10528TIP3    H152999   0.846   4.052   6.373  0.8432  1.3830 -0.8104
10528TIP3    H253000   0.780   4.188   6.365 -0.9997  0.4753 -1.5945
10529TIP3   OH253001   4.172   2.720   2.609 -0.0633  0.8075 -0.5570
10529TIP3    H153002   4.090   2.725   2.659  0.2081 -0.6796  0.0942
10529TIP3    H253003   4.220   2.799   2.634 -0.3216  0.5431  0.8567
10530TIP3   OH253004   5.233   0.331   1.106 -0.2135 -0.9715  0.2545
10530TIP3    H153005   5.241   0.425   1.123  1.2727 -1.2253  1.0663
10530TIP3    H253006   5.152   0.324   1.055 -1.3048  0.5580  1.6399
10531TIP3   OH253007   1.304   4.961   4.686  0.7760 -0.4122 -0.1712
10531TIP3    H153008   1.269   5.047   4.663  2.0650  0.0671 -0.4305
10531TIP3    H253009   1.324   4.967   4.779  1.1769 -0.3128 -0.2620
10532TIP3   OH253010   4.208   2.989  13.873 -0.6164 -0.0033 -0.1779
10532TIP3    H153011   4.207   2.935  13.794 -0.1543 -0.9377  0.4330
10532TIP3    H253012   4.142   3.056  13.857 -0.5909 -0.2255 -1.3164
10533TIP3   OH253013   0.456   0.447   1.248  0.5037 -0.0063  0.1902
10533TIP3    H153014   0.500   0.479   1.326  0.8378 -1.1146  0.4846
10533TIP3    H253015   0.417   0.364   1.275 -0.7114  0.3470 -0.4060
10534TIP3   OH253016   4.889   6.590  11.581  0.0428 -0.0081 -0.3861
10534TIP3    H153017   4.900   6.579  11.676 -0.4571  1.5484 -0.1243
10534TIP3    H253018   4.978   6.595  11.547  0.2274  0.5408  0.1585
10535TIP3   OH253019   4.791   5.095   3.789 -0.1415  0.7231 -0.0650
10535TIP3    H153020   4.728   5.066   3.855 -0.3881 -0.2596 -0.7019
10535TIP3    H253021   4.875   5.098   3.835 -0.5630  1.5937  0.6793
10536TIP3   OH253022   1.197   1.165  12.218  0.1981 -0.3623  0.3152
10536TIP3    H153023   1.199   1.071  12.237  2.1917 -0.1471  1.4688
10536TIP3    H253024   1.233   1.171  12.129 -0.5037 -0.7047 -0.0059
10537TIP3   OH253025   2.703   0.839  10.807 -0.0463 -0.4740 -0.8336
10537TIP3    H153026   2.645   0.886  10.748  0.1506  0.6796 -0.1402
10537TIP3    H253027   2.644   0.792  10.867 -0.2731 -2.8449 -2.7699
10538TIP3   OH253028   1.051   5.547   5.054 -0.3999  0.1622 -0.1346
10538TIP3    H153029   0.994   5.624   5.048 -1.2665 -0.5337 -1.4435
10538TIP3    H253030   1.007   5.481   5.000 -0.1327 -1.5469  1.6158
10539TIP3   OH253031   0.530   6.272  15.081  0.4591 -0.4139  0.2648
10539TIP3    H153032   0.475   6.342  15.117  0.7289  0.3623 -0.7945
10539TIP3    H253033   0.616   6.313  15.070  0.8278 -1.1441  0.3512
10540TIP3   OH253034   2.389   6.256   6.017 -0.3383  0.0932 -0.0719
10540TIP3    H153035   2.339   6.254   6.098 -1.4291  0.1580 -0.7255
10540TIP3    H253036   2.411   6.349   6.004  2.5327 -0.2205  1.7091
10541TIP3   OH253037   2.955   1.854  16.389 -0.2018 -0.8680 -0.4205
10541TIP3    H153038   2.991   1.780  16.340  1.3269 -0.8742  0.6374
10541TIP3    H253039   3.012   1.927  16.368 -0.9661 -0.2771 -0.4933
10542TIP3   OH253040   5.604   0.763   1.871 -0.1266  0.2624  0.2459
10542TIP3    H153041   5.691   0.800   1.879 -0.2982  0.6638  0.2772
10542TIP3    H253042   5.579   0.780   1.780 -0.4714  0.8195  0.4402
10543TIP3   OH253043   0.245   6.296  16.464 -0.1953 -0.3281 -0.3745
10543TIP3    H153044   0.243   6.336  16.377 -1.2497  1.0435  0.2565
10543TIP3    H253045   0.205   6.210  16.451 -2.2608  0.6493 -0.9027
10544TIP3   OH253046   1.399   6.002  13.983  0.1463 -0.2297  0.1155
10544TIP3    H153047   1.444   5.943  14.044  0.9638 -1.9634 -2.0231
10544TIP3    H253048   1.421   6.090  14.015  0.9531 -1.0460  1.9893
10545TIP3   OH253049   3.201   4.714  15.556  0.7836 -0.2756 -0.6581
10545TIP3    H153050   3.288   4.683  15.578  1.3202  0.4055 -1.7096
10545TIP3    H253051   3.157   4.638  15.518  0.0031 -1.3345  2.0948
10546TIP3   OH253052   1.261   6.037   0.104 -0.0069 -0.1952  0.1964
10546TIP3    H153053   1.222   6.062   0.188 -3.0519 -0.3999 -1.0339
10546TIP3    H253054   1.226   6.100   0.042 -0.3187 -1.8664 -1.4005
10547TIP3   OH253055   5.763   2.222  12.111  0.3183  0.8861 -0.4413
10547TIP3    H153056   5.750   2.265  12.026  0.7865  0.5764 -0.6716
10547TIP3    H253057   5.744   2.291  12.175 -0.3877  1.0258 -0.7888
10548TIP3   OH253058   3.793   5.233  15.815  0.3490  0.1731 -0.4665
10548TIP3    H153059   3.840   5.316  15.829 -1.0409  0.7306  1.3797
10548TIP3    H253060   3.822   5.177  15.887  0.4152 -0.5335 -1.0410
10549TIP3   OH253061   1.680   5.939  16.895  0.1116  0.6914 -0.0294
10549TIP3    H153062   1.595   5.919  16.933  0.6688  2.6974  2.5607
10549TIP3    H253063   1.664   6.014  16.837 -0.5899 -1.8668 -3.4621
10550TIP3   OH253064   1.565   5.428   4.183  0.2665  0.1210 -0.3453
10550TIP3    H153065   1.529   5.514   4.204  0.3994 -0.0154  0.4738
10550TIP3    H253066   1.488   5.372   4.173  0.1845 -0.3565  2.2004
10551TIP3   OH253067   1.382   2.813  11.396 -0.2937 -0.3233  0.3864
10551TIP3    H153068   1.351   2.731  11.358 -1.4677  0.2728  0.0065
10551TIP3    H253069   1.338   2.881  11.345  1.0904  0.5622  0.3298
10552TIP3   OH253070   0.643   1.209   3.991  0.3603 -0.0395  0.2284
10552TIP3    H153071   0.637   1.304   3.981 -0.3306  0.0001  0.8485
10552TIP3    H253072   0.552   1.182   4.005  0.3746 -0.9671 -1.2892
10553TIP3   OH253073   2.850   3.266   1.568  0.5359 -0.0248  0.3172
10553TIP3    H153074   2.933   3.269   1.615  0.8428 -1.4356 -0.0706
10553TIP3    H253075   2.811   3.182   1.594 -1.2492  1.0486  1.2563
10554TIP3   OH253076   3.840   3.698   0.210  0.0674  0.1549  0.4776
10554TIP3    H153077   3.768   3.676   0.151  0.8273  1.4951 -1.0219
10554TIP3    H253078   3.798   3.712   0.295 -0.9800 -2.4771  0.5057
10555TIP3   OH253079   0.328   0.852  14.999  0.0381 -0.1001 -0.0364
10555TIP3    H153080   0.293   0.933  15.036 -3.0002 -0.3077 -2.0530
10555TIP3    H253081   0.298   0.784  15.059 -2.6212 -0.1862 -1.3174
10556TIP3   OH253082   3.424   4.205  14.593 -0.4221  0.0909  0.3585
10556TIP3    H153083   3.460   4.131  14.641 -0.3297  0.2984  0.6114
10556TIP3    H253084   3.441   4.281  14.649  0.4332  0.4596 -0.3579
10557TIP3   OH253085   1.720   4.122  12.184  0.2486 -0.3676  0.3434
10557TIP3    H153086   1.706   4.200  12.130  1.1057  0.0107  0.6571
10557TIP3    H253087   1.639   4.114  12.235 -0.3690 -0.4358 -0.6098
10558TIP3   OH253088   1.649   2.098   0.008 -0.0938 -0.2318 -0.0743
10558TIP3    H153089   1.601   2.181   0.004 -0.5834 -0.5049  0.0716
10558TIP3    H253090   1.592   2.035  -0.037  0.0180 -0.6104  0.3075
10559TIP3   OH253091   4.167   6.461  16.389  0.2068  0.1637 -0.2785
10559TIP3    H153092   4.086   6.415  16.370  0.6456 -0.4461 -0.6960
10559TIP3    H253093   4.206   6.412  16.461 -0.1228  0.8676  0.4010
10560TIP3   OH253094   1.493   2.866  15.775 -0.0501  0.1423 -0.3968
10560TIP3    H153095   1.514   2.815  15.697 -1.0625  0.1032 -0.6588
10560TIP3    H253096   1.399   2.854  15.787  0.2665 -0.7863  1.4998
10561TIP3   OH253097   4.469   6.486  16.896  0.3106  0.5395  0.2854
10561TIP3    H153098   4.399   6.465  16.958  0.6188 -0.5886  0.2705
10561TIP3    H253099   4.458   6.580  16.878 -0.0178  0.8123  1.7586
10562TIP3   OH253100   3.642   6.535  16.636  0.6339  0.0337 -0.7659
10562TIP3    H153101   3.608   6.503  16.552  0.6867 -0.8015 -0.4780
10562TIP3    H253102   3.727   6.491  16.646  1.2990  1.2461 -0.9526
10563TIP3   OH253103   4.065   1.017   2.909 -0.0028  0.1490  0.2382
10563TIP3    H153104   4.084   1.047   2.820  0.2271 -0.2047  0.1633
10563TIP3    H253105   4.015   0.936   2.896  1.2377 -0.6791  0.4038
10564TIP3   OH253106   3.234   4.382   0.661  0.1682  0.7119  0.4923
10564TIP3    H153107   3.203   4.470   0.683  1.2573  1.0935  0.5800
10564TIP3    H253108   3.240   4.337   0.745  1.6756  1.2776  0.7309
10565TIP3   OH253109   2.038   1.448  11.976  0.2165 -0.2045 -0.1368
10565TIP3    H153110   2.092   1.478  12.049 -0.6120  0.3950  0.2400
10565TIP3    H253111   2.094   1.460  11.899  1.7063 -2.3989  0.5363
10566TIP3   OH253112   4.117   6.736  15.869 -0.2953  0.2772 -0.4238
10566TIP3    H153113   4.105   6.716  15.961  0.2772  1.4613 -0.0755
10566TIP3    H253114   4.179   6.671  15.838  4.6616  3.4530  1.6151
10567TIP3   OH253115   2.069   0.984   2.087  0.3810 -0.0301  0.4546
10567TIP3    H153116   1.993   1.041   2.093  2.0938  2.3385  1.3245
10567TIP3    H253117   2.133   1.034   2.037  1.0776 -2.4045 -1.2646
10568TIP3   OH253118   6.704   4.912   1.127 -0.0054  0.4189 -0.4917
10568TIP3    H153119   6.630   4.962   1.164 -0.2429 -0.4751  0.2855
10568TIP3    H253120   6.667   4.866   1.052 -0.9504 -1.9584  1.2876
10569TIP3   OH253121   1.429   3.886   0.854  0.0619 -0.1377 -0.0196
10569TIP3    H153122   1.433   3.923   0.942 -1.4050  0.7947 -0.3094
10569TIP3    H253123   1.426   3.962   0.795 -0.5619 -0.7215 -0.7739
10570TIP3   OH253124   3.656   0.187  13.815  0.0815  0.4144 -0.3648
10570TIP3    H153125   3.738   0.234  13.800 -0.8357  1.8771 -0.9800
10570TIP3    H253126   3.650   0.125  13.743  0.5631  0.4140 -0.4083
10571TIP3   OH253127   0.569   2.132  11.366  0.1483  0.3452  0.6513
10571TIP3    H153128   0.636   2.065  11.354  0.5221  0.8553 -0.1414
10571TIP3    H253129   0.490   2.082  11.388  0.5458 -0.3208  0.5930
10572TIP3   OH253130   6.688   1.972  12.965 -0.2776  0.1306 -0.6564
10572TIP3    H153131   6.702   1.981  12.871  1.2712  0.6103 -0.4111
10572TIP3    H253132   6.776   1.981  13.003 -1.0215  1.1389  0.9181
10573TIP3   OH253133   4.628   6.053  13.274  0.6034  0.3139  0.1736
10573TIP3    H153134   4.640   5.959  13.283 -0.9183 -0.0311 -1.0350
10573TIP3    H253135   4.564   6.076  13.341 -1.5087 -0.1347 -1.5898
10574TIP3   OH253136   6.275   1.179  11.921 -0.4124 -0.3487  0.1183
10574TIP3    H153137   6.300   1.197  11.830 -1.9400  1.7148  0.0473
10574TIP3    H253138   6.248   1.087  11.920 -2.1831  0.0953 -2.0275
10575TIP3   OH253139   2.888   0.509  14.577  0.4356 -0.1545 -0.6174
10575TIP3    H153140   2.822   0.551  14.522 -0.1944 -0.1822  0.0951
10575TIP3    H253141   2.926   0.441  14.522 -0.8944 -0.8597 -0.6991
10576TIP3   OH253142   1.798   2.191   0.625  0.5356 -0.0982 -0.3451
10576TIP3    H153143   1.871   2.194   0.563  1.4547 -0.9406  0.6508
10576TIP3    H253144   1.802   2.103   0.662 -0.6156  0.0548  0.1810
10577TIP3   OH253145   4.783   6.267   0.530 -0.3054 -0.1318  0.8763
10577TIP3    H153146   4.693   6.238   0.541 -0.5210  0.6105  1.0993
10577TIP3    H253147   4.777   6.344   0.473  0.2758 -0.6077  0.1407
10578TIP3   OH253148   3.172   5.934   1.488  0.4848 -0.3296 -0.2828
10578TIP3    H153149   3.136   5.886   1.562 -2.1630 -0.5589 -1.6060
10578TIP3    H253150   3.138   6.023   1.499  0.3784 -0.2769 -1.0011
10579TIP3   OH253151   0.373   3.289   1.798 -0.2382 -0.0100  0.4946
10579TIP3    H153152   0.339   3.200   1.797 -2.6488  0.8462 -0.1275
10579TIP3    H253153   0.441   3.288   1.865  2.5587 -3.1942 -2.0170
10580TIP3   OH253154   4.945   6.776  17.051 -0.9679 -0.4806 -0.0113
10580TIP3    H153155   4.906   6.729  17.125 -3.6856 -0.3947 -1.2612
10580TIP3    H253156   4.892   6.855  17.042  1.5813  1.3865  0.1067
10581TIP3   OH253157   4.082   3.051  16.868  0.3466  0.2490  0.2511
10581TIP3    H153158   4.167   3.085  16.896  0.8135 -0.7129  0.0701
10581TIP3    H253159   4.036   3.127  16.833  3.4393  0.0679 -5.5053
10582TIP3   OH253160   3.400   1.858   0.210  0.5366 -0.0775 -0.0172
10582TIP3    H153161   3.321   1.810   0.236  0.9638 -1.5247 -1.2560
10582TIP3    H253162   3.402   1.934   0.268 -0.6218 -1.1239  1.4650
10583TIP3   OH253163   6.186   6.523   5.246  1.0287 -0.4988  0.3681
10583TIP3    H153164   6.154   6.468   5.317  1.2281 -1.0580  0.0313
10583TIP3    H253165   6.107   6.565   5.210  1.1150  1.4615  2.2529
10584TIP3   OH253166   5.301   2.346  13.610  0.1087  0.3182 -0.8853
10584TIP3    H153167   5.373   2.392  13.652  1.6822 -1.1783 -1.8144
10584TIP3    H253168   5.319   2.353  13.516 -2.0940  1.6329 -1.2791
10585TIP3   OH253169   5.742   1.671   4.691 -0.2682 -0.4608 -0.3708
10585TIP3    H153170   5.806   1.710   4.633 -1.2904 -0.2138 -1.3531
10585TIP3    H253171   5.777   1.687   4.779  0.9669 -0.2737 -0.8718
10586TIP3   OH253172   0.320   2.575   4.069 -0.5248  0.6652  0.0834
10586TIP3    H153173   0.302   2.547   4.159  1.3874  1.5551  0.7919
10586TIP3    H253174   0.374   2.654   4.079  1.1114 -0.1351 -1.8139
10587TIP3   OH253175   5.812   1.651  14.406 -0.6372 -0.0808 -0.5937
10587TIP3    H153176   5.897   1.627  14.369  0.6898  0.1990  2.0082
10587TIP3    H253177   5.787   1.575  14.459 -2.2501 -0.3224 -1.6552
10588TIP3   OH253178   1.145   1.434   2.853  0.1173 -0.1220 -0.0487
10588TIP3    H153179   1.161   1.347   2.816  0.9006  0.7543 -1.8783
10588TIP3    H253180   1.203   1.492   2.805 -0.4862  1.4653  1.0459
10589TIP3   OH253181   0.603   2.443  17.073  0.1552 -0.2770  0.1322
10589TIP3    H153182   0.655   2.364  17.085 -0.5205 -0.4958  2.1222
10589TIP3    H253183   0.512   2.413  17.083 -0.0520  0.9186  2.5847
10590TIP3   OH253184   0.185   1.265  14.935 -0.1462  0.0474 -0.0539
10590TIP3    H153185   0.150   1.265  15.024  0.5841  0.2908  0.2410
10590TIP3    H253186   0.157   1.182  14.898  1.9263 -1.3750  1.3683
10591TIP3   OH253187   0.010   6.198   4.505 -0.1229  0.1880 -0.7169
10591TIP3    H153188   0.089   6.241   4.473 -0.0985  0.8518  0.1942
10591TIP3    H253189   0.015   6.206   4.601 -0.1831 -1.7259 -0.5185
10592TIP3   OH253190   2.054   3.648   3.232 -0.3628 -0.4254  0.3478
10592TIP3    H153191   2.025   3.701   3.157  1.0961 -3.5053 -2.6944
10592TIP3    H253192   1.973   3.621   3.274 -1.4551 -0.6677 -1.7590
10593TIP3   OH253193   3.316   1.338   5.298  0.2101 -0.5587 -0.2951
10593TIP3    H153194   3.265   1.287   5.236  0.9054 -1.2932 -0.2758
10593TIP3    H253195   3.354   1.409   5.246  0.1466 -0.7157 -0.5547
10594TIP3   OH253196   5.760   3.089  12.738  0.0475  0.6015  0.2148
10594TIP3    H153197   5.757   3.180  12.711 -0.6433  0.5402  0.0678
10594TIP3    H253198   5.845   3.057  12.707  0.9181  1.5745  1.5359
10595TIP3   OH253199   0.230   3.847   2.886 -0.3875  0.3712  0.2084
10595TIP3    H153200   0.170   3.869   2.815 -0.6161  0.8193  0.5369
10595TIP3    H253201   0.177   3.855   2.965  0.6159  2.8911  0.7214
10596TIP3   OH253202   0.931   2.808   1.638  0.6288  0.0721  0.2721
10596TIP3    H153203   0.940   2.816   1.733  3.6947 -1.2850  0.1902
10596TIP3    H253204   0.907   2.896   1.609 -0.6095  0.4634  2.2656
10597TIP3   OH253205   3.637   4.245   1.248  0.0683 -0.3428  0.2495
10597TIP3    H153206   3.681   4.315   1.199 -0.3911  0.6314  1.1798
10597TIP3    H253207   3.561   4.288   1.288 -0.4867 -1.4936  0.4580
10598TIP3   OH253208   3.262   5.753  11.422 -0.4932 -0.0215  0.3762
10598TIP3    H153209   3.318   5.709  11.486  1.2046 -0.9248 -1.5891
10598TIP3    H253210   3.201   5.685  11.393 -0.4715  0.0241  0.2179
10599TIP3   OH253211   3.671   0.328   4.652 -0.0961  0.4220 -0.5096
10599TIP3    H153212   3.635   0.361   4.734 -0.0241 -1.8732  0.5384
10599TIP3    H253213   3.684   0.234   4.668  2.4939  0.3887 -2.2459
10600TIP3   OH253214   1.035   4.448   1.114 -0.1483  0.4948  0.5453
10600TIP3    H153215   0.964   4.509   1.135 -1.7440 -1.2783  0.5968
10600TIP3    H253216   1.029   4.435   1.020  1.7933  2.2482  0.1175
10601TIP3   OH253217   0.568   3.462   1.967 -0.8848 -0.0152 -0.0054
10601TIP3    H153218   0.609   3.547   1.951  0.0227 -0.4540 -0.0608
10601TIP3    H253219   0.500   3.480   2.032 -0.8066  0.7768 -0.1294
10602TIP3   OH253220   2.633   4.136   0.210  0.0504 -0.4581  0.1687
10602TIP3    H153221   2.646   4.228   0.187  0.3016  0.0678  2.2678
10602TIP3    H253222   2.555   4.110   0.161  0.0737  0.8046 -0.5832
10603TIP3   OH253223   4.826   5.172  13.063  0.1503 -0.2966  0.1206
10603TIP3    H153224   4.869   5.231  13.001 -0.6641 -0.4585 -0.6106
10603TIP3    H253225   4.790   5.102  13.009  0.2072 -0.9204  0.8734
10604TIP3   OH253226   0.417   2.389  16.500 -0.3299  0.0445  0.4881
10604TIP3    H153227   0.387   2.395  16.591 -0.9710 -2.5295  0.5375
10604TIP3    H253228   0.505   2.427  16.501 -0.0689 -0.5114  2.3504
10605TIP3   OH253229   5.979   1.269   3.239  0.5412  1.0499  0.3049
10605TIP3    H153230   5.953   1.356   3.271 -0.5676  0.9994 -0.4131
10605TIP3    H253231   5.903   1.238   3.190  1.0906 -0.1508  0.1850
10606TIP3   OH253232   2.920   6.326   4.820  0.0590 -0.1285 -0.1137
10606TIP3    H153233   2.979   6.311   4.746 -1.1129 -0.8252 -0.9428
10606TIP3    H253234   2.978   6.352   4.892  1.4328 -1.3543 -0.7178
10607TIP3   OH253235   5.745   6.360   4.645 -0.2399 -0.4019 -0.5542
10607TIP3    H153236   5.671   6.323   4.692  0.3998 -1.3847 -0.2881
10607TIP3    H253237   5.764   6.295   4.577 -0.2476  0.3198 -1.2662
10608TIP3   OH253238   3.589   1.828   0.604 -0.0038  0.0949  0.2065
10608TIP3    H153239   3.595   1.840   0.699  0.7182 -0.1908  0.2050
10608TIP3    H253240   3.619   1.911   0.567  2.8361 -0.8167  0.2185
10609TIP3   OH253241   2.261   1.752   1.464  0.0632 -0.2443  0.2244
10609TIP3    H153242   2.209   1.806   1.405 -0.0864  0.2667  0.8147
10609TIP3    H253243   2.242   1.786   1.551 -0.9559 -2.0237  0.7306
10610TIP3   OH253244   4.571   0.571  15.631  0.1266  0.3835 -0.1457
10610TIP3    H153245   4.575   0.480  15.660  0.9724 -0.1724 -1.9140
10610TIP3    H253246   4.524   0.616  15.702 -0.8023 -1.5029  0.5169
10611TIP3   OH253247   6.043   5.589   4.047  0.4996  0.2906 -0.5486
10611TIP3    H153248   6.059   5.501   4.013 -2.3966 -0.1200 -1.0648
10611TIP3    H253249   6.053   5.646   3.971  0.0307  0.1035 -0.7543
10612TIP3   OH253250   5.053   0.526  16.608 -0.0088  0.2432 -0.3296
10612TIP3    H153251   5.073   0.508  16.516  0.8121  0.2322 -0.1582
10612TIP3    H253252   5.128   0.491  16.656 -2.0209 -3.2230  0.6904
10613TIP3   OH253253   3.182   4.059  12.301 -0.5428  0.4835 -0.4178
10613TIP3    H153254   3.189   4.105  12.385 -0.9213 -0.4747  0.1612
10613TIP3    H253255   3.241   4.106  12.243 -0.5185  1.3658  0.2950
10614TIP3   OH253256   1.701   2.196  14.667  1.0119 -0.2734 -0.4861
10614TIP3    H153257   1.740   2.216  14.582  2.9855 -2.6473 -0.2587
10614TIP3    H253258   1.747   2.253  14.729 -0.3361  1.3635 -0.9281
10615TIP3   OH253259   5.667   3.412  14.910  0.3456 -0.6948  0.2691
10615TIP3    H153260   5.677   3.344  14.978  0.6107 -1.1905 -0.2558
10615TIP3    H253261   5.593   3.382  14.858 -0.5664  0.2544  0.9864
10616TIP3   OH253262   1.341   1.190  16.167  0.0756  0.0669 -0.3102
10616TIP3    H153263   1.410   1.235  16.216  0.7304 -0.3265 -0.8468
10616TIP3    H253264   1.288   1.260  16.130 -0.2206  0.3718  0.6584
10617TIP3   OH253265   3.542   1.656   2.936 -0.4912 -0.0950 -0.3726
10617TIP3    H153266   3.468   1.710   2.908 -0.8966  0.2574  1.2501
10617TIP3    H253267   3.544   1.666   3.031  0.8119 -1.1881 -0.2519
10618TIP3   OH253268   1.571   5.095   5.221  0.1575  0.2092 -0.0101
10618TIP3    H153269   1.630   5.151   5.271  1.1907 -0.0233 -0.9422
10618TIP3    H253270   1.536   5.034   5.285  0.1263  0.9988  0.7467
10619TIP3   OH253271   6.012   1.143   4.982 -0.6589  0.1912  0.0037
10619TIP3    H153272   6.081   1.080   4.962 -0.7860  0.0693 -0.0515
10619TIP3    H253273   5.943   1.123   4.919 -0.9100  0.0500  0.3227
10620TIP3   OH253274   4.159   1.649   0.169  0.0835  0.2133  0.4101
10620TIP3    H153275   4.156   1.628   0.263  1.2755  0.2800  0.4804
10620TIP3    H253276   4.128   1.739   0.164 -1.0141 -0.1432  0.6079
10621TIP3   OH253277   0.238   6.685  10.660  0.2360 -0.5867  0.2572
10621TIP3    H153278   0.308   6.692  10.595  1.4474  0.3650  1.5922
10621TIP3    H253279   0.191   6.768  10.654  2.2322  0.8647  2.5383
10622TIP3   OH253280   3.007   2.538   3.381  0.2458 -0.6363  0.1766
10622TIP3    H153281   2.985   2.630   3.367  0.3304 -0.6277  0.0931
10622TIP3    H253282   2.980   2.494   3.300  1.1469 -0.5146 -0.2089
10623TIP3   OH253283   1.418   3.909  16.308  0.3725 -0.1613  0.0907
10623TIP3    H153284   1.365   3.942  16.236  0.7140  0.1353 -0.0262
10623TIP3    H253285   1.372   3.938  16.387  0.9691  1.1234 -0.0043
10624TIP3   OH253286   6.507   4.806   3.923  0.2423  0.7135  0.2068
10624TIP3    H153287   6.584   4.820   3.867  1.7765  1.9352  2.4630
10624TIP3    H253288   6.515   4.714   3.951  1.8400  1.2344  1.6441
10625TIP3   OH253289   2.176   0.463   2.630 -0.7524 -0.1502 -0.0040
10625TIP3    H153290   2.213   0.488   2.715  2.6351 -0.4512 -1.2127
10625TIP3    H253291   2.148   0.546   2.591  1.9531  0.7094 -0.3319
10626TIP3   OH253292   3.535   4.974  11.160 -0.3432 -0.5554 -0.2902
10626TIP3    H153293   3.490   4.954  11.242 -1.5567 -0.5752 -0.9330
10626TIP3    H253294   3.481   4.934  11.092 -0.3011  0.9071 -1.2371
10627TIP3   OH253295   0.228   1.874  11.723 -0.1217 -1.1862 -0.0137
10627TIP3    H153296   0.163   1.941  11.699  0.4411 -1.2033 -1.7230
10627TIP3    H253297   0.250   1.893  11.814  0.1296  1.0691 -0.4889
10628TIP3   OH253298   0.161   6.308   1.567  0.4929  0.1866 -0.2295
10628TIP3    H153299   0.186   6.260   1.488  1.3344  3.9037 -2.4625
10628TIP3    H253300   0.243   6.321   1.614  0.4532  0.3891 -0.2152
10629TIP3   OH253301   5.077   3.399  13.423  0.1453 -0.6836  0.0883
10629TIP3    H153302   5.094   3.462  13.493  1.0228 -0.0890 -0.6275
10629TIP3    H253303   5.036   3.324  13.466  0.4715 -0.2433  1.1889
10630TIP3   OH253304   3.269   4.413  14.063  0.2249  0.7325  0.0931
10630TIP3    H153305   3.307   4.450  13.983 -0.2545 -1.9071 -1.4766
10630TIP3    H253306   3.177   4.396  14.040 -0.1815  0.8286  1.5542
10631TIP3   OH253307   4.109   5.567   2.869  0.2872  0.0812 -0.3502
10631TIP3    H153308   4.194   5.551   2.909 -0.0127  0.6817  0.5519
10631TIP3    H253309   4.054   5.600   2.940 -0.4070  0.6918 -1.1396
10632TIP3   OH253310   1.902   2.090   1.961 -0.5357  0.3908 -0.0694
10632TIP3    H153311   1.819   2.104   2.007 -0.6610 -0.1844 -0.1221
10632TIP3    H253312   1.969   2.105   2.027 -0.7249 -2.9689  1.0669
10633TIP3   OH253313   3.908   3.256  16.812  0.0869 -0.1247 -0.0693
10633TIP3    H153314   3.897   3.302  16.895  0.6281 -1.5938  0.8520
10633TIP3    H253315   3.821   3.259  16.771 -0.8303 -1.3460  1.6312
10634TIP3   OH253316   1.304   2.201  11.072 -0.0904 -0.2189 -0.2875
10634TIP3    H153317   1.361   2.214  10.996  0.3854  0.6286  0.1852
10634TIP3    H253318   1.227   2.255  11.053 -0.9797 -1.7372 -1.1399
10635TIP3   OH253319   5.893   1.993   2.588 -0.4286  0.7775  0.6911
10635TIP3    H153320   5.890   2.088   2.583 -0.8646  0.7471  0.2747
10635TIP3    H253321   5.803   1.967   2.611 -0.1477  0.5036  1.5005
10636TIP3   OH253322   5.665   4.227  11.405  0.5160 -1.0717  0.0194
10636TIP3    H153323   5.607   4.272  11.344 -1.0970 -1.6707  1.0653
10636TIP3    H253324   5.732   4.293  11.426  0.5630 -0.5513 -1.6156
10637TIP3   OH253325   4.902   2.833  14.966 -0.1258 -0.3400 -0.3782
10637TIP3    H153326   4.965   2.905  14.966 -0.0176 -0.4345 -0.1249
10637TIP3    H253327   4.952   2.756  14.992 -0.4058 -0.3546  0.1544
10638TIP3   OH253328   5.191   0.169  14.802  0.4221 -0.2602  0.0614
10638TIP3    H153329   5.274   0.181  14.849  0.4376  1.1591 -0.2814
10638TIP3    H253330   5.206   0.210  14.716  0.1901 -2.2478 -0.9775
10639TIP3   OH253331   3.078   5.479   6.115 -0.2907  0.4063  0.2096
10639TIP3    H153332   3.056   5.483   6.021  2.8858  0.0412 -0.6604
10639TIP3    H253333   3.160   5.527   6.122  0.1566 -0.5774  2.6289
10640TIP3   OH253334   5.162   2.601  15.865 -0.3701 -0.2969 -0.0529
10640TIP3    H153335   5.233   2.637  15.918  0.9621 -1.7134 -0.8145
10640TIP3    H253336   5.087   2.659  15.883  1.3792  2.2880 -0.5186
10641TIP3   OH253337   5.697   2.394   4.463  0.1960  0.0008 -0.0039
10641TIP3    H153338   5.664   2.400   4.373 -0.6535  0.5532  0.3257
10641TIP3    H253339   5.674   2.305   4.491  0.5158 -0.1917 -0.3528
10642TIP3   OH253340   1.874   1.414   0.982 -0.0697 -0.1227  0.3882
10642TIP3    H153341   1.843   1.325   0.964 -0.8318 -0.0571  1.2645
10642TIP3    H253342   1.939   1.403   1.051  1.9921 -0.2617 -1.4686
10643TIP3   OH253343   4.400   2.460   0.725  0.4285  0.1114  0.0918
10643TIP3    H153344   4.403   2.370   0.692 -1.8739  1.1655 -3.5851
10643TIP3    H253345   4.421   2.514   0.649 -0.3810  2.7641  1.6340
10644TIP3   OH253346   0.748   6.635  13.412  0.7153 -0.6852 -0.2990
10644TIP3    H153347   0.668   6.583  13.404  0.4895 -0.7485  1.7913
10644TIP3    H253348   0.781   6.616  13.500  0.7292  2.5262  0.5118
10645TIP3   OH253349   4.857   2.346   4.574  0.4889  0.7439  0.8490
10645TIP3    H153350   4.856   2.378   4.484  1.8141  2.3123  1.3339
10645TIP3    H253351   4.810   2.413   4.624 -0.3957 -0.1990  1.3211
10646TIP3   OH253352   6.006   2.141   2.002  0.5610  0.2776  0.0270
10646TIP3    H153353   5.937   2.168   2.062  2.3905  1.8462  1.5445
10646TIP3    H253354   5.981   2.180   1.918 -1.3365 -0.8155  0.0199
10647TIP3   OH253355   1.329   0.288   0.840 -0.0897 -0.5132 -0.1824
10647TIP3    H153356   1.387   0.346   0.889  1.7120 -0.8647 -1.7669
10647TIP3    H253357   1.343   0.202   0.879  2.3633 -1.0505 -2.0053
10648TIP3   OH253358   2.345   5.183   1.087 -0.1059  0.0172 -0.2930
10648TIP3    H153359   2.416   5.245   1.107 -0.6689  0.6960 -0.3667
10648TIP3    H253360   2.278   5.237   1.045 -0.9094 -0.5159  0.2946
10649TIP3   OH253361   3.752   3.128  17.171 -0.6168  0.0712  0.0852
10649TIP3    H153362   3.747   3.168  17.084  1.2116 -0.5372 -0.3555
10649TIP3    H253363   3.696   3.183  17.226  0.4115  2.1800 -0.8578
10650TIP3   OH253364   5.780   5.531  10.512 -0.2062 -0.2537 -0.4617
10650TIP3    H153365   5.718   5.510  10.582 -1.0881  0.5528 -0.9807
10650TIP3    H253366   5.737   5.601  10.462  0.1682 -1.1749 -2.1295
10651TIP3   OH253367   3.050   0.515   4.604 -0.4128  0.1832 -0.1339
10651TIP3    H153368   3.143   0.501   4.587 -0.0915  0.2172  1.3670
10651TIP3    H253369   3.024   0.584   4.543  0.2697 -0.5869 -1.3077
10652TIP3   OH253370   2.108   1.930   2.904 -0.1076  0.2273  0.4127
10652TIP3    H153371   2.189   1.880   2.917 -1.8936 -3.4089 -0.8719
10652TIP3    H253372   2.120   1.975   2.821  1.0859  0.9007  0.9330
10653TIP3   OH253373   2.477   4.992   1.227 -0.4516 -0.1345  0.4722
10653TIP3    H153374   2.404   5.029   1.175 -0.0878 -1.0105 -0.7073
10653TIP3    H253375   2.554   5.009   1.173  0.0485 -0.3353  1.1291
10654TIP3   OH253376   5.250   6.040   4.524  0.0577  0.3736 -0.6522
10654TIP3    H153377   5.275   6.086   4.444  0.5109  1.9624  0.3615
10654TIP3    H253378   5.200   6.104   4.574 -0.7514 -0.7963  0.0812
10655TIP3   OH253379   4.587   4.226   0.987 -0.8135 -0.4725  0.7333
10655TIP3    H153380   4.599   4.139   0.950  0.2777 -0.2955  0.6550
10655TIP3    H253381   4.586   4.285   0.911 -1.3977 -0.3951  0.7961
10656TIP3   OH253382   6.242   2.755   0.274  0.5921 -0.6596  0.2723
10656TIP3    H153383   6.194   2.826   0.316  2.3954  0.6736  0.2064
10656TIP3    H253384   6.187   2.678   0.287 -0.7370  0.4519  1.6458
10657TIP3   OH253385   3.553   4.452  16.165  0.2981  0.4811  0.3535
10657TIP3    H153386   3.527   4.376  16.113 -1.3197  1.9427 -1.0701
10657TIP3    H253387   3.648   4.445  16.171  0.4247 -0.3469 -1.8443
10658TIP3   OH253388   3.559   6.675  11.789  0.4233 -0.2867  0.5486
10658TIP3    H153389   3.585   6.734  11.718  3.2236 -2.1363 -0.1103
10658TIP3    H253390   3.635   6.671  11.847 -0.2199 -2.1163  1.3653
10659TIP3   OH253391   0.385   4.228  15.026 -0.0506 -0.2303  0.8174
10659TIP3    H153392   0.419   4.244  15.114  1.1937  2.1685 -0.0135
10659TIP3    H253393   0.461   4.239  14.969 -1.4629  1.8183 -0.8224
10660TIP3   OH253394   2.715   2.239   2.767  0.2685  0.5437  0.0000
10660TIP3    H153395   2.696   2.238   2.861  1.5311 -1.8786  0.3277
10660TIP3    H253396   2.808   2.262   2.762  0.1849  0.7469 -0.6629
10661TIP3   OH253397   0.416   5.859  16.522 -0.2325 -0.2327 -0.3482
10661TIP3    H153398   0.342   5.833  16.577  0.7851 -1.2202  0.6173
10661TIP3    H253399   0.467   5.917  16.578 -1.4999  2.5037 -1.8423
10662TIP3   OH253400   2.029   2.087   4.825 -0.3646 -0.1664 -0.5617
10662TIP3    H153401   2.106   2.037   4.851 -0.5101  0.6852  1.8101
10662TIP3    H253402   1.958   2.022   4.824 -0.0925 -0.4866 -0.0494
10663TIP3   OH253403   5.741   1.148  16.271  0.3190  0.3441 -0.5559
10663TIP3    H153404   5.725   1.242  16.278 -1.9138  0.2304 -2.7373
10663TIP3    H253405   5.692   1.110  16.343 -0.3855  0.7631 -0.7985
10664TIP3   OH253406   0.349   5.773  15.623 -0.2023 -0.4207  0.3867
10664TIP3    H153407   0.438   5.806  15.620 -0.2685 -0.1448  1.1947
10664TIP3    H253408   0.341   5.716  15.547 -0.0500  1.3262 -0.9980
10665TIP3   OH253409   2.881   5.151   1.496  0.2343  0.2813  0.0038
10665TIP3    H153410   2.926   5.193   1.423 -1.1095  1.7056 -0.0662
10665TIP3    H253411   2.943   5.156   1.569  1.4833 -0.9113 -0.9289
10666TIP3   OH253412   0.981   6.539  14.539  0.0210  0.1999  0.4693
10666TIP3    H153413   0.994   6.459  14.487 -3.0506 -0.2321  0.2279
10666TIP3    H253414   0.968   6.608  14.473 -1.5484  0.0851  0.6387
10667TIP3   OH253415   5.577   6.569  11.880  0.7801  0.1029  0.2858
10667TIP3    H153416   5.641   6.542  11.946  2.3951 -0.1500 -1.3239
10667TIP3    H253417   5.575   6.664  11.887  0.5234  0.0571  1.0272
10668TIP3   OH253418   4.036   4.947  14.467 -0.0187  0.3349  0.4864
10668TIP3    H153419   4.109   4.912  14.417 -0.8840 -0.1093 -0.5031
10668TIP3    H253420   3.968   4.880  14.460 -0.4432  0.6145  1.6098
10669TIP3   OH253421   0.496   6.038   0.615 -0.2435 -0.5633 -0.0268
10669TIP3    H153422   0.544   6.121   0.624 -0.6614 -0.2865 -0.2983
10669TIP3    H253423   0.416   6.062   0.568 -1.2287 -0.8094  1.4708
10670TIP3   OH253424   4.234   3.789  12.116 -0.3279 -0.4179 -0.5010
10670TIP3    H153425   4.239   3.855  12.185 -0.4063 -0.8590 -0.0669
10670TIP3    H253426   4.325   3.771  12.094 -0.2574 -1.1013  0.2959
10671TIP3   OH253427   1.219   3.014   2.130  0.5360 -0.4096  0.1940
10671TIP3    H153428   1.223   3.080   2.061 -1.4900  0.3663  0.7527
10671TIP3    H253429   1.255   2.935   2.089  0.1625  0.2431 -1.4997
10672TIP3   OH253430   2.957   3.653   3.858  0.1537  1.1750  0.1224
10672TIP3    H153431   3.042   3.680   3.893 -0.6171  4.6061 -0.3454
10672TIP3    H253432   2.907   3.734   3.851 -3.1282 -0.6684  0.1568
10673TIP3   OH253433   5.169   6.693   4.079  0.0486 -0.4705  0.5168
10673TIP3    H153434   5.241   6.745   4.113 -0.2229 -0.8948  1.7793
10673TIP3    H253435   5.096   6.754   4.070  0.4403 -0.1184 -0.4191
10674TIP3   OH253436   3.223   2.408  13.393 -0.2885  0.8012 -0.2548
10674TIP3    H153437   3.196   2.423  13.484 -0.6028  1.6157 -0.4740
10674TIP3    H253438   3.142   2.410  13.343 -0.3282 -1.3548 -0.3733
10675TIP3   OH253439   0.727   3.113  13.970 -0.4631  0.2869 -0.0180
10675TIP3    H153440   0.745   3.078  14.058 -1.1617 -0.4579 -0.1598
10675TIP3    H253441   0.718   3.208  13.984 -2.1458  0.0155  1.0038
10676TIP3   OH253442   1.242   0.443   6.368 -0.7186 -0.2240  0.0010
10676TIP3    H153443   1.280   0.529   6.386 -0.1895 -0.6823  1.1772
10676TIP3    H253444   1.151   0.461   6.346 -0.6407  0.6265  0.3452
10677TIP3   OH253445   0.753   1.119   6.141 -0.2002  0.1972 -1.0519
10677TIP3    H153446   0.836   1.144   6.100 -1.3425  3.4585 -1.7001
10677TIP3    H253447   0.752   1.168   6.223 -1.1485 -0.4472 -0.6680
10678TIP3   OH253448   6.103   4.092   2.398 -0.4128 -0.1624  0.3491
10678TIP3    H153449   6.073   4.079   2.308  0.2288  0.8495 -0.0342
10678TIP3    H253450   6.187   4.046   2.402  1.7367  3.2120 -0.9348
10679TIP3   OH253451   2.327   0.098   3.672  0.0739 -0.4479 -0.1376
10679TIP3    H153452   2.281   0.025   3.712 -2.2610  0.4797 -0.9191
10679TIP3    H253453   2.262   0.169   3.671  1.4553  0.8730 -1.5656
10680TIP3   OH253454   2.397   1.850  16.187  0.3362  0.1458  0.7314
10680TIP3    H153455   2.413   1.893  16.272  1.4820  5.0063 -1.5837
10680TIP3    H253456   2.482   1.818  16.159  0.4968  0.8129  0.4199
10681TIP3   OH253457   2.444   6.590   4.129  0.7302  0.6300  0.4233
10681TIP3    H153458   2.374   6.562   4.070  1.0381  1.3320 -0.2942
10681TIP3    H253459   2.437   6.531   4.204 -0.2798  0.3386  0.1179
10682TIP3   OH253460   6.011   0.175  13.875  0.0398 -0.6136  0.4820
10682TIP3    H153461   5.970   0.089  13.888  0.0487 -0.7470 -0.3103
10682TIP3    H253462   6.102   0.162  13.902 -0.0381 -0.7719  0.6675
10683TIP3   OH253463   2.952   5.006  11.389  0.6017 -0.1221 -0.7147
10683TIP3    H153464   2.965   5.041  11.477 -2.6403  0.0742 -0.1836
10683TIP3    H253465   2.987   4.917  11.394  0.2800 -0.1979  0.8636
10684TIP3   OH253466   3.140   4.108  15.561  0.2906  0.1263 -0.2399
10684TIP3    H153467   3.111   4.052  15.633  0.5479 -1.2300 -1.1479
10684TIP3    H253468   3.059   4.143  15.524  0.1262  0.3643  0.3384
10685TIP3   OH253469   1.842   2.746  14.649 -0.2878  0.2256 -0.3716
10685TIP3    H153470   1.772   2.745  14.583 -0.7181 -3.4171 -0.0314
10685TIP3    H253471   1.922   2.731  14.599 -0.4134 -0.8681 -0.2575
10686TIP3   OH253472   0.270   2.003   1.094 -0.4103 -0.3639 -0.0527
10686TIP3    H153473   0.295   1.993   1.002  1.3266 -0.5219  0.4152
10686TIP3    H253474   0.325   1.941   1.141 -0.2835  0.6850  1.2518
10687TIP3   OH253475   1.312   5.350   4.999  0.3967  0.1088 -0.1627
10687TIP3    H153476   1.267   5.288   4.942  2.7043 -1.1726 -0.7259
10687TIP3    H253477   1.274   5.335   5.085 -0.5563 -0.5914 -0.6890
10688TIP3   OH253478   3.643   5.638  14.010  0.3989  0.0138  0.2073
10688TIP3    H153479   3.731   5.649  13.975  0.4463  0.8950  0.5781
10688TIP3    H253480   3.652   5.569  14.076  0.8741  0.3032  0.4508
10689TIP3   OH253481   3.605   4.691  14.636 -0.5775  0.0346  0.5808
10689TIP3    H153482   3.665   4.678  14.709  1.0239  1.7158 -0.3768
10689TIP3    H253483   3.578   4.782  14.642 -2.3267 -0.4329  0.4279
10690TIP3   OH253484   2.563   6.209   0.336  0.4781  0.6890 -0.3377
10690TIP3    H153485   2.570   6.184   0.428 -0.4905  1.7335  0.0396
10690TIP3    H253486   2.606   6.294   0.330 -1.5356  1.7781 -0.3101
10691TIP3   OH253487   6.148   2.147  17.067 -0.4875  0.0295  0.5321
10691TIP3    H153488   6.076   2.132  17.128 -0.0965 -1.5262  0.6421
10691TIP3    H253489   6.217   2.089  17.096  0.1338  0.1104 -0.7095
10692TIP3   OH253490   4.267   6.613   3.971  0.0204 -0.3772 -0.3527
10692TIP3    H153491   4.358   6.593   3.996 -0.0309  1.6935  1.8164
10692TIP3    H253492   4.222   6.528   3.977  1.5501 -1.2340 -0.3275
10693TIP3   OH253493   0.184   2.931   4.917 -0.1577 -0.3011 -0.5350
10693TIP3    H153494   0.188   2.970   5.004  1.1970 -0.6693 -0.4010
10693TIP3    H253495   0.109   2.872   4.920 -1.3622  1.2018 -0.2907
10694TIP3   OH253496   6.785   3.150   1.125  0.0479  0.3227 -0.3632
10694TIP3    H153497   6.823   3.225   1.171  0.1800  0.8260 -1.2645
10694TIP3    H253498   6.745   3.097   1.194  1.3425  0.3899  0.4713
10695TIP3   OH253499   0.953   6.722  15.522  0.4869  0.1133 -0.2284
10695TIP3    H153500   0.941   6.704  15.429  1.5797 -2.7945  0.0910
10695TIP3    H253501   0.886   6.669  15.565 -0.2606  1.7248  0.6945
10696TIP3   OH253502   2.768   4.836  13.730  0.0857  0.6640  0.9296
10696TIP3    H153503   2.819   4.813  13.808 -0.3451 -0.1663  0.9800
10696TIP3    H253504   2.829   4.884  13.674  0.1954  1.9938  2.1205
10697TIP3   OH253505   6.698   1.333  16.603  0.5904  0.0400 -0.5525
10697TIP3    H153506   6.724   1.400  16.666  1.2166  2.0638 -2.8202
10697TIP3    H253507   6.711   1.250  16.650  0.6466  1.4147  2.0617
10698TIP3   OH253508   2.802   0.896   0.472 -0.5067  0.3247 -0.0525
10698TIP3    H153509   2.750   0.971   0.441 -3.1159 -1.6730 -0.9040
10698TIP3    H253510   2.842   0.861   0.392 -1.3024 -0.5748 -0.0731
10699TIP3   OH253511   6.645   6.287  11.425 -0.0693 -0.4187 -0.0238
10699TIP3    H153512   6.576   6.300  11.360 -0.5405 -0.7671  0.3926
10699TIP3    H253513   6.605   6.230  11.491 -0.7845  2.5331  2.3398
10700TIP3   OH253514   5.324   0.300   0.039 -0.0041 -0.5650 -0.5433
10700TIP3    H153515   5.288   0.342  -0.039 -1.8926  0.3257  0.7370
10700TIP3    H253516   5.264   0.324   0.109  2.6357  0.2447  1.6015
10701TIP3   OH253517   1.407   5.913  15.182  0.2060 -0.2868 -0.1237
10701TIP3    H153518   1.428   6.001  15.149 -0.6693  0.5472  1.4040
10701TIP3    H253519   1.350   5.929  15.257 -0.4242 -2.2043 -0.1398
10702TIP3   OH253520   6.777   1.114  13.257 -0.2872  0.1831  0.7469
10702TIP3    H153521   6.793   1.200  13.220  1.0048 -0.9077 -1.3867
10702TIP3    H253522   6.845   1.103  13.324  1.0826 -0.0727 -0.6333
10703TIP3   OH253523   3.196   5.443   1.170 -0.4193 -0.4877  0.7252
10703TIP3    H153524   3.247   5.361   1.170  0.0224 -0.2268  1.4043
10703TIP3    H253525   3.183   5.463   1.078  1.3561 -0.1874  0.5047
10704TIP3   OH253526   5.889   1.925  15.811 -0.3282  0.4385  0.0291
10704TIP3    H153527   5.817   1.897  15.868 -0.5703 -1.0983 -0.9610
10704TIP3    H253528   5.878   2.019  15.802 -0.7098  0.6106  1.9259
10705TIP3   OH253529   2.911   6.680   4.661 -0.6291  0.6105  0.4333
10705TIP3    H153530   2.993   6.723   4.637 -1.2080  0.1110 -2.9114
10705TIP3    H253531   2.938   6.604   4.714  1.2972 -0.4492 -1.8681
10706TIP3   OH253532   0.505   2.996  15.648  0.3420  0.3800 -0.1780
10706TIP3    H153533   0.499   2.994  15.552 -0.5502 -1.4102 -0.1164
10706TIP3    H253534   0.463   3.078  15.673 -0.4525  0.3276 -1.2679
10707TIP3   OH253535   5.677   5.819   0.910  0.1394  0.2044 -0.5688
10707TIP3    H153536   5.740   5.825   0.838  1.1472  1.6093  0.3680
10707TIP3    H253537   5.607   5.765   0.876  1.8039 -1.3598 -1.6875
10708TIP3   OH253538   2.944   5.691   5.112  0.3716  0.1006 -0.3488
10708TIP3    H153539   2.931   5.754   5.041  0.4495  1.8054  1.0786
10708TIP3    H253540   3.035   5.704   5.140  0.1313 -0.0102  0.5278
10709TIP3   OH253541   3.191   1.753   1.786  0.1348 -0.0799 -0.2004
10709TIP3    H153542   3.146   1.727   1.705  0.9214 -0.4776 -0.5259
10709TIP3    H253543   3.265   1.692   1.793 -0.0393 -0.1813  0.9358
10710TIP3   OH253544   4.900   0.050  12.150 -0.1208  0.3080 -0.0899
10710TIP3    H153545   4.815   0.093  12.138  0.2530  0.5514 -2.1116
10710TIP3    H253546   4.917   0.006  12.067  0.8336 -1.4118  0.9659
10711TIP3   OH253547   1.498   0.518   2.770  0.6988 -0.5087 -0.2142
10711TIP3    H153548   1.569   0.468   2.730  1.0210  0.9400 -1.5469
10711TIP3    H253549   1.446   0.549   2.696 -1.1162 -1.1823  0.7134
10712TIP3   OH253550   0.714   3.881   0.061 -0.0984  0.0906 -0.4015
10712TIP3    H153551   0.712   3.808   0.123  1.7357  0.6056  0.3150
10712TIP3    H253552   0.645   3.940   0.090  0.9765  0.5041  1.3954
10713TIP3   OH253553   1.848   6.215   1.511 -0.2871  0.4297  0.1714
10713TIP3    H153554   1.808   6.189   1.428  0.1311  0.4914 -0.0515
10713TIP3    H253555   1.775   6.217   1.573 -0.5655  0.1586 -0.1410
10714TIP3   OH253556   3.158   1.425   4.844 -0.2597 -0.2475 -0.6170
10714TIP3    H153557   3.247   1.404   4.872 -0.1971 -0.1443 -0.7402
10714TIP3    H253558   3.155   1.401   4.752 -0.1139  0.4964 -0.8257
10715TIP3   OH253559   3.341   5.986  12.686  0.7480  0.1815 -0.4216
10715TIP3    H153560   3.323   6.051  12.618  0.8721 -0.1105 -0.7314
10715TIP3    H253561   3.320   6.031  12.768  1.5566  0.8839 -0.5779
10716TIP3   OH253562   4.206   5.223  11.640  0.0843  0.4188  0.0736
10716TIP3    H153563   4.213   5.138  11.683 -0.4424  0.4096  0.1505
10716TIP3    H253564   4.254   5.213  11.558  1.2848  0.5029  0.7579
10717TIP3   OH253565   5.915   6.666   5.610 -0.2621 -0.2391 -0.2896
10717TIP3    H153566   5.940   6.577   5.635  0.5772 -0.2985 -1.2829
10717TIP3    H253567   5.997   6.710   5.589 -0.4536  1.3993  2.0250
10718TIP3   OH253568   1.064   5.264  17.220  0.1693  0.2072 -0.0216
10718TIP3    H153569   0.995   5.325  17.196  0.2169 -0.0000 -0.6915
10718TIP3    H253570   1.018   5.186  17.251  0.1039  0.2100 -0.1113
10719TIP3   OH253571   4.891   0.719   4.919  0.2410  0.2844  0.2610
10719TIP3    H153572   4.847   0.647   4.874  2.1947 -0.4651 -0.5784
10719TIP3    H253573   4.860   0.713   5.010 -1.1151 -0.3678 -0.2265
10720TIP3   OH253574   0.653   4.751  11.439  0.1249 -0.5840  0.2683
10720TIP3    H153575   0.615   4.695  11.507 -1.8157  0.0583 -0.2435
10720TIP3    H253576   0.612   4.722  11.358 -0.8714  1.4910 -0.0276
10721TIP3   OH253577   0.017   6.596   4.982 -0.0749  0.4200  0.5487
10721TIP3    H153578  -0.005   6.543   5.059  3.5260 -0.8458  0.9128
10721TIP3    H253579   0.070   6.668   5.018  0.1019  0.8689 -0.5807
10722TIP3   OH253580   0.854   0.744   0.185 -0.2004  0.2973  0.1732
10722TIP3    H153581   0.839   0.709   0.097 -0.2640  0.3991  0.1432
10722TIP3    H253582   0.778   0.799   0.202  0.7002  1.8028 -0.4735
10723TIP3   OH253583   6.101   2.687  16.974  0.2458 -0.2323  0.2685
10723TIP3    H153584   6.047   2.609  16.981 -0.0771  0.0230  0.7176
10723TIP3    H253585   6.067   2.746  17.042  1.1297 -0.0904  0.6084
10724TIP3   OH253586   4.530   2.423   4.611 -0.6007  0.1965 -0.4979
10724TIP3    H153587   4.596   2.483   4.647 -1.6135  1.1445 -0.1615
10724TIP3    H253588   4.478   2.397   4.687 -0.6793 -0.4613 -0.7732
10725TIP3   OH253589   0.899   0.547   5.515 -0.2574  0.4330 -0.0282
10725TIP3    H153590   0.976   0.492   5.531  0.4002  1.1722 -0.5941
10725TIP3    H253591   0.913   0.625   5.569 -0.2644  0.8813 -0.6641
10726TIP3   OH253592   4.532   4.136   6.506 -0.0906 -0.5609  0.3004
10726TIP3    H153593   4.628   4.136   6.501 -0.0672  0.0427  0.7312
10726TIP3    H253594   4.508   4.044   6.495  0.5480 -0.7374  0.3408
10727TIP3   OH253595   4.031   2.942  11.166 -0.3121 -0.1102 -0.5167
10727TIP3    H153596   4.086   2.938  11.244  0.0275  0.5255 -0.7146
10727TIP3    H253597   3.998   2.853  11.155 -0.1772 -0.2556  0.2169
10728TIP3   OH253598   5.382   5.102  15.761 -0.4660 -0.1693 -0.4155
10728TIP3    H153599   5.398   5.008  15.768  0.8178 -0.1651 -2.5927
10728TIP3    H253600   5.468   5.141  15.749 -0.8923  1.4205  1.1870
10729TIP3   OH253601   6.773   6.233  10.980  0.0729 -0.4666  0.0939
10729TIP3    H153602   6.755   6.141  10.999 -0.3299 -0.1657  1.2193
10729TIP3    H253603   6.801   6.271  11.063  1.1084  0.2392 -0.5485
10730TIP3   OH253604   3.339   0.881   3.720 -0.5349  0.0596  0.9235
10730TIP3    H153605   3.430   0.871   3.748 -0.5398  0.2230  0.9963
10730TIP3    H253606   3.329   0.974   3.701 -0.5133 -0.0567  0.3182
10731TIP3   OH253607   2.490   2.058   0.833  0.6345  0.0375 -0.1029
10731TIP3    H153608   2.488   1.962   0.826 -0.8431  0.0159  0.3888
10731TIP3    H253609   2.455   2.089   0.750 -0.8037  0.0924  0.4988
10732TIP3   OH253610   2.735   0.789   4.821  0.1004  0.8571  0.7728
10732TIP3    H153611   2.762   0.739   4.744  0.7499  1.8286  0.3530
10732TIP3    H253612   2.811   0.788   4.879 -0.6506 -0.5549  1.7958
10733TIP3   OH253613   4.620   0.956  15.801 -0.2578  0.3144 -0.0158
10733TIP3    H153614   4.557   0.959  15.873 -0.0313 -1.9030  0.3497
10733TIP3    H253615   4.687   0.895  15.830  0.6766  0.5971 -1.4796
10734TIP3   OH253616   0.682   5.214   4.999 -0.0218 -0.2636 -0.8999
10734TIP3    H153617   0.589   5.211   5.023  0.3968  1.4127  1.2178
10734TIP3    H253618   0.704   5.123   4.981 -1.8109 -0.8545 -0.3638
10735TIP3   OH253619   2.447   4.917  13.571 -0.6134  0.4085 -0.4820
10735TIP3    H153620   2.371   4.944  13.622 -0.1499  0.1981  0.3318
10735TIP3    H253621   2.412   4.858  13.505 -1.0057 -0.6372  0.6347
10736TIP3   OH253622   2.772   0.037  11.577 -0.2412  0.0353 -0.5689
10736TIP3    H153623   2.860   0.003  11.596 -0.0455  0.9994  0.3618
10736TIP3    H253624   2.789   0.122  11.537 -0.7510  0.5489  0.2847
10737TIP3   OH253625   2.447   3.889   5.633 -0.0893  0.4950 -0.6658
10737TIP3    H153626   2.439   3.842   5.550  0.0441 -1.7866  0.5327
10737TIP3    H253627   2.542   3.893   5.649 -0.0830  1.4855 -0.8967
10738TIP3   OH253628   1.205   3.485   5.426  0.5075 -0.1960 -0.4818
10738TIP3    H153629   1.147   3.412   5.444 -0.0544  0.7945  2.2138
10738TIP3    H253630   1.227   3.521   5.512  0.5972  2.9081 -1.6392
10739TIP3   OH253631   4.158   3.647  16.582 -0.2490  0.1729  0.8264
10739TIP3    H153632   4.152   3.740  16.559  0.2899 -0.1679 -0.7964
10739TIP3    H253633   4.200   3.646  16.668  0.2559  1.4083  0.6158
10740TIP3   OH253634   4.799   2.128  14.441  0.0196  0.0447  0.0928
10740TIP3    H153635   4.806   2.087  14.527 -2.6165  0.6105  0.6418
10740TIP3    H253636   4.777   2.220  14.459 -1.8163 -0.1041 -1.1475
10741TIP3   OH253637   1.975   5.894  14.665 -0.4720 -1.1680  0.5362
10741TIP3    H153638   2.059   5.852  14.684  0.0791 -0.3705 -0.1138
10741TIP3    H253639   1.948   5.931  14.749 -0.0080 -1.1316  0.6733
10742TIP3   OH253640   2.236   4.060   2.712  0.3626  0.2076  0.1711
10742TIP3    H153641   2.301   4.104   2.768  0.8012 -1.9829  1.5079
10742TIP3    H253642   2.287   3.998   2.660 -0.4809 -0.4562  0.1110
10743TIP3   OH253643   0.819   4.359  12.304 -0.6399 -1.0949 -0.0666
10743TIP3    H153644   0.869   4.281  12.325 -0.5803 -0.9836  0.2133
10743TIP3    H253645   0.886   4.427  12.289 -0.6086 -1.5137 -2.1114
10744TIP3   OH253646   3.531   0.629   2.490  0.2591 -0.3329 -0.0142
10744TIP3    H153647   3.530   0.715   2.448  2.9076 -0.7280 -1.0862
10744TIP3    H253648   3.556   0.568   2.421 -0.3961 -1.8123  0.9944
10745TIP3   OH253649   5.140   5.680   5.436 -0.0471  0.0518  0.0643
10745TIP3    H153650   5.053   5.673   5.397 -0.8110  1.6691  1.3576
10745TIP3    H253651   5.189   5.607   5.399 -2.1271 -1.2696 -0.2195
10746TIP3   OH253652   6.372   2.829   3.233  0.1346  0.2303 -0.2709
10746TIP3    H153653   6.411   2.746   3.205 -0.1304  1.0129 -3.2991
10746TIP3    H253654   6.435   2.896   3.207  0.8233  1.0603  3.0342
10747TIP3   OH253655   1.761   5.987  15.430 -0.8747  0.1160 -0.3435
10747TIP3    H153656   1.772   5.949  15.342 -1.9613 -0.6499 -0.1750
10747TIP3    H253657   1.701   5.927  15.474 -1.5848  1.3188  0.3993
10748TIP3   OH253658   0.317   0.944   0.846 -0.5367  0.6218 -0.3015
10748TIP3    H153659   0.267   0.960   0.766 -1.3727 -0.9809 -0.1429
10748TIP3    H253660   0.359   0.859   0.832 -0.5742  0.3882  0.8969
10749TIP3   OH253661   5.068   5.306  13.398  0.3453  0.2104 -0.2835
10749TIP3    H153662   5.014   5.229  13.381  0.1141 -0.4012  2.7398
10749TIP3    H253663   5.034   5.373  13.339 -0.1159 -1.6588 -2.2582
10750TIP3   OH253664   2.504   1.947  13.278 -0.3777  0.1618  0.4321
10750TIP3    H153665   2.508   2.039  13.303  0.1304  0.5684 -1.0431
10750TIP3    H253666   2.430   1.912  13.328 -0.6884  1.3990  0.8819
10751TIP3   OH253667   5.361   6.671   5.159 -0.3183  0.1268  0.4133
10751TIP3    H153668   5.404   6.591   5.188 -0.0820  1.2120  3.4026
10751TIP3    H253669   5.283   6.677   5.214 -1.3874  0.9875 -1.1237
10752TIP3   OH253670   6.239   4.416   5.454  0.6520  0.7357 -1.0042
10752TIP3    H153671   6.150   4.418   5.418 -0.3596 -0.0559  1.2864
10752TIP3    H253672   6.253   4.504   5.489  0.2988  0.5165 -0.3082
10753TIP3   OH253673   4.020   1.532   5.248 -0.1244  0.4484 -0.3258
10753TIP3    H153674   4.010   1.624   5.272 -0.2568  0.4517 -0.3969
10753TIP3    H253675   4.095   1.502   5.301 -2.0212 -0.2588  2.1745
10754TIP3   OH253676   4.324   1.009   5.889  0.1746  0.1637 -0.6385
10754TIP3    H153677   4.257   1.033   5.952  0.2839  0.7822 -0.7511
10754TIP3    H253678   4.302   0.920   5.863 -0.5312  0.3120 -0.5750
10755TIP3   OH253679   4.350   2.101   4.305  0.6886  0.0592 -0.7423
10755TIP3    H153680   4.310   2.064   4.383  0.2822 -2.0867 -1.8752
10755TIP3    H253681   4.434   2.136   4.334 -0.5836  1.7639  1.0926
10756TIP3   OH253682   6.490   6.528   4.485  0.3937  0.0252 -0.1500
10756TIP3    H153683   6.447   6.614   4.487 -0.5085 -0.4305  0.9027
10756TIP3    H253684   6.554   6.532   4.556  0.7880  0.0246 -0.4969
10757TIP3   OH253685   3.985   5.856   3.358 -0.2757  0.0031 -0.4592
10757TIP3    H153686   3.898   5.821   3.337 -1.2818  2.7618 -1.3794
10757TIP3    H253687   3.972   5.904   3.440  0.5582 -0.1257 -0.2485
10758TIP3   OH253688   3.391   1.918  13.752 -0.3910  0.1367  0.2457
10758TIP3    H153689   3.459   1.976  13.719 -1.0208  0.2419 -0.8980
10758TIP3    H253690   3.333   1.975  13.803 -1.0564  0.5403 -0.9475
10759TIP3   OH253691   3.394   4.471   4.425 -0.5882 -0.3487  0.3167
10759TIP3    H153692   3.335   4.539   4.457  0.0159 -1.0257  3.2084
10759TIP3    H253693   3.423   4.502   4.340 -0.2203  3.1338  1.5564
10760TIP3   OH253694   2.900   3.983   0.163  0.4611  0.4230  0.0631
10760TIP3    H153695   2.824   4.031   0.197 -0.2213 -0.7020  0.1688
10760TIP3    H253696   2.867   3.894   0.148  0.8852  0.6442 -2.8565
10761TIP3   OH253697   6.225   3.301  11.230  0.1682 -0.0724 -0.2197
10761TIP3    H153698   6.318   3.326  11.232  0.7734 -2.1110 -1.0322
10761TIP3    H253699   6.226   3.206  11.235 -1.8058 -0.2419 -2.0815
10762TIP3   OH253700   4.965   5.823  12.558 -0.2293 -0.1649  0.8744
10762TIP3    H153701   5.043   5.770  12.543  0.0690 -0.0132  1.8726
10762TIP3    H253702   4.910   5.806  12.481  0.7091 -0.3903  0.2319
10763TIP3   OH253703   5.662   2.286  12.789  0.0878  0.3598  0.1443
10763TIP3    H153704   5.614   2.367  12.773  0.5656  0.8855  1.2850
10763TIP3    H253705   5.742   2.314  12.832  1.1213 -0.5695 -1.1152
10764TIP3   OH253706   6.171   1.218   0.623  0.2783  0.5509 -0.0832
10764TIP3    H153707   6.228   1.286   0.587 -1.1906  1.8320 -0.0847
10764TIP3    H253708   6.222   1.138   0.615  1.4616  1.3931 -1.5194
10765TIP3   OH253709   2.939   0.828   1.533  0.7097 -0.4401  0.1242
10765TIP3    H153710   3.005   0.761   1.552  1.4433  0.6298  1.4909
10765TIP3    H253711   2.880   0.786   1.470  0.7504 -2.6165  1.4365
10766TIP3   OH253712   5.014   6.130   0.562 -0.3668  0.1821  0.5419
10766TIP3    H153713   4.989   6.044   0.596  0.7370 -0.3647  0.0408
10766TIP3    H253714   4.935   6.164   0.520 -1.5667  0.5495  2.9075
10767TIP3   OH253715   4.223   1.891  13.631 -0.3554  0.0829 -0.3013
10767TIP3    H153716   4.139   1.892  13.678 -0.6113  0.6420 -0.7446
10767TIP3    H253717   4.238   1.983  13.609  1.3710  0.2972  1.4815
10768TIP3   OH253718   5.218   6.668   3.192 -0.2695 -0.1249 -0.1930
10768TIP3    H153719   5.131   6.649   3.155 -0.1167  0.5544 -0.9222
10768TIP3    H253720   5.218   6.763   3.205  0.1260 -0.2041  0.4476
10769TIP3   OH253721   1.612   4.983   4.901  0.5188 -0.4919  0.0920
10769TIP3    H153722   1.583   5.010   4.989 -2.1239 -0.8517 -0.5788
10769TIP3    H253723   1.687   5.039   4.882  1.2869 -0.5292  2.6404
10770TIP3   OH253724   2.599   4.281   3.908  0.5056  0.5519  0.8189
10770TIP3    H153725   2.635   4.370   3.907  0.9596  0.3642 -0.1066
10770TIP3    H253726   2.659   4.230   3.854 -0.0386 -0.2141  0.9186
10771TIP3   OH253727   6.067   3.905   5.487  0.4534  0.1800  0.0326
10771TIP3    H153728   6.072   3.980   5.427 -0.2680  0.4274  0.2808
10771TIP3    H253729   6.158   3.875   5.495  0.8240  1.3730  0.3734
10772TIP3   OH253730   3.719   2.289   1.016 -0.1266 -0.4213  0.2224
10772TIP3    H153731   3.655   2.242   0.963 -1.4402 -0.0461  1.4087
10772TIP3    H253732   3.696   2.266   1.106  0.5634  0.7849  0.7300
10773TIP3   OH253733   1.537   6.277   4.305  0.0935 -0.3838  0.2586
10773TIP3    H153734   1.542   6.193   4.261  0.4654  0.8034 -2.1336
10773TIP3    H253735   1.575   6.261   4.392  1.9027 -2.2715 -0.7911
10774TIP3   OH253736   2.541   0.021  16.392  0.3768  0.1019  0.0662
10774TIP3    H153737   2.550  -0.069  16.423  0.3576  0.1632  0.2555
10774TIP3    H253738   2.508   0.069  16.469  1.8112  0.5666  0.4078
10775TIP3   OH253739   1.458   3.955   6.633 -0.2385  0.2017  0.1190
10775TIP3    H153740   1.440   4.040   6.594  1.6056 -0.0516 -1.4315
10775TIP3    H253741   1.494   3.902   6.562 -0.2321 -1.4993  1.3136
10776TIP3   OH253742   2.662   6.151   0.100  0.2530  0.3176  0.1687
10776TIP3    H153743   2.696   6.234   0.067  0.0997 -0.1933 -1.3395
10776TIP3    H253744   2.613   6.175   0.178 -0.1752  1.7108 -0.4961
10777TIP3   OH253745   2.497   4.617   2.903 -0.0378 -0.1395 -0.0693
10777TIP3    H153746   2.564   4.590   2.965  0.1800 -0.2957 -0.3738
10777TIP3    H253747   2.541   4.621   2.818 -0.9003 -2.5985 -0.7387
10778TIP3   OH253748   2.976   3.981  16.748 -0.5120  0.3760 -0.4700
10778TIP3    H153749   2.941   3.894  16.766 -0.9417  0.0442 -2.6949
10778TIP3    H253750   2.947   4.001  16.659  3.4926  0.7578 -1.8977
10779TIP3   OH253751   3.516   5.585   1.136 -0.1134  0.3448 -0.3730
10779TIP3    H153752   3.472   5.580   1.221 -0.7618  2.4149 -0.5236
10779TIP3    H253753   3.569   5.665   1.141  0.4751  0.0659 -1.6433
10780TIP3   OH253754   6.601   1.919   0.896 -0.2568 -0.2846  0.5411
10780TIP3    H153755   6.510   1.925   0.869  0.2219 -1.1092 -1.4623
10780TIP3    H253756   6.607   1.837   0.944 -0.0448 -1.8790 -2.0034
10781TIP3   OH253757   3.956   6.073   4.648 -0.2314 -0.1573 -0.5954
10781TIP3    H153758   4.029   6.056   4.708 -0.3802  0.1919 -0.3177
10781TIP3    H253759   3.878   6.052   4.699 -0.2925 -1.6925 -1.2665
10782TIP3   OH253760   1.575   0.559  16.985  0.8259 -0.8448  0.0872
10782TIP3    H153761   1.484   0.547  16.959  1.2578 -1.7156 -1.1443
10782TIP3    H253762   1.587   0.654  16.990  0.3753 -0.6512 -1.7915
10783TIP3   OH253763   2.586   3.130   1.041  0.2571 -0.4863  0.2558
10783TIP3    H153764   2.659   3.187   1.017  0.2929 -0.0786  1.2725
10783TIP3    H253765   2.623   3.042   1.039  0.2098 -0.5001 -1.2954
10784TIP3   OH253766   3.300   1.555  16.392  0.5419 -0.4499 -0.2421
10784TIP3    H153767   3.246   1.478  16.376  2.6874 -2.0339 -0.3454
10784TIP3    H253768   3.364   1.555  16.321  1.8883  0.2024  0.9163
10785TIP3   OH253769   5.046   2.034  10.524 -0.0404 -0.0835 -0.2783
10785TIP3    H153770   5.089   1.954  10.554 -2.1884 -1.2983 -0.1817
10785TIP3    H253771   4.992   2.006  10.450 -1.2340  1.1440  0.0697
10786TIP3   OH253772   0.911   2.901   3.823 -0.4306  0.2807  0.2437
10786TIP3    H153773   0.954   2.933   3.743  2.5109 -2.2331  0.6018
10786TIP3    H253774   0.834   2.854   3.792  0.6616 -0.6626 -1.1942
10787TIP3   OH253775   6.181   5.801   1.669 -0.2351  0.0471 -0.2662
10787TIP3    H153776   6.241   5.857   1.719 -0.6049  0.4892 -0.3164
10787TIP3    H253777   6.095   5.820   1.705 -0.3720 -0.4727 -0.3060
10788TIP3   OH253778   3.508   1.240  12.950 -0.5878  0.1160  0.3429
10788TIP3    H153779   3.586   1.218  12.899  0.0794  2.4002  0.2360
10788TIP3    H253780   3.444   1.173  12.928  0.8562 -0.9401 -0.7603
10789TIP3   OH253781   2.539   1.503   3.496  0.1835  0.6676  0.7740
10789TIP3    H153782   2.530   1.420   3.450 -0.1128  1.6629 -1.0418
10789TIP3    H253783   2.473   1.500   3.565  0.0727 -0.5247  0.6355
10790TIP3   OH253784   0.049   5.090  16.219  0.1270  0.3964  0.1640
10790TIP3    H153785   0.112   5.142  16.171  0.6930 -0.3821  0.0364
10790TIP3    H253786   0.022   5.021  16.158  0.1749 -0.0704  0.6529
10791TIP3   OH253787   4.275   6.052  13.992 -0.0348  0.4956 -0.1170
10791TIP3    H153788   4.238   6.007  13.916 -1.3405  1.1965  0.0978
10791TIP3    H253789   4.314   5.981  14.044 -3.5132 -0.7683  1.0757
10792TIP3   OH253790   4.124   6.736  12.317 -0.0549  0.1079 -0.1361
10792TIP3    H153791   4.080   6.751  12.234 -0.0060  1.8780  0.1300
10792TIP3    H253792   4.095   6.807  12.374 -0.8700 -1.6130  1.7230
10793TIP3   OH253793   3.025   3.974  12.670 -0.5962 -0.7782  0.5540
10793TIP3    H153794   3.073   4.038  12.617 -1.1734 -0.8714 -0.1021
10793TIP3    H253795   3.055   3.889  12.638 -3.0070 -0.9233 -1.7275
10794TIP3   OH253796   4.302   1.935  16.202  0.2817 -0.3946  0.3186
10794TIP3    H153797   4.210   1.961  16.208  0.3233 -0.3769  0.9240
10794TIP3    H253798   4.335   1.941  16.292  1.1321  0.5260 -0.0357
10795TIP3   OH253799   5.016   4.781   0.101  0.1254  0.3874 -0.4804
10795TIP3    H153800   5.031   4.687   0.094 -1.4590  0.0583  0.0914
10795TIP3    H253801   5.045   4.804   0.189 -0.8971  0.1275 -0.0692
10796TIP3   OH253802   4.278   1.698   5.121  0.2996 -0.0094 -0.5878
10796TIP3    H153803   4.263   1.780   5.074  1.3685  0.1152 -0.7274
10796TIP3    H253804   4.241   1.714   5.208 -0.3301  0.2908 -0.9045
10797TIP3   OH253805   1.113   0.067   0.371  0.4119  0.0966 -1.0345
10797TIP3    H153806   1.055   0.142   0.382 -1.1649 -1.2111  0.2276
10797TIP3    H253807   1.194   0.091   0.416 -0.9603  0.1651  1.5822
10798TIP3   OH253808   5.348   6.597   0.414 -0.2895  0.7590 -0.3682
10798TIP3    H153809   5.376   6.550   0.493 -2.1533  3.7672  2.3734
10798TIP3    H253810   5.427   6.640   0.383  0.7446 -1.4424 -1.0071
10799TIP3   OH253811   0.895   5.122  13.241  0.1870  0.1420 -0.2150
10799TIP3    H153812   0.857   5.180  13.175  0.4112  0.5619  0.0274
10799TIP3    H253813   0.945   5.179  13.298  1.4438 -0.4446 -0.7000
10800TIP3   OH253814   3.692   4.720  15.824  0.9292 -0.1074 -0.7253
10800TIP3    H153815   3.745   4.798  15.804  0.6977  0.1071 -0.5133
10800TIP3    H253816   3.677   4.726  15.919  0.0504  0.1358 -0.8741
10801TIP3   OH253817   2.013   3.781   4.454  0.2066 -0.1229  0.5239
10801TIP3    H153818   2.031   3.687   4.448  2.4727  0.2669  0.5921
10801TIP3    H253819   2.069   3.812   4.525 -1.4681  1.1029  1.3775
10802TIP3   OH253820   3.768   3.079  12.975  0.5921 -0.4566 -0.2943
10802TIP3    H153821   3.821   3.025  12.916  0.6166 -0.5971 -0.1450
10802TIP3    H253822   3.795   3.051  13.063  1.0165  0.1949 -0.2111
10803TIP3   OH253823   4.425   2.007   2.802 -0.0859 -0.5622 -0.2789
10803TIP3    H153824   4.432   2.101   2.789 -2.5126 -0.2681  0.1479
10803TIP3    H253825   4.473   1.991   2.884  0.9750  0.1440 -0.7335
10804TIP3   OH253826   3.717   3.509   1.986 -0.0370  0.1560 -0.3906
10804TIP3    H153827   3.652   3.527   1.918  0.9163  1.0410 -1.0946
10804TIP3    H253828   3.730   3.414   1.982 -0.5012  0.1110 -0.9618
10805TIP3   OH253829   2.680   4.945  15.071  0.3222 -0.0300 -0.6246
10805TIP3    H153830   2.736   4.870  15.089  1.1780  0.9423  1.0392
10805TIP3    H253831   2.725   4.992  15.001 -0.3805 -1.1895 -1.8960
10806TIP3   OH253832   1.806   4.900   3.332  0.1555 -0.4627  0.7236
10806TIP3    H153833   1.843   4.869   3.250 -0.2945  1.9964 -0.4885
10806TIP3    H253834   1.727   4.848   3.345 -0.3146 -0.1825 -0.9278
10807TIP3   OH253835   2.700   6.748   6.414  0.4209 -0.3712 -0.2100
10807TIP3    H153836   2.611   6.781   6.396  0.1261 -1.3055 -0.4935
10807TIP3    H253837   2.703   6.737   6.509  1.2472  2.4799  0.1904
10808TIP3   OH253838   5.400   2.355   4.979 -0.0851 -0.2060 -0.0769
10808TIP3    H153839   5.354   2.277   5.010  0.4807 -0.3218  0.5159
10808TIP3    H253840   5.353   2.382   4.901  0.9758 -2.4424 -1.6253
10809TIP3   OH253841   3.824   6.025   0.653  0.5160 -0.1216  0.0109
10809TIP3    H153842   3.917   6.046   0.652  0.3351  0.7334 -1.3606
10809TIP3    H253843   3.780   6.110   0.650 -0.3290 -0.4942  1.1979
10810TIP3   OH253844   6.033   6.686  13.527 -0.0861 -0.0789 -0.8772
10810TIP3    H153845   5.957   6.687  13.586  0.3537  1.6221 -0.2784
10810TIP3    H253846   5.995   6.693  13.440 -0.7056 -1.6676 -0.7565
10811TIP3   OH253847   2.124   0.461  15.616  0.4654  0.1146 -0.5537
10811TIP3    H153848   2.126   0.366  15.603  0.2561  0.2319 -1.4900
10811TIP3    H253849   2.179   0.476  15.693  0.5806 -0.7550 -0.4586
10812TIP3   OH253850   1.761   4.555  16.575  0.8404 -0.1194  0.3803
10812TIP3    H153851   1.838   4.516  16.533 -0.1247 -1.5091 -0.1717
10812TIP3    H253852   1.709   4.589  16.503  0.4059 -0.2055  0.6494
10813TIP3   OH253853   0.607   3.854   4.100  0.5320 -0.8899  0.1214
10813TIP3    H153854   0.582   3.763   4.081 -0.7107 -0.4922 -0.2659
10813TIP3    H253855   0.534   3.906   4.066  0.4904  0.1685  1.7480
10814TIP3   OH253856   3.598   3.426   0.614  0.3427  0.0807 -0.0317
10814TIP3    H153857   3.650   3.487   0.667 -1.4359  0.5482  1.3045
10814TIP3    H253858   3.618   3.340   0.651 -0.3184  0.3296  0.9626
10815TIP3   OH253859   1.306   1.155   5.321  0.0832  0.1660 -0.3424
10815TIP3    H153860   1.391   1.133   5.285  0.6168  0.7603  0.5169
10815TIP3    H253861   1.274   1.074   5.359  1.1121  0.3515  0.9798
10816TIP3   OH253862   1.860   4.928   5.475  0.5121  0.0501 -0.2033
10816TIP3    H153863   1.814   4.864   5.421  0.0198  0.0687  0.1863
10816TIP3    H253864   1.811   5.009   5.464 -1.1271 -0.5049  2.1662
10817TIP3   OH253865   4.443   0.094   0.532 -0.0633 -1.3002  0.1506
10817TIP3    H153866   4.501   0.020   0.550  2.1889  0.3757  0.1028
10817TIP3    H253867   4.377   0.091   0.602 -0.1747 -3.4333  0.0251
10818TIP3   OH253868   2.915   4.300   2.853  0.4395  0.0715  0.2017
10818TIP3    H153869   2.880   4.217   2.886  0.3412  0.3315  0.7654
10818TIP3    H253870   3.010   4.287   2.852  0.4198 -0.0790  0.1969
10819TIP3   OH253871   2.609   0.871   2.091  0.3890 -0.4526  0.4428
10819TIP3    H153872   2.631   0.916   2.172 -0.1914 -1.9414  1.4579
10819TIP3    H253873   2.692   0.831   2.063  1.4000  2.5813 -1.4695
10820TIP3   OH253874   2.005   4.496  12.389  0.0393 -0.0270 -0.6405
10820TIP3    H153875   1.999   4.499  12.293 -0.4870 -0.3674 -0.6217
10820TIP3    H253876   2.097   4.474  12.406 -0.3841 -2.4375 -1.1378
10821TIP3   OH253877   6.141   4.584   2.976  1.1213  1.0188 -0.8671
10821TIP3    H153878   6.093   4.663   3.000 -0.9863  0.1123 -1.8601
10821TIP3    H253879   6.076   4.514   2.982  2.7764 -0.5639 -0.6039
10822TIP3   OH253880   5.027   5.954  14.833  0.3428 -0.9156  0.6810
10822TIP3    H153881   5.086   6.027  14.855  0.0429 -0.3984 -0.1874
10822TIP3    H253882   4.940   5.988  14.851 -0.1691  0.4138 -3.2536
10823TIP3   OH253883   2.913   3.494  14.757  0.0115  0.0065 -0.3291
10823TIP3    H153884   3.000   3.532  14.742  0.1742 -1.1567 -3.1806
10823TIP3    H253885   2.853   3.552  14.709 -0.4225 -0.5063 -0.4164
10824TIP3   OH253886   0.005   0.211  15.047 -0.3431  0.2616  0.3382
10824TIP3    H153887   0.025   0.138  14.988  0.6160  1.9362 -1.5391
10824TIP3    H253888  -0.068   0.179  15.100 -1.3605 -1.3569 -1.8346
10825TIP3   OH253889   4.361   5.981  12.307 -0.4120  0.0591  0.4397
10825TIP3    H153890   4.393   6.032  12.381 -1.2613 -0.7176  1.3751
10825TIP3    H253891   4.411   5.899  12.311  0.6181  0.5981 -0.7774
10826TIP3   OH253892   0.096   0.783   4.708 -0.5029 -0.3625  0.2352
10826TIP3    H153893   0.025   0.841   4.736 -0.1028  1.1073 -1.6247
10826TIP3    H253894   0.136   0.828   4.634  0.8559 -2.2985 -0.2779
10827TIP3   OH253895   2.749   5.004   5.104 -0.2662 -0.0108  0.1499
10827TIP3    H153896   2.795   5.049   5.176 -1.3305  1.3461  0.0224
10827TIP3    H253897   2.818   4.986   5.040  0.6547 -0.9911  1.3622
10828TIP3   OH253898   4.462   2.487   4.353  0.5570 -0.4153 -0.2668
10828TIP3    H153899   4.531   2.453   4.296  0.4187  0.5846 -1.0826
10828TIP3    H253900   4.493   2.471   4.442  0.6960 -2.1800 -0.6138
10829TIP3   OH253901   4.150   0.547  12.051  0.1537 -0.0103 -0.0787
10829TIP3    H153902   4.145   0.557  11.956 -0.1097  1.6415  0.0766
10829TIP3    H253903   4.218   0.609  12.079  0.3852 -0.6298  0.7908
10830TIP3   OH253904   6.278   5.643  10.980 -0.3179 -0.2179 -0.6005
10830TIP3    H153905   6.189   5.644  10.946 -0.4333  0.0495 -0.2947
10830TIP3    H253906   6.333   5.653  10.902 -0.4769 -2.0508 -0.9729
10831TIP3   OH253907   3.112   5.663  16.611  0.5223 -0.1639 -0.1931
10831TIP3    H153908   3.047   5.674  16.542 -1.0682  0.2303  1.2805
10831TIP3    H253909   3.103   5.571  16.638 -0.0431  0.1017  0.5659
10832TIP3   OH253910   1.621   2.564   2.362  0.3255  0.1732  0.6325
10832TIP3    H153911   1.689   2.506   2.328 -0.4198 -0.7471  0.6679
10832TIP3    H253912   1.628   2.557   2.457 -0.4922 -0.7754  0.6451
10833TIP3   OH253913   4.549   1.998  14.239 -0.5288  0.2306 -0.0263
10833TIP3    H153914   4.626   2.052  14.222  1.1213 -0.6568  3.4756
10833TIP3    H253915   4.484   2.059  14.275  1.2181  0.2520  3.6417
10834TIP3   OH253916   5.533   5.418  10.586  0.1572  0.3079 -0.9252
10834TIP3    H153917   5.496   5.356  10.650  0.2191 -0.0541 -1.2376
10834TIP3    H253918   5.566   5.362  10.516  0.7713  0.6672 -0.9232
10835TIP3   OH253919   1.213   6.341   2.663  0.6626 -0.0679  0.1316
10835TIP3    H153920   1.158   6.263   2.670 -0.7008  0.9384  1.3250
10835TIP3    H253921   1.294   6.310   2.623 -0.3455 -1.8232 -0.6692
10836TIP3   OH253922   4.419   0.526  12.875  0.1320 -0.2643  0.3344
10836TIP3    H153923   4.450   0.440  12.848 -0.7733 -0.7045  0.6537
10836TIP3    H253924   4.456   0.540  12.962 -1.0904 -1.0825  1.0037
10837TIP3   OH253925   1.831   0.193   6.042  0.0382 -0.3028 -0.4171
10837TIP3    H153926   1.806   0.119   5.987 -1.8443 -0.0811  0.0722
10837TIP3    H253927   1.858   0.153   6.125 -0.1845 -0.4803 -0.4290
10838TIP3   OH253928   0.144   0.391  12.507  0.0007  0.8889 -0.3730
10838TIP3    H153929   0.139   0.350  12.593 -0.1767  0.3928 -0.6201
10838TIP3    H253930   0.204   0.465  12.519 -0.2870  1.0222  0.2550
10839TIP3   OH253931   2.250   6.465  14.247 -0.1384  0.2620  0.6261
10839TIP3    H153932   2.255   6.447  14.341 -0.7851 -3.5433  0.1084
10839TIP3    H253933   2.335   6.437  14.212 -0.1487  1.0128 -0.0373
10840TIP3   OH253934   0.856   4.260  16.093 -0.0301 -0.0396  0.2697
10840TIP3    H153935   0.786   4.302  16.144 -0.2586  0.1385 -0.1924
10840TIP3    H253936   0.851   4.301  16.007 -0.3215 -1.0789 -0.2235
10841TIP3   OH253937   6.081   4.884  11.921 -0.2688 -0.2619  0.2050
10841TIP3    H153938   6.120   4.930  11.995 -0.7651  0.0229  0.2907
10841TIP3    H253939   6.016   4.945  11.886 -0.5103 -0.6608 -0.0501
10842TIP3   OH253940   4.224   1.788   5.394  0.1344 -0.3579 -0.1723
10842TIP3    H153941   4.213   1.864   5.451 -0.6082 -0.7910  0.2694
10842TIP3    H253942   4.298   1.740   5.433  0.2828 -0.1226 -0.1638
10843TIP3   OH253943   4.013   3.945  11.851 -0.2542  0.3818 -0.1937
10843TIP3    H153944   3.922   3.949  11.822 -0.5197  1.0428  0.6789
10843TIP3    H253945   4.007   3.920  11.944  0.3567  1.8321  0.2689
10844TIP3   OH253946   5.606   5.494   1.662 -0.2062 -0.3728 -1.0784
10844TIP3    H153947   5.624   5.412   1.615  1.0570  0.1868 -1.6276
10844TIP3    H253948   5.542   5.539   1.606 -2.7357 -1.9272  0.3666
10845TIP3   OH253949   0.283   3.068   2.847 -0.0794  0.9158 -0.2930
10845TIP3    H153950   0.313   2.984   2.813 -1.6193  0.2734 -0.1566
10845TIP3    H253951   0.313   3.132   2.782  0.4558  0.1794 -0.7856
10846TIP3   OH253952   1.400   0.747   2.490 -0.2198  0.2407  0.1633
10846TIP3    H153953   1.392   0.785   2.578  1.6787  1.5036 -0.1622
10846TIP3    H253954   1.320   0.774   2.445 -1.1448 -0.2929  1.4228
10847TIP3   OH253955   5.059   1.554  14.462  0.2051  0.2558  0.5842
10847TIP3    H153956   4.997   1.504  14.408 -0.0898  1.2000  0.0135
10847TIP3    H253957   5.082   1.629  14.407  0.3185  0.9619  1.5837
10848TIP3   OH253958   5.789   3.701  11.209  0.3801 -0.1223 -0.1478
10848TIP3    H153959   5.838   3.671  11.285 -2.2999  2.4276  2.8714
10848TIP3    H253960   5.826   3.787  11.189  0.1347 -0.1660 -0.8317
10849TIP3   OH253961   1.990   1.532   2.663  0.3637  0.1809 -0.7128
10849TIP3    H153962   1.997   1.626   2.646 -0.6459  0.4642  0.2533
10849TIP3    H253963   1.901   1.510   2.636  0.7124 -0.5751 -1.2614
10850TIP3   OH253964   3.832   4.557   5.656 -0.1461  0.2518  0.2125
10850TIP3    H153965   3.737   4.554   5.644 -0.1552 -1.7432  0.3322
10850TIP3    H253966   3.844   4.586   5.746 -0.6420  0.5339  0.1897
10851TIP3   OH253967   2.791   0.516  15.492  0.2254 -0.0035 -0.6182
10851TIP3    H153968   2.825   0.586  15.547  0.1743  0.0148 -0.6102
10851TIP3    H253969   2.780   0.556  15.406  0.4383 -0.0675 -0.6777
10852TIP3   OH253970   2.228   5.505  16.189 -0.0524  0.4992  0.1999
10852TIP3    H153971   2.300   5.502  16.251  1.1147  1.3655 -1.0546
10852TIP3    H253972   2.270   5.517  16.104 -1.6716  1.2265 -0.5438
10853TIP3   OH253973   3.080   2.048  13.710  0.2874 -0.1302 -0.2043
10853TIP3    H153974   3.144   2.101  13.663 -0.9259  0.0554 -1.7490
10853TIP3    H253975   3.094   1.959  13.678  0.4964 -0.2750  0.2874
10854TIP3   OH253976   3.247   3.819   6.130 -0.1661 -0.1469 -0.1385
10854TIP3    H153977   3.279   3.909   6.140  1.5129 -0.9221  2.1053
10854TIP3    H253978   3.173   3.827   6.069 -0.4033  2.8174  0.3867
10855TIP3   OH253979   3.157   4.545   3.228  0.9021  0.4615 -0.2849
10855TIP3    H153980   3.140   4.475   3.165  0.4291  0.5630 -0.2749
10855TIP3    H253981   3.073   4.589   3.238  1.2439  1.1740 -0.4596
10856TIP3   OH253982   6.538   1.490   3.360 -0.0936 -0.3197 -0.5385
10856TIP3    H153983   6.574   1.403   3.374 -0.8133 -0.6026 -0.3788
10856TIP3    H253984   6.519   1.493   3.266  0.8994  0.0613 -0.7440
10857TIP3   OH253985   1.744   2.143   3.201 -0.0150  0.0697  0.2121
10857TIP3    H153986   1.697   2.077   3.150 -1.3400 -0.0715  1.5346
10857TIP3    H253987   1.695   2.148   3.283  1.4937  0.9620  1.0921
10858TIP3   OH253988   2.151   2.120   3.978  0.1335  0.6085  0.2009
10858TIP3    H153989   2.075   2.124   4.036  0.1737 -2.2058  0.5917
10858TIP3    H253990   2.124   2.060   3.908  2.1045 -0.7882  0.5706
10859TIP3   OH253991   2.372   0.323  14.746  0.2762 -0.0573 -0.6045
10859TIP3    H153992   2.357   0.287  14.659 -1.6767 -0.6264 -0.0695
10859TIP3    H253993   2.411   0.251  14.796 -0.4118 -0.3629 -0.4930
10860TIP3   OH253994   3.154   2.258  14.373 -0.2712  0.0936  0.0493
10860TIP3    H153995   3.082   2.309  14.409 -1.2727 -1.7702  0.8402
10860TIP3    H253996   3.112   2.192  14.318  0.9753  0.1428 -1.0117
10861TIP3   OH253997   5.927   2.221  11.494  0.4845 -0.0631  0.2750
10861TIP3    H153998   5.929   2.317  11.495  0.7993 -0.0713  0.5924
10861TIP3    H253999   5.987   2.195  11.563  1.8342 -0.4968 -1.0060
10862TIP3   OH254000   3.140   5.934   6.577 -0.0353  0.1688 -0.4274
10862TIP3    H154001   3.189   5.999   6.626  0.0868 -1.0807  1.1933
10862TIP3    H254002   3.063   5.915   6.632  0.7707 -2.2308 -0.0001
10863TIP3   OH254003   1.846   6.066   5.110  0.8932  0.6764 -0.3927
10863TIP3    H154004   1.813   5.999   5.050  1.0557 -0.9544  1.2505
10863TIP3    H254005   1.939   6.073   5.089  1.0503 -0.2302 -0.0752
10864TIP3   OH254006   4.898   3.081  11.033 -0.6206  0.1996 -0.6184
10864TIP3    H154007   4.873   3.052  10.945 -2.4722 -2.9410  0.7501
10864TIP3    H254008   4.991   3.103  11.025 -0.4690 -0.9585 -3.1438
10865TIP3   OH254009   3.152   1.344   3.567  0.1044 -0.2635  0.7959
10865TIP3    H154010   3.233   1.297   3.582 -0.2647 -1.6513 -1.2626
10865TIP3    H254011   3.083   1.286   3.601 -0.1039  0.9801  2.7039
10866TIP3   OH254012   5.076   2.602   1.497  0.6079  0.2572  0.2638
10866TIP3    H154013   5.143   2.599   1.566  0.5818 -0.6293  0.2567
10866TIP3    H254014   5.123   2.583   1.416  0.0445 -2.6288  0.5103
10867TIP3   OH254015   2.328   0.355   1.105 -0.3513 -0.4782 -0.0218
10867TIP3    H154016   2.325   0.332   1.198 -2.1586  1.1301  0.3869
10867TIP3    H254017   2.407   0.407   1.095 -0.7754  0.3597  0.9010
10868TIP3   OH254018   6.080   1.116  12.649 -0.6630 -0.2776  0.3250
10868TIP3    H154019   6.059   1.205  12.678  1.5814  0.6830 -0.7817
10868TIP3    H254020   5.999   1.084  12.609 -0.9605  2.0329 -1.0682
10869TIP3   OH254021   6.531   4.480  15.913  0.4850 -0.0744  0.2082
10869TIP3    H154022   6.546   4.505  15.822 -1.0966  1.2361  0.2567
10869TIP3    H254023   6.609   4.430  15.938  3.0436  3.2458 -0.4856
10870TIP3   OH254024   2.756   0.842   5.859  0.0510 -0.6214  0.0619
10870TIP3    H154025   2.707   0.914   5.897 -0.6344 -0.6237 -0.7852
10870TIP3    H254026   2.746   0.771   5.922 -1.4252 -0.7573 -0.2761
10871TIP3   OH254027   6.635   0.986  15.786  0.1753 -0.1646  0.7607
10871TIP3    H154028   6.647   1.075  15.755 -2.1256 -0.3795 -1.0232
10871TIP3    H254029   6.679   0.931  15.722  1.0130 -0.3667  1.4905
10872TIP3   OH254030   1.659   4.696   4.856 -0.0724 -0.1062 -0.5800
10872TIP3    H154031   1.642   4.681   4.763  2.3582 -0.1131 -1.1020
10872TIP3    H254032   1.635   4.788   4.870  0.3989  0.1767 -1.4828
10873TIP3   OH254033   0.216   0.688  15.933 -0.4463  0.6808 -0.3967
10873TIP3    H154034   0.121   0.678  15.946 -0.1495 -0.1233  1.6117
10873TIP3    H254035   0.240   0.760  15.992  0.4631 -0.5228  0.7713
10874TIP3   OH254036   0.046   4.121   3.016  0.4933  0.0978  0.2123
10874TIP3    H154037   0.118   4.135   3.076 -0.2986  2.6165  0.6911
10874TIP3    H254038  -0.033   4.141   3.067 -0.3875 -0.1511 -0.9869
10875TIP3   OH254039   2.124   6.610  16.453 -0.6235 -0.0985 -0.2130
10875TIP3    H154040   2.170   6.674  16.398  0.2890 -1.2445 -0.8235
10875TIP3    H254041   2.148   6.634  16.543  0.0120  0.1777 -0.4525
10876TIP3   OH254042   4.862   5.327  16.077 -0.5764 -0.1441  0.1121
10876TIP3    H154043   4.851   5.400  16.016 -0.2436  0.1486  0.3898
10876TIP3    H254044   4.916   5.364  16.148 -1.6345 -0.2371  0.9944
10877TIP3   OH254045   2.745   6.567  11.819  1.0599 -0.5138 -0.0894
10877TIP3    H154046   2.735   6.541  11.911  0.8182  1.4519  0.4852
10877TIP3    H254047   2.661   6.605  11.796  0.7396 -1.9626 -1.5167
10878TIP3   OH254048   4.548   1.781  16.332 -0.3167  0.4050  0.0650
10878TIP3    H154049   4.506   1.864  16.354 -0.2244  0.3646  0.4127
10878TIP3    H254050   4.631   1.806  16.292 -0.8269  0.4883 -0.9662
10879TIP3   OH254051   0.622   6.153  14.268 -0.3024 -0.2528 -0.1137
10879TIP3    H154052   0.691   6.216  14.286 -0.6797  0.0462  0.3469
10879TIP3    H254053   0.581   6.138  14.354 -2.0447  1.0490 -0.6468
10880TIP3   OH254054   1.068   5.465   1.776 -0.0658  0.2833  0.4235
10880TIP3    H154055   0.981   5.495   1.805  0.2939 -0.4610  2.4682
10880TIP3    H254056   1.088   5.392   1.835  1.9032  0.3711 -0.0862
10881TIP3   OH254057   0.278   2.270  15.900  0.0208  0.3861  0.1532
10881TIP3    H154058   0.297   2.356  15.863 -2.2741  1.1131  0.5162
10881TIP3    H254059   0.340   2.211  15.856 -0.8395  1.6012 -2.9909
10882TIP3   OH254060   3.626   4.281  11.689  0.3264  0.1942  0.3787
10882TIP3    H154061   3.677   4.337  11.747  0.4136 -0.4812  0.9692
10882TIP3    H254062   3.681   4.270  11.612  1.1081 -0.5645  1.0282
10883TIP3   OH254063   1.683   4.816  15.264 -0.7284 -0.3710  0.2924
10883TIP3    H154064   1.676   4.911  15.261 -0.0315 -0.3165 -2.6712
10883TIP3    H254065   1.777   4.799  15.274 -0.5860 -0.6690 -1.2496
10884TIP3   OH254066   1.458   4.372  13.544  0.1621 -0.1224  0.1360
10884TIP3    H154067   1.475   4.405  13.456 -1.3208 -0.8008 -0.4357
10884TIP3    H254068   1.477   4.278  13.539  0.1264 -0.1559  0.5540
10885TIP3   OH254069   1.483   3.132   1.246 -0.0697 -0.5724 -0.0263
10885TIP3    H154070   1.467   3.223   1.272  0.1453  0.6032 -3.4961
10885TIP3    H254071   1.396   3.095   1.232 -0.1467 -0.0117 -1.1488
10886TIP3   OH254072   6.155   1.943   1.716 -0.4368  0.2393 -0.4832
10886TIP3    H154073   6.178   1.864   1.764  0.1018  1.2395  0.9994
10886TIP3    H254074   6.061   1.954   1.731 -1.0200 -1.3226 -2.6284
10887TIP3   OH254075   3.055   2.481   1.518  0.2612 -0.7001  0.1918
10887TIP3    H154076   3.032   2.389   1.527 -0.6484 -0.6538 -1.3986
10887TIP3    H254077   2.976   2.528   1.547  0.0003 -0.4667 -0.8560
10888TIP3   OH254078   0.537   2.657   6.022 -0.1513 -0.0537 -0.9147
10888TIP3    H154079   0.559   2.564   6.027  0.9626  0.1555 -1.6689
10888TIP3    H254080   0.478   2.671   6.096 -0.5292 -1.4062 -0.9307
10889TIP3   OH254081   2.006   4.417  14.707 -0.3190 -0.0551 -0.5413
10889TIP3    H154082   2.003   4.328  14.743  0.5527 -0.8995 -2.4210
10889TIP3    H254083   1.926   4.425  14.656 -0.1771  0.0603 -0.7474
10890TIP3   OH254084   6.347   3.043   0.217 -0.0068 -0.6733  0.1032
10890TIP3    H154085   6.344   2.953   0.186  1.6279 -0.7334  0.0753
10890TIP3    H254086   6.433   3.053   0.257 -0.2564  0.8074  0.3527
10891TIP3   OH254087   2.041   2.684  12.765 -0.0245  0.0071 -0.7883
10891TIP3    H154088   2.087   2.609  12.802 -0.0180  0.2211 -0.3578
10891TIP3    H254089   1.980   2.646  12.702  1.2851 -0.2312 -1.9773
10892TIP3   OH254090   3.145   3.436   0.994 -0.0993  0.1935 -0.1459
10892TIP3    H154091   3.229   3.411   1.032 -0.0908 -0.4724 -0.6042
10892TIP3    H254092   3.153   3.530   0.979  0.0338  0.4149  1.1439
10893TIP3   OH254093   0.654   1.551  16.658  0.0891 -0.1078 -0.3779
10893TIP3    H154094   0.693   1.502  16.585  0.9145 -1.5904  0.9954
10893TIP3    H254095   0.560   1.545  16.643  0.2154 -1.2558 -0.8004
10894TIP3   OH254096   6.091   0.732  14.717 -0.3920  0.0478  0.4506
10894TIP3    H154097   6.046   0.800  14.667  0.9182  1.3949  1.0175
10894TIP3    H254098   6.184   0.752  14.705  0.0237 -1.4902  0.8779
10895TIP3   OH254099   6.334   1.496   0.795 -0.0948 -0.4019  0.1609
10895TIP3    H154100   6.387   1.552   0.738  0.2220  1.6870  2.3279
10895TIP3    H254101   6.386   1.416   0.804  1.1904  0.3507 -0.2569
10896TIP3   OH254102   5.201   5.805   3.467  0.0959  0.1537  0.5188
10896TIP3    H154103   5.239   5.877   3.417 -1.6723  0.3305 -0.6874
10896TIP3    H254104   5.269   5.738   3.468  0.9668  0.9987 -0.2526
10897TIP3   OH254105   1.820   3.964  12.476  0.1161  0.3116  0.7787
10897TIP3    H154106   1.850   3.874  12.489  0.8109  0.5711  1.0614
10897TIP3    H254107   1.869   3.994  12.399  0.7815  0.8177  1.3823
10898TIP3   OH254108   1.489   3.349   4.096  0.3538 -0.3225  0.3517
10898TIP3    H154109   1.429   3.327   4.167  0.1342 -1.7094 -0.2282
10898TIP3    H254110   1.569   3.377   4.140  0.3299 -1.4558  1.1775
10899TIP3   OH254111   3.964   6.266   1.666  0.4338 -0.3275 -0.2155
10899TIP3    H154112   4.033   6.291   1.727  1.6816 -0.5952 -1.4843
10899TIP3    H254113   3.973   6.325   1.592  0.6214 -1.6569 -1.2989
10900TIP3   OH254114   1.073   2.002  15.261 -0.1532  0.1900  0.4179
10900TIP3    H154115   0.979   1.988  15.251 -0.3720  0.3343  1.9434
10900TIP3    H254116   1.114   1.922  15.226 -0.7428  0.6617 -1.4436
10901TIP3   OH254117   5.538   6.253  16.085 -0.2922 -0.2258  0.2371
10901TIP3    H154118   5.612   6.197  16.109 -0.8742 -1.3482 -0.4751
10901TIP3    H254119   5.577   6.337  16.064  0.9392 -1.1200 -1.2825
10902TIP3   OH254120   5.776   4.028  17.092 -0.2250 -0.1733 -0.1163
10902TIP3    H154121   5.871   4.015  17.085 -0.3723 -0.6135 -1.6612
10902TIP3    H254122   5.745   3.951  17.138  0.1397 -0.1028  0.2613
10903TIP3   OH254123   4.210   5.197  12.327 -0.6667  0.1445  0.1942
10903TIP3    H154124   4.182   5.160  12.244 -1.1747 -0.8956  0.8112
10903TIP3    H254125   4.184   5.132  12.393 -1.6528  1.5981  1.3216
10904TIP3   OH254126   6.105   1.658  13.976 -0.0974 -0.0587 -0.3556
10904TIP3    H154127   6.123   1.730  13.916 -2.0916  0.1652 -0.7699
10904TIP3    H254128   6.153   1.680  14.056 -0.1265  1.3917 -0.7120
10905TIP3   OH254129   6.305   6.270   1.016 -0.4950 -0.4187  0.0846
10905TIP3    H154130   6.293   6.248   0.924  0.2515  0.2600 -0.1861
10905TIP3    H254131   6.320   6.365   1.016  0.6435 -0.5793  0.7869
10906TIP3   OH254132   4.160   3.982   4.448 -0.7883 -0.1194 -0.3415
10906TIP3    H154133   4.112   4.005   4.369 -1.0313  2.3013  0.4265
10906TIP3    H254134   4.252   3.989   4.424 -0.8462  1.8648 -0.1659
10907TIP3   OH254135   6.145   4.214  13.118 -0.3874 -0.4676  0.3799
10907TIP3    H154136   6.186   4.135  13.082  0.7093  0.6038 -0.8461
10907TIP3    H254137   6.059   4.218  13.076  0.5086  0.2552 -1.5622
10908TIP3   OH254138   5.193   2.168   2.904  0.3951  0.2916 -0.0492
10908TIP3    H154139   5.139   2.170   2.983  0.4985 -0.7121  0.0612
10908TIP3    H254140   5.130   2.180   2.833 -0.0641 -1.2676  0.0552
10909TIP3   OH254141   6.665   1.207   2.359  0.3681 -0.0161  0.5590
10909TIP3    H154142   6.630   1.292   2.385  1.3345  0.0491  1.7360
10909TIP3    H254143   6.591   1.161   2.320 -1.0003  0.1918  2.7450
10910TIP3   OH254144   4.957   4.214   1.528  0.0411  0.7308 -0.2133
10910TIP3    H154145   5.031   4.159   1.502  0.4992  1.4807 -0.5651
10910TIP3    H254146   4.998   4.292   1.567 -0.6027  0.3880  1.2173
10911TIP3   OH254147   1.950   1.541   0.410  0.1764  0.4750  0.1834
10911TIP3    H154148   1.945   1.557   0.504  0.1451  0.5243  0.1736
10911TIP3    H254149   1.966   1.628   0.372 -1.6194  0.7817 -0.0009
10912TIP3   OH254150   1.635   3.692   4.014  0.2740  0.6376 -0.4349
10912TIP3    H154151   1.624   3.665   4.105  0.4860  1.6315 -0.1051
10912TIP3    H254152   1.546   3.705   3.982  0.2153  0.7124 -0.2391
10913TIP3   OH254153   4.561   1.348   1.646  0.2016 -0.5009 -0.1581
10913TIP3    H154154   4.549   1.286   1.575  0.8601 -0.4859 -0.2861
10913TIP3    H254155   4.627   1.410   1.613  1.0331 -0.8994  0.7245
10914TIP3   OH254156   5.873   3.301   4.429 -0.2147  0.3363 -0.1740
10914TIP3    H154157   5.912   3.388   4.434 -0.9208  0.7229 -0.9536
10914TIP3    H254158   5.824   3.302   4.346 -1.6345 -0.2013  0.6188
10915TIP3   OH254159   4.470   4.629   5.474 -0.7032 -0.3379  0.5279
10915TIP3    H154160   4.520   4.556   5.511  0.8580  1.2499  1.7733
10915TIP3    H254161   4.379   4.608   5.492 -0.4112 -2.5270 -0.2417
10916TIP3   OH254162   4.872   4.492  14.020 -0.2606  0.9283  0.9155
10916TIP3    H154163   4.920   4.520  13.942  2.3959 -0.1526  2.0617
10916TIP3    H254164   4.780   4.490  13.992  0.7215 -1.2669 -2.7897
10917TIP3   OH254165   5.123   1.395  15.650  0.1410 -0.2055 -0.0252
10917TIP3    H154166   5.180   1.318  15.657  1.2441  0.5833 -0.2450
10917TIP3    H254167   5.057   1.369  15.585  0.4261 -1.0133 -0.0066
10918TIP3   OH254168   2.026   1.760   5.700  0.0924  0.1037  0.4971
10918TIP3    H154169   1.970   1.829   5.736 -1.1948 -0.2166 -0.8320
10918TIP3    H254170   2.107   1.806   5.676  0.0225  0.7654  1.4540
10919TIP3   OH254171   5.393   2.893  15.850  0.0931  0.0628  0.7340
10919TIP3    H154172   5.419   2.965  15.908  1.1796 -1.2516  1.9611
10919TIP3    H254173   5.382   2.818  15.909 -0.7889 -0.8444 -0.5352
10920TIP3   OH254174   4.940   4.404  13.189 -0.1972  0.2961 -0.3203
10920TIP3    H154175   4.896   4.445  13.264  0.6270  0.5369  0.0395
10920TIP3    H254176   4.936   4.470  13.120 -1.5244 -0.1614 -0.7210
10921TIP3   OH254177   0.639   4.549   3.907 -0.3123 -0.9408 -0.1959
10921TIP3    H154178   0.719   4.553   3.960 -0.7172 -2.1760  0.5298
10921TIP3    H254179   0.670   4.529   3.818  0.2202 -0.8653 -0.0292
10922TIP3   OH254180   1.766   0.361  14.418  0.2157  0.0108 -0.4246
10922TIP3    H154181   1.785   0.361  14.324 -0.3444 -0.5669 -0.5465
10922TIP3    H254182   1.710   0.285  14.431 -1.0174  0.9642  0.1146
10923TIP3   OH254183   4.458   0.852  16.398 -0.1262  0.4503 -0.3038
10923TIP3    H154184   4.538   0.812  16.366 -0.7512 -0.4033 -0.8412
10923TIP3    H254185   4.415   0.888  16.320 -0.5027  0.4657 -0.0943
10924TIP3   OH254186   6.338   4.916   2.681  0.8875 -0.1222  0.9325
10924TIP3    H154187   6.401   4.988   2.687  1.1419 -0.2317 -0.1188
10924TIP3    H254188   6.346   4.871   2.764  1.1492  0.7212  1.3831
10925TIP3   OH254189   3.427   2.047   0.416 -0.1491 -0.3287 -0.4541
10925TIP3    H154190   3.369   2.124   0.421 -0.7818 -0.8631  1.0185
10925TIP3    H254191   3.515   2.083   0.418 -0.4247  0.3533  1.5100
10926TIP3   OH254192   2.534   5.218  14.743 -0.1880  0.5554 -0.3369
10926TIP3    H154193   2.570   5.272  14.814  0.2723 -0.8682  0.5577
10926TIP3    H254194   2.595   5.231  14.670  0.6811  0.1962  0.3123
10927TIP3   OH254195   3.548   2.177  15.120 -0.2534 -0.3505  0.3098
10927TIP3    H154196   3.494   2.174  15.042  1.0061 -1.0900 -0.5717
10927TIP3    H254197   3.587   2.089  15.126  1.0985  0.2467  0.6994
10928TIP3   OH254198   1.846   0.257  16.299  0.3965  0.2820 -0.3328
10928TIP3    H154199   1.813   0.218  16.380 -2.7655  1.7599 -0.7582
10928TIP3    H254200   1.815   0.197  16.230  1.8233 -0.2050 -0.5792
10929TIP3   OH254201   3.122   2.206  11.741 -0.4291  0.6491 -0.9045
10929TIP3    H154202   3.135   2.127  11.688  1.1631 -0.2962  0.7546
10929TIP3    H254203   3.034   2.236  11.718 -1.6223 -2.3290 -0.7458
10930TIP3   OH254204   1.268   2.915  15.544 -0.2029 -0.2367 -0.1903
10930TIP3    H154205   1.250   2.880  15.632 -0.3082 -0.0143 -0.1201
10930TIP3    H254206   1.240   2.846  15.484 -0.1808 -0.3691 -0.0478
10931TIP3   OH254207   0.687   4.183   2.523  0.4181 -0.4525  0.0352
10931TIP3    H154208   0.755   4.117   2.516  0.8162 -0.0640  0.1821
10931TIP3    H254209   0.725   4.261   2.483 -0.1886 -0.4136 -0.4783
10932TIP3   OH254210   6.516   6.410  11.198  0.1218  0.1775  0.3439
10932TIP3    H154211   6.503   6.445  11.110  1.1914  1.9562  0.8451
10932TIP3    H254212   6.490   6.318  11.192 -2.5955  0.9510 -1.1088
10933TIP3   OH254213   0.802   6.221   3.821  0.1217  0.3043  0.3653
10933TIP3    H154214   0.898   6.216   3.819  0.3404  0.8540  3.8297
10933TIP3    H254215   0.780   6.292   3.761  1.8336 -0.0598 -0.7570
10934TIP3   OH254216   1.126   3.892   0.859 -0.2299  0.3006  0.0120
10934TIP3    H154217   1.105   3.869   0.949 -0.5500 -3.1561 -0.8074
10934TIP3    H254218   1.220   3.911   0.860  0.2269 -1.7654  0.7905
10935TIP3   OH254219   4.511   1.932   5.400  0.1143 -0.0644  0.3276
10935TIP3    H154220   4.549   1.995   5.339  0.4322  1.3686  1.9242
10935TIP3    H254221   4.435   1.897   5.355  1.7234 -0.9663 -1.8774
10936TIP3   OH254222   6.439   4.621   6.157  0.1845  0.0861 -0.3813
10936TIP3    H154223   6.447   4.619   6.252  1.2264  0.7006 -0.4296
10936TIP3    H254224   6.351   4.654   6.141  0.1733  0.4520  0.3814
10937TIP3   OH254225   2.815   6.530  14.389  0.0006  0.0568 -0.3874
10937TIP3    H154226   2.788   6.492  14.472 -0.2940 -0.3110 -0.6453
10937TIP3    H254227   2.749   6.597  14.371 -0.2059 -0.1877 -0.5515
10938TIP3   OH254228   2.095   4.506  12.987 -0.3172  0.0822 -0.3548
10938TIP3    H154229   2.029   4.517  13.054 -0.6398 -1.1872 -0.4509
10938TIP3    H254230   2.178   4.510  13.034 -0.5572 -1.4859  0.2426
10939TIP3   OH254231   4.066   3.023  14.947  0.8641 -0.0324 -0.4037
10939TIP3    H154232   4.127   3.081  14.994  0.7313 -1.2159  1.3451
10939TIP3    H254233   4.055   2.948  15.006 -1.9680 -0.0616 -0.8126
10940TIP3   OH254234   5.234   2.228  11.326  0.2696  0.1345  0.2537
10940TIP3    H154235   5.159   2.224  11.385 -0.4149 -1.9812 -0.6263
10940TIP3    H254236   5.278   2.143  11.337  0.6766  0.0718 -1.5115
10941TIP3   OH254237   1.214   1.663  13.474  0.4080  0.0283 -0.0112
10941TIP3    H154238   1.235   1.757  13.480 -0.0646  0.2524 -1.5338
10941TIP3    H254239   1.246   1.637  13.388 -0.5894 -0.9064 -0.1209
10942TIP3   OH254240   5.410   1.984   3.680  0.1412  0.3432 -0.0423
10942TIP3    H154241   5.499   1.956   3.698  0.7327  1.4223 -1.1389
10942TIP3    H254242   5.396   1.961   3.588 -0.7930 -0.0006  0.1717
10943TIP3   OH254243   0.475   0.416  10.552 -0.6785  0.2077  0.0329
10943TIP3    H154244   0.438   0.333  10.522  0.7685  0.7572 -3.8565
10943TIP3    H254245   0.560   0.392  10.589 -1.4439 -0.2396  1.5966
10944TIP3   OH254246   2.019   1.636  13.479  0.2075 -0.2827 -0.0659
10944TIP3    H154247   2.096   1.616  13.425  1.1574  3.1314 -0.2392
10944TIP3    H254248   1.948   1.644  13.416 -0.4275 -3.4987  0.0962
10945TIP3   OH254249   6.019   2.063  10.627  0.5290 -0.7721  0.0295
10945TIP3    H154250   6.035   2.157  10.636  1.2852 -0.9134  0.1845
10945TIP3    H254251   6.061   2.039  10.544  0.1668 -0.9421 -0.1090
10946TIP3   OH254252   0.761   0.573   3.458  0.2436 -0.2096 -0.4551
10946TIP3    H154253   0.673   0.611   3.458  1.2301  2.4074  1.5776
10946TIP3    H254254   0.776   0.546   3.367 -2.0791  0.6577 -1.1672
10947TIP3   OH254255   0.761   1.163  12.563 -0.2123 -0.2592  0.3863
10947TIP3    H154256   0.770   1.148  12.469  0.2381 -1.1778  0.5559
10947TIP3    H254257   0.681   1.117  12.587 -2.1128  2.6048 -0.0414
10948TIP3   OH254258   3.445   3.056  12.326  0.1770  0.1501 -0.2856
10948TIP3    H154259   3.470   3.030  12.237  1.0709  1.2782 -0.3908
10948TIP3    H254260   3.471   3.148  12.332 -0.3574  0.2376  0.9719
10949TIP3   OH254261   2.322   0.869  13.003 -0.2038 -0.0656 -0.2016
10949TIP3    H154262   2.236   0.872  13.044  0.6218  0.5354  1.6154
10949TIP3    H254263   2.312   0.916  12.921 -1.8231 -0.8831 -0.5192
10950TIP3   OH254264   3.418   3.217  12.664  0.0067  0.6733 -0.3168
10950TIP3    H154265   3.455   3.231  12.752  0.5007  0.1796 -0.4396
10950TIP3    H254266   3.347   3.280  12.658  0.8437  1.6762 -0.0815
10951TIP3   OH254267   2.101   2.288   0.745 -1.3822  0.1109  0.2889
10951TIP3    H154268   2.095   2.217   0.681  3.1705 -0.0046 -0.3546
10951TIP3    H254269   2.083   2.247   0.829  1.0085 -1.8843 -0.0776
10952TIP3   OH254270   2.862   1.660  11.665 -0.3894 -0.1124 -0.0907
10952TIP3    H154271   2.776   1.636  11.632  0.1371 -2.8526  0.2468
10952TIP3    H254272   2.849   1.743  11.710 -3.0669 -0.8993  0.7610
10953TIP3   OH254273   0.437   6.162  12.398  0.3340  0.4215  0.5638
10953TIP3    H154274   0.495   6.109  12.452 -2.0155 -0.0236  2.8818
10953TIP3    H254275   0.433   6.247  12.444 -1.4870  0.1269  1.0333
10954TIP3   OH254276   3.359   0.960  11.580  0.1396 -0.3090 -0.5050
10954TIP3    H154277   3.292   0.986  11.644  1.6118 -2.7803  2.2900
10954TIP3    H254278   3.429   1.024  11.593  0.7186 -1.1944  0.9647
10955TIP3   OH254279   0.498   2.385   1.536 -0.1434  0.1358  0.4111
10955TIP3    H154280   0.514   2.330   1.459 -1.0509 -1.5538  1.3619
10955TIP3    H254281   0.541   2.468   1.516 -1.5564  0.2714 -2.4888
10956TIP3   OH254282   0.099   5.076   1.697  0.0702 -0.4740 -0.2757
10956TIP3    H154283   0.180   5.041   1.734  0.3683 -1.4344 -1.7345
10956TIP3    H254284   0.091   5.164   1.734  2.3148  0.0476 -0.8677
10957TIP3   OH254285   2.398   0.876  15.802  0.4426  0.2354  0.2789
10957TIP3    H154286   2.365   0.964  15.785  0.1180  0.3784  1.5439
10957TIP3    H254287   2.320   0.821  15.799  0.0750  0.5065  2.8209
10958TIP3   OH254288   5.051   4.753  14.618 -0.4342 -0.3234 -0.1284
10958TIP3    H154289   5.113   4.825  14.605  0.6765 -0.9720  1.2664
10958TIP3    H254290   5.073   4.689  14.551  0.6284 -0.6778  0.5425
10959TIP3   OH254291   4.473   5.715   5.480 -0.2676  0.3637 -0.4520
10959TIP3    H154292   4.382   5.702   5.506  0.4109 -2.3098  1.0462
10959TIP3    H254293   4.516   5.633   5.504  2.2994  1.0462 -2.2885
10960TIP3   OH254294   1.073   6.330  15.895  0.1882  0.7545  0.1461
10960TIP3    H154295   1.096   6.340  15.987 -0.6574 -0.3462  0.5045
10960TIP3    H254296   1.041   6.417  15.868 -1.7101  0.5400  1.5430
10961TIP3   OH254297   0.849   1.958  12.347 -0.2370 -0.3715 -0.5028
10961TIP3    H154298   0.931   1.985  12.306 -0.8022  2.0105 -0.2195
10961TIP3    H254299   0.830   2.027  12.411 -2.2303 -1.1012 -0.2266
10962TIP3   OH254300   6.422   0.308   1.027 -0.2170  0.3262 -0.1713
10962TIP3    H154301   6.512   0.295   1.055 -0.1609  0.1784 -0.4181
10962TIP3    H254302   6.404   0.400   1.045 -0.8801 -0.2221  2.3899
10963TIP3   OH254303   1.742   2.875  13.783  0.3770 -0.3136  0.9399
10963TIP3    H154304   1.728   2.780  13.786 -1.8519 -0.0926 -0.2203
10963TIP3    H254305   1.724   2.904  13.872  0.4094 -0.9086  1.1474
10964TIP3   OH254306   1.618   0.234   6.681  0.1519  0.0481  0.0108
10964TIP3    H154307   1.675   0.192   6.617  0.1662 -1.0807  0.7390
10964TIP3    H254308   1.535   0.246   6.635 -0.0787 -1.4645  0.0001
10965TIP3   OH254309   3.974   2.000  14.156  0.0957  0.6664  0.3645
10965TIP3    H154310   4.023   2.057  14.096  0.3267  0.5519  0.4421
10965TIP3    H254311   3.883   2.010  14.130  0.2908 -0.2475 -0.7522
10966TIP3   OH254312   0.038   5.780  16.460  0.2770 -0.3920 -0.2335
10966TIP3    H154313   0.076   5.755  16.544 -3.3137 -1.4917  1.2174
10966TIP3    H254314   0.041   5.700  16.408  0.3268 -0.3627 -0.2761
10967TIP3   OH254315   6.131   2.680  13.266 -0.1778 -0.1164  0.0972
10967TIP3    H154316   6.047   2.669  13.312  0.3620 -2.2358  0.6701
10967TIP3    H254317   6.167   2.761  13.303 -1.6060  0.4231  0.4081
10968TIP3   OH254318   2.002   3.300   5.623  0.4433  0.4093 -0.0551
10968TIP3    H154319   2.077   3.241   5.636  1.6238  1.4085 -1.8692
10968TIP3    H254320   1.975   3.286   5.532 -1.3872  0.3283  0.4633
10969TIP3   OH254321   5.086   6.586   0.362 -0.0455  0.6919 -0.1299
10969TIP3    H154322   5.050   6.555   0.445  1.6728 -0.6252  0.1804
10969TIP3    H254323   5.177   6.608   0.382  0.2271  0.9507 -1.5424
10970TIP3   OH254324   5.447   5.161  16.167 -0.4947  0.6427 -0.3388
10970TIP3    H154325   5.440   5.126  16.078 -0.4580  0.3432 -0.2234
10970TIP3    H254326   5.533   5.203  16.169  0.0482 -0.4460 -0.0586
10971TIP3   OH254327   3.159   6.282  16.376 -0.3143  0.4837 -0.8305
10971TIP3    H154328   3.165   6.335  16.456 -0.0869  0.2072 -0.6604
10971TIP3    H254329   3.108   6.335  16.315 -0.0257  0.9263 -0.6865
10972TIP3   OH254330   3.201   2.888  11.715 -0.5026  0.2288 -0.2041
10972TIP3    H154331   3.244   2.813  11.756 -2.1820 -1.5989 -1.5905
10972TIP3    H254332   3.241   2.895  11.629 -1.5023 -0.1533 -0.7089
10973TIP3   OH254333   3.322   1.715   1.271  0.2468 -0.5014 -0.1418
10973TIP3    H154334   3.416   1.720   1.291  0.3246 -0.6028 -0.4839
10973TIP3    H254335   3.300   1.801   1.236  0.8668 -1.3731 -2.8832
10974TIP3   OH254336   2.632   1.277  12.944  0.0978  0.2983  0.5467
10974TIP3    H154337   2.588   1.192  12.956 -0.3291  0.4630  0.1687
10974TIP3    H254338   2.655   1.279  12.851  0.7591  0.2884  0.7083
10975TIP3   OH254339   5.090   0.371   3.043  0.1131 -0.5763 -0.4409
10975TIP3    H154340   5.077   0.461   3.073 -0.7720 -0.5461 -0.8873
10975TIP3    H254341   5.181   0.368   3.016  0.8631 -0.4950  1.8381
10976TIP3   OH254342   4.707   0.060   5.003 -0.3307  0.3244  0.6222
10976TIP3    H154343   4.737   0.126   5.066 -0.3046  1.6821 -0.7586
10976TIP3    H254344   4.612   0.072   4.998 -0.1874  1.1562 -0.5589
10977TIP3   OH254345   3.551   3.416  14.817  0.3650 -0.2273  0.1042
10977TIP3    H154346   3.462   3.433  14.785  0.5310  1.2921  0.3847
10977TIP3    H254347   3.548   3.325  14.847 -0.6440 -0.7060 -1.3406
10978TIP3   OH254348   1.392   1.992  15.401  0.4923 -0.0056 -0.5667
10978TIP3    H154349   1.318   2.025  15.452  0.8808 -0.2616  0.1858
10978TIP3    H254350   1.422   1.915  15.450  1.1263 -0.0197 -0.9702
10979TIP3   OH254351   6.651   4.577  15.679  0.0547 -0.0754  0.1716
10979TIP3    H154352   6.707   4.528  15.618  0.0296 -1.2010  1.0252
10979TIP3    H254353   6.710   4.610  15.746  0.1493  1.5526 -0.6617
10980TIP3   OH254354   1.650   2.585   6.076 -0.2540  0.2257 -0.1487
10980TIP3    H154355   1.640   2.576   6.171  0.3739  1.0381  0.0049
10980TIP3    H254356   1.738   2.553   6.058 -0.3792  0.0596 -0.4562
10981TIP3   OH254357   0.240   6.357   4.495 -0.5575 -0.1037  0.0823
10981TIP3    H154358   0.222   6.444   4.528 -0.8938 -0.7671  1.7454
10981TIP3    H254359   0.333   6.359   4.471 -0.7848  0.9487 -0.7466
10982TIP3   OH254360   4.355   4.286   1.899  0.4294  0.1913 -0.0716
10982TIP3    H154361   4.440   4.256   1.866  1.4462  2.0940  0.6320
10982TIP3    H254362   4.368   4.295   1.993  0.1804  2.5139 -0.1938
10983TIP3   OH254363   5.995   6.685  12.361  0.1534 -0.1490 -0.2574
10983TIP3    H154364   5.940   6.619  12.318 -0.7798  0.9380 -0.7917
10983TIP3    H254365   6.048   6.636  12.423  0.9433 -1.6861 -2.0449
10984TIP3   OH254366   0.312   6.334  11.402 -0.2669  0.0251  0.0711
10984TIP3    H154367   0.341   6.246  11.378  1.1110  0.5147 -0.1167
10984TIP3    H254368   0.244   6.354  11.338  1.8750  0.4605 -2.2349
10985TIP3   OH254369   3.551   4.371  16.956  0.2781 -0.1282 -0.3796
10985TIP3    H154370   3.528   4.282  16.929  0.8589 -1.3086  2.6192
10985TIP3    H254371   3.474   4.403  17.003 -0.0155  1.1126 -1.6293
10986TIP3   OH254372   5.904   3.125  13.970  0.4853  0.6103  0.3137
10986TIP3    H154373   5.976   3.188  13.964  0.3479  0.6700 -0.9713
10986TIP3    H254374   5.825   3.178  13.957  0.0999  0.7013  2.6495
10987TIP3   OH254375   2.642   1.628   4.704 -0.4559 -0.1165  0.2859
10987TIP3    H154376   2.579   1.569   4.662 -0.2822 -0.4502  0.4975
10987TIP3    H254377   2.696   1.572   4.759 -0.4268  0.2651  0.6547
10988TIP3   OH254378   3.997   3.417   0.176 -0.4759 -0.2290 -0.2417
10988TIP3    H154379   4.013   3.511   0.182 -3.7762  0.4161  0.2735
10988TIP3    H254380   4.034   3.381   0.256 -2.9219  1.3750  1.7730
10989TIP3   OH254381   5.005   4.780  12.654 -0.1458 -0.0536  0.3703
10989TIP3    H154382   5.069   4.725  12.700 -0.4117 -1.3081 -0.6972
10989TIP3    H254383   4.960   4.719  12.596 -0.9413  1.1955 -0.3446
10990TIP3   OH254384   3.553   4.110   2.677 -0.5310 -0.1065  0.0907
10990TIP3    H154385   3.540   4.029   2.726  0.2466 -1.7354 -2.2373
10990TIP3    H254386   3.474   4.118   2.623 -2.6270  3.0544  3.1775
10991TIP3   OH254387   4.136   5.850   5.421  0.3833  0.0798  0.0870
10991TIP3    H154388   4.043   5.867   5.403  0.0465 -0.6134  1.0814
10991TIP3    H254389   4.148   5.758   5.397  0.5116 -0.1732  1.0878
10992TIP3   OH254390   1.149   5.540   2.672  0.2109  0.3249  0.2460
10992TIP3    H154391   1.069   5.592   2.673 -0.2916 -0.4379  0.1636
10992TIP3    H254392   1.199   5.576   2.599  0.2895  1.2948  0.7525
10993TIP3   OH254393   1.733   5.698   1.593 -0.6700  0.4340 -0.3338
10993TIP3    H154394   1.734   5.602   1.596 -3.9338  0.2837  0.5951
10993TIP3    H254395   1.774   5.720   1.510 -0.4912 -1.8111 -0.9209
10994TIP3   OH254396   6.164   4.188   6.519  0.2013  0.0681  0.3187
10994TIP3    H154397   6.111   4.110   6.529  1.9232 -0.9809  2.1124
10994TIP3    H254398   6.134   4.246   6.589  1.0682 -0.3623  1.0757
10995TIP3   OH254399   3.023   4.765   6.550  0.3742  0.0880  0.5951
10995TIP3    H154400   2.931   4.780   6.571  0.2725  1.4040 -0.6139
10995TIP3    H254401   3.023   4.685   6.497  0.0639 -0.4303  1.3547
10996TIP3   OH254402   6.028   0.096  10.885 -0.3211  0.4758 -0.3327
10996TIP3    H154403   6.026   0.016  10.938  0.3970  1.4640  1.2806
10996TIP3    H254404   6.016   0.167  10.949  0.8248  1.7393 -1.4564
10997TIP3   OH254405   3.249   1.058   2.099  0.3563 -0.1015 -0.0101
10997TIP3    H154406   3.254   0.985   2.159 -0.4478  1.4361  2.0484
10997TIP3    H254407   3.165   1.046   2.054  0.0826 -0.2878  0.5446
10998TIP3   OH254408   2.553   1.610  12.475  0.8079  0.0233 -0.5092
10998TIP3    H154409   2.593   1.669  12.539  0.8476 -0.3827 -0.1566
10998TIP3    H254410   2.502   1.668  12.419 -0.2804  0.2724  0.6806
10999TIP3   OH254411   5.596   5.161   1.012 -0.2688  0.4358  0.8451
10999TIP3    H154412   5.562   5.186   1.098 -1.8498 -2.0016  1.0178
10999TIP3    H254413   5.628   5.071   1.023  2.4538  1.1355 -0.4079
11000TIP3   OH254414   3.802   5.918   0.110 -0.2407  0.1361  0.3442
11000TIP3    H154415   3.875   5.876   0.156 -0.0989  1.0795  1.0032
11000TIP3    H254416   3.816   6.012   0.123 -0.3384  0.4347 -1.4135
11001TIP3   OH254417   0.018   5.884   2.529 -0.0682 -0.0611  1.0244
11001TIP3    H154418  -0.044   5.877   2.456 -0.0545 -0.2608  1.0310
11001TIP3    H254419   0.043   5.794   2.548 -2.7011 -0.4187  3.5434
11002TIP3   OH254420   5.620   0.048  12.885  0.6298 -0.5933  0.2032
11002TIP3    H154421   5.632  -0.032  12.936  1.0928  0.5874  2.0257
11002TIP3    H254422   5.707   0.066  12.849  0.9122 -0.0528  1.1345
11003TIP3   OH254423   5.033   5.566  11.657  0.5116  0.2297 -0.0523
11003TIP3    H154424   5.068   5.477  11.662 -1.7394 -0.7700 -0.8132
11003TIP3    H254425   4.952   5.558  11.606 -0.6451  2.4387  1.2478
11004TIP3   OH254426   1.988   5.999   1.626  0.1048 -0.4030 -0.1496
11004TIP3    H154427   1.949   6.082   1.599  0.7834  0.4832  1.4509
11004TIP3    H254428   1.967   5.992   1.719 -2.1529 -3.3239 -0.7306
11005TIP3   OH254429   1.181   6.022   0.400 -0.1794  0.2097  0.1258
11005TIP3    H154430   1.107   5.970   0.431  0.5442 -0.8822  0.0833
11005TIP3    H254431   1.247   5.957   0.376 -0.4161  1.0142 -3.0597
11006TIP3   OH254432   2.436   0.055   6.413  0.0367 -0.0360  0.6259
11006TIP3    H154433   2.409   0.146   6.400  0.3688 -0.1152 -0.8340
11006TIP3    H254434   2.401   0.032   6.499  0.4650  1.6496  1.3011
11007TIP3   OH254435   3.140   4.654   5.547  0.5335 -0.3910  0.5614
11007TIP3    H154436   3.204   4.696   5.604  0.8632  0.3160 -0.3171
11007TIP3    H254437   3.188   4.635   5.466 -0.9723  2.6941 -1.2199
11008TIP3   OH254438   4.478   3.535  11.565 -0.5185  0.0724  0.0327
11008TIP3    H154439   4.399   3.481  11.569 -1.3379  1.1768 -0.6858
11008TIP3    H254440   4.503   3.547  11.657 -1.7853  0.5623  0.3268
11009TIP3   OH254441   1.631   4.279   4.809  0.3351 -0.4350 -0.6908
11009TIP3    H154442   1.621   4.328   4.727  1.2132 -0.6021 -0.9151
11009TIP3    H254443   1.680   4.338   4.866 -1.2211  0.1122  0.1228
11010TIP3   OH254444   1.359   2.975  12.501  0.0991  0.2343 -0.8836
11010TIP3    H154445   1.350   2.922  12.581  0.1608  2.0866  0.4375
11010TIP3    H254446   1.443   3.020  12.512 -0.3103  1.1921 -1.5433
11011TIP3   OH254447   4.463   4.962  13.175 -0.7308 -0.3394  0.3100
11011TIP3    H154448   4.529   5.030  13.168 -3.1299  1.9728 -1.5565
11011TIP3    H254449   4.385   5.006  13.209 -2.0222 -2.4353  0.2866
11012TIP3   OH254450   3.755   0.950   0.744 -0.0760 -0.1253 -0.3258
11012TIP3    H154451   3.662   0.963   0.724 -0.2648 -1.0851 -0.1279
11012TIP3    H254452   3.767   0.992   0.829 -0.1705  0.5764 -0.6541
11013TIP3   OH254453   0.179   4.262   0.068  0.1257 -0.2431  0.5523
11013TIP3    H154454   0.214   4.346   0.038 -1.4028  0.0987 -0.4257
11013TIP3    H254455   0.173   4.210  -0.012 -1.4970 -0.2936  0.6783
11014TIP3   OH254456   4.960   4.847  14.139 -0.1244  0.0755  0.1076
11014TIP3    H154457   4.997   4.911  14.199  1.3301  0.0785 -0.7454
11014TIP3    H254458   4.872   4.880  14.120  0.5838  1.8424 -0.2973
11015TIP3   OH254459   1.954   4.017   1.799 -0.1344 -0.3702 -0.2194
11015TIP3    H154460   1.982   4.033   1.889  0.7919 -2.3669 -0.1153
11015TIP3    H254461   1.865   3.981   1.807  0.4665 -1.8383  0.0087
11016TIP3   OH254462   0.758   4.486   4.841  0.0618 -0.0732 -0.5145
11016TIP3    H154463   0.688   4.459   4.901 -0.9029  1.6245 -0.8275
11016TIP3    H254464   0.758   4.419   4.773 -0.8274 -0.4453 -0.1634
11017TIP3   OH254465   1.588   5.011   2.686  0.5187  0.0292  0.7820
11017TIP3    H154466   1.571   4.926   2.726  1.0912  0.3622  1.7776
11017TIP3    H254467   1.544   5.074   2.743 -3.9722  0.2010 -2.3658
11018TIP3   OH254468   4.386   1.607   5.529  0.1699  0.3055 -0.3440
11018TIP3    H154469   4.468   1.560   5.543 -0.2823  0.1250  2.3692
11018TIP3    H254470   4.320   1.538   5.524 -0.3968  0.4705  2.8776
11019TIP3   OH254471   3.119   5.758   4.837 -0.4078 -0.0588 -0.7501
11019TIP3    H154472   3.122   5.815   4.914 -2.7386 -1.4172  0.4860
11019TIP3    H254473   3.038   5.783   4.793 -0.5875 -1.2353 -1.1230
11020TIP3   OH254474   6.697   1.182  12.950 -0.3549  0.7499  0.1860
11020TIP3    H154475   6.781   1.136  12.951 -0.0613  1.1952 -1.4905
11020TIP3    H254476   6.632   1.113  12.936  0.2364  0.8101 -4.5962
11021TIP3   OH254477   3.611   2.902  11.692 -0.1251  0.3586  0.6475
11021TIP3    H154478   3.670   2.978  11.691 -0.4863  0.6557  1.3550
11021TIP3    H254479   3.551   2.919  11.764 -0.1777 -0.6283  0.8533
11022TIP3   OH254480   4.655   5.361   1.108 -0.4065  0.5745 -0.0034
11022TIP3    H154481   4.597   5.304   1.157  1.8159 -2.2295 -0.3729
11022TIP3    H254482   4.728   5.379   1.167  1.3717 -1.2810 -1.4689
11023TIP3   OH254483   1.255   3.080   4.101  0.1446 -0.2011  0.5629
11023TIP3    H154484   1.288   3.148   4.160  1.2645 -0.4891  0.2927
11023TIP3    H254485   1.161   3.097   4.095  0.2922  0.8739  1.0713
11024TIP3   OH254486   5.493   2.300   0.690 -0.1691 -0.2643 -0.1388
11024TIP3    H154487   5.457   2.258   0.768 -1.1868 -0.7725 -0.8580
11024TIP3    H254488   5.424   2.291   0.624  0.6341  0.2375 -1.0716
11025TIP3   OH254489   2.751   4.756   5.367  0.6020  0.9140 -0.1650
11025TIP3    H154490   2.808   4.711   5.305 -1.2784 -1.6510 -0.2095
11025TIP3    H254491   2.691   4.807   5.312  0.5252  0.6689 -0.3062
11026TIP3   OH254492   1.938   5.317   2.886  0.2608  0.4917 -0.2260
11026TIP3    H154493   1.962   5.295   2.796  2.0604  1.4847 -0.0253
11026TIP3    H254494   1.941   5.234   2.933  1.6576  0.3102 -0.5986
11027TIP3   OH254495   4.659   2.735  14.150 -0.3816 -0.0505  0.2817
11027TIP3    H154496   4.713   2.768  14.079 -1.1992  2.1249  0.5833
11027TIP3    H254497   4.660   2.640  14.140 -1.4439  0.1871 -3.3739
11028TIP3   OH254498   1.941   1.499   5.697 -0.5275 -0.0050 -0.0216
11028TIP3    H154499   2.019   1.445   5.710 -0.6535 -0.7898 -2.1796
11028TIP3    H254500   1.975   1.584   5.671 -0.3781  0.5044  1.6855
11029TIP3   OH254501   0.147   0.101  12.440 -0.7144 -0.1883  0.2322
11029TIP3    H154502   0.198   0.088  12.520  0.3361 -2.0742 -0.6602
11029TIP3    H254503   0.164   0.192  12.415  1.9699 -0.6042  0.2052
11030TIP3   OH254504   3.335   6.084  13.781  0.7833 -0.0106  0.2478
11030TIP3    H154505   3.376   6.165  13.812  0.5208  0.7138 -1.2382
11030TIP3    H254506   3.349   6.022  13.853 -1.0726  1.9683  2.5067
11031TIP3   OH254507   5.901   0.747  14.928 -0.1591 -0.4636 -0.0575
11031TIP3    H154508   5.893   0.835  14.892  1.5399  0.8475  2.4444
11031TIP3    H254509   5.974   0.707  14.880  0.7981  0.5250  0.5315
11032TIP3   OH254510   0.107   6.631  14.179 -0.3737  0.2745 -0.2936
11032TIP3    H154511   0.145   6.562  14.234  0.8952  0.6785 -0.6227
11032TIP3    H254512   0.078   6.698  14.241 -1.9988 -0.6859  0.0587
11033TIP3   OH254513   5.980   1.761  12.058 -0.1428 -0.0207  0.4797
11033TIP3    H154514   5.932   1.704  12.118  0.7649 -1.0472  0.2599
11033TIP3    H254515   5.956   1.850  12.085 -3.1983 -0.4429 -0.4451
11034TIP3   OH254516   1.939   6.723   3.552 -0.2840 -0.2539 -0.1111
11034TIP3    H154517   1.851   6.720   3.515 -0.8119 -0.0314  1.0812
11034TIP3    H254518   1.926   6.730   3.647  0.9977  0.9430  0.0259
11035TIP3   OH254519   1.868   4.982  13.609 -0.0001  0.2639  0.5074
11035TIP3    H154520   1.795   4.920  13.608  0.2647 -0.0497 -0.8358
11035TIP3    H254521   1.883   5.003  13.517  1.1825  0.8234  0.8145
11036TIP3   OH254522   0.624   6.069   5.347  0.1442 -0.2305  0.3210
11036TIP3    H154523   0.636   5.974   5.344  0.3455 -0.1900 -0.7214
11036TIP3    H254524   0.711   6.104   5.333 -0.1796  0.0891 -1.0431
11037TIP3   OH254525   5.066   2.241   0.719 -0.4219 -0.3773  0.8585
11037TIP3    H154526   4.984   2.287   0.699  0.4474  0.9780  0.2476
11037TIP3    H254527   5.039   2.152   0.742 -1.8441 -1.0483 -2.7369
11038TIP3   OH254528   3.844   2.345  14.520 -0.5520  0.0993 -0.1993
11038TIP3    H154529   3.854   2.396  14.600  0.4586 -1.9291  1.0337
11038TIP3    H254530   3.758   2.371  14.486 -0.9003  1.1758  1.4072
11039TIP3   OH254531   0.486   2.205   5.534  0.1660 -0.3470 -0.7061
11039TIP3    H154532   0.543   2.141   5.493 -0.6207 -1.2023 -0.4955
11039TIP3    H254533   0.456   2.162   5.614  1.2371  1.0634  0.5280
11040TIP3   OH254534   3.447   5.936   1.510 -0.2153 -0.8307  0.1403
11040TIP3    H154535   3.352   5.926   1.505 -0.4456  0.3472  1.4494
11040TIP3    H254536   3.469   5.990   1.434 -0.6028 -0.9959 -0.0946
11041TIP3   OH254537   1.120   0.374   6.048  0.3891  0.2278 -0.0799
11041TIP3    H154538   1.213   0.390   6.065  0.3674  1.0163 -0.6891
11041TIP3    H254539   1.119   0.302   5.984  0.6541  1.4609 -1.5221
11042TIP3   OH254540   5.120   2.986  12.481 -0.1868 -0.5644 -0.4988
11042TIP3    H154541   5.081   2.900  12.463 -1.4466  0.2350 -1.7778
11042TIP3    H254542   5.189   2.994  12.415 -1.6170  0.3410 -1.9552
11043TIP3   OH254543   4.861   5.808   1.720 -0.0307  0.1330  0.2195
11043TIP3    H154544   4.824   5.742   1.661  1.2666 -0.5446  0.1395
11043TIP3    H254545   4.843   5.891   1.675 -0.8732 -0.2131 -0.1221
11044TIP3   OH254546   6.675   0.472  17.080 -0.4866  0.2685 -0.6284
11044TIP3    H154547   6.586   0.440  17.091 -0.4157  0.1129 -0.5038
11044TIP3    H254548   6.722   0.439  17.157 -0.7807  1.9878  0.3490
11045TIP3   OH254549   5.835   3.388  10.566 -0.2931  0.0032 -0.3637
11045TIP3    H154550   5.753   3.349  10.596 -0.1574 -0.9491 -1.1641
11045TIP3    H254551   5.852   3.346  10.482  0.8828  0.3885 -0.3375
11046TIP3   OH254552   3.284   1.111   2.505  0.1520 -0.4981 -0.1583
11046TIP3    H154553   3.373   1.134   2.531  0.0027  0.5678 -0.5569
11046TIP3    H254554   3.290   1.019   2.478  1.6403  0.1432 -2.3320
11047TIP3   OH254555   5.741   1.938   1.960 -0.6128 -0.4524 -0.1312
11047TIP3    H154556   5.790   1.965   1.882 -0.1727 -2.1891 -0.4932
11047TIP3    H254557   5.783   1.857   1.988 -0.9932 -0.0605  1.7281
11048TIP3   OH254558   0.917   5.429  11.436  0.0501  0.7290 -0.0338
11048TIP3    H154559   0.855   5.405  11.505 -0.5876 -1.1996 -1.1764
11048TIP3    H254560   0.912   5.356  11.374  2.0800  1.4427 -1.1188
11049TIP3   OH254561   3.176   5.253  17.046 -0.1463  0.2585 -0.4718
11049TIP3    H154562   3.211   5.194  17.113 -1.5009  1.7922  1.7324
11049TIP3    H254563   3.204   5.340  17.072 -2.6965  1.1756 -0.4565
11050TIP3   OH254564   6.460   2.549  12.561 -0.5225  0.5246  0.2274
11050TIP3    H154565   6.552   2.560  12.587 -0.3862 -0.0577 -0.0032
11050TIP3    H254566   6.413   2.614  12.614 -0.0926  0.2252  1.0007
11051TIP3   OH254567   1.916   2.737  16.568 -0.1459 -0.2238  0.6031
11051TIP3    H154568   1.916   2.649  16.606  0.1549 -0.9846 -1.0843
11051TIP3    H254569   1.947   2.725  16.479 -2.8925  1.1451 -0.6825
11052TIP3   OH254570   4.315   5.343  11.224 -0.5114  0.0775  0.1625
11052TIP3    H154571   4.320   5.434  11.193  0.3479  0.1899  0.5895
11052TIP3    H254572   4.335   5.349  11.317  1.7067 -0.7461 -0.1985
11053TIP3   OH254573   0.802   5.073  16.638  0.4835  0.2539 -0.0362
11053TIP3    H154574   0.724   5.111  16.598  0.5320 -0.6752 -1.0658
11053TIP3    H254575   0.873   5.134  16.616  0.2914  0.3822 -0.3086
11054TIP3   OH254576   2.534   5.585   5.402 -0.7112 -0.4911  0.4380
11054TIP3    H154577   2.477   5.581   5.478  0.9158 -1.7602  1.6750
11054TIP3    H254578   2.570   5.496   5.394  0.5812  0.0898 -0.6699
11055TIP3   OH254579   4.173   6.742  11.178  0.5310 -0.5532  0.5959
11055TIP3    H154580   4.258   6.701  11.198  0.1919 -1.3166  0.5353
11055TIP3    H254581   4.173   6.748  11.082  1.3411  1.3018  0.6825
11056TIP3   OH254582   5.832   4.088  12.265  0.0324  0.0448  0.2980
11056TIP3    H154583   5.822   3.996  12.241  1.7123 -0.6747  2.1143
11056TIP3    H254584   5.926   4.105  12.259 -0.2296  1.6618  0.0502
11057TIP3   OH254585   1.896   3.157  11.900 -0.1698 -0.5087  0.3397
11057TIP3    H154586   1.943   3.176  11.981 -1.4445  1.1496  0.7357
11057TIP3    H254587   1.814   3.117  11.929 -0.6807  0.1942 -0.1148
11058TIP3   OH254588   0.056   4.981  15.823 -0.1103  0.2044 -0.3045
11058TIP3    H154589   0.005   5.004  15.745  0.5492  1.5111 -0.3761
11058TIP3    H254590   0.144   5.016  15.806 -0.5781  2.9687  2.0878
11059TIP3   OH254591   2.605   3.683  13.506 -0.0595  0.4485 -0.4486
11059TIP3    H154592   2.533   3.722  13.456  0.0154  2.0291  0.6149
11059TIP3    H254593   2.569   3.669  13.593  0.5891  0.1821 -0.2181
11060TIP3   OH254594   2.711   1.882  12.754  0.4052 -0.4125  0.0683
11060TIP3    H154595   2.669   1.854  12.835  0.4879  0.7577  0.5368
11060TIP3    H254596   2.766   1.807  12.728 -0.4125 -1.1860  0.5221
11061TIP3   OH254597   4.951   1.722   3.576 -0.5387 -0.1119  0.3058
11061TIP3    H154598   4.894   1.781   3.625 -0.9529 -0.1422 -0.1316
11061TIP3    H254599   4.982   1.774   3.502 -0.1905 -0.1685  0.4125
11062TIP3   OH254600   2.217   4.894  12.207 -0.2824  0.4105 -0.1848
11062TIP3    H154601   2.174   4.940  12.135 -0.5960 -0.6055 -0.6591
11062TIP3    H254602   2.146   4.852  12.254 -0.1439  1.5579  1.1072
11063TIP3   OH254603   3.031   0.967  16.385 -0.1785 -0.1612 -0.1302
11063TIP3    H154604   3.084   1.009  16.453  0.0955 -3.0063  1.5768
11063TIP3    H254605   2.944   1.005  16.394  0.2292  0.5835  0.7969
11064TIP3   OH254606   6.132   5.040   1.581  0.2776  0.0935  0.6842
11064TIP3    H154607   6.220   5.003   1.579  0.0938 -0.5085  2.2471
11064TIP3    H254608   6.074   4.965   1.596 -0.5297  0.4637 -0.4095
11065TIP3   OH254609   4.416   4.182   4.188  0.8839  0.2629  0.0256
11065TIP3    H154610   4.464   4.252   4.145  0.9322  0.7858  0.9238
11065TIP3    H254611   4.328   4.218   4.200  1.1397  0.5122  1.2741
11066TIP3   OH254612   4.141   4.675  15.629  0.0674  0.0814  0.2054
11066TIP3    H154613   4.159   4.733  15.703  1.1154  0.9224 -0.6828
11066TIP3    H254614   4.158   4.587  15.662 -0.1668  0.3851  1.1609
11067TIP3   OH254615   6.025   2.504  11.782 -0.7687  0.1939 -0.3475
11067TIP3    H154616   6.013   2.409  11.769  2.0597 -0.4506  0.9881
11067TIP3    H254617   6.000   2.519  11.873  1.0154  0.2175  0.1730
11068TIP3   OH254618   2.591   5.711   5.791 -0.0378  0.5182  0.0511
11068TIP3    H154619   2.506   5.667   5.795 -0.0979 -0.0504 -3.8463
11068TIP3    H254620   2.647   5.660   5.850 -2.2137  0.7158  2.4720
11069TIP3   OH254621   3.948   1.632  15.857  0.1898 -0.5580 -0.1341
11069TIP3    H154622   3.863   1.614  15.897  0.6648  0.6443  1.5240
11069TIP3    H254623   3.927   1.672  15.773 -0.9301  0.7486  0.7316
11070TIP3   OH254624   4.111   2.977   5.856  0.2739 -0.3699 -0.5035
11070TIP3    H154625   4.167   2.920   5.909  0.2283 -1.5007 -1.6226
11070TIP3    H254626   4.166   3.001   5.781 -0.6135 -1.2274 -1.4526
11071TIP3   OH254627   2.786   5.723   4.502  0.2045  0.2897  0.1306
11071TIP3    H154628   2.844   5.772   4.444  0.0161  0.4629  0.0839
11071TIP3    H254629   2.743   5.659   4.445 -0.8792  1.2542 -0.1766
11072TIP3   OH254630   6.201   4.465   5.890 -0.5813  0.1282 -0.2082
11072TIP3    H154631   6.223   4.453   5.982  1.4372  1.2564 -0.4808
11072TIP3    H254632   6.140   4.538   5.889 -0.8040 -0.0461  0.2300
11073TIP3   OH254633   1.671   2.486  15.493 -0.5593  0.1831 -0.1804
11073TIP3    H154634   1.736   2.446  15.550 -0.1876  1.2827  0.1938
11073TIP3    H254635   1.714   2.494  15.408 -0.8403 -0.7385 -0.4138
11074TIP3   OH254636   2.188   0.768  12.650 -0.1486  0.0076 -0.4590
11074TIP3    H154637   2.117   0.747  12.710 -0.0643  1.3800  0.1677
11074TIP3    H254638   2.156   0.844  12.601  0.1067 -0.5961 -1.5918
11075TIP3   OH254639   1.920   5.951   2.447 -0.2411  0.1096  0.0511
11075TIP3    H154640   2.014   5.951   2.466 -0.2261 -0.2931  0.0016
11075TIP3    H254641   1.915   5.925   2.355 -0.4263 -0.6166  0.2556
11076TIP3   OH254642   3.967   1.288  14.507  0.7228 -0.9975  0.0951
11076TIP3    H154643   3.985   1.335  14.588  0.9709 -0.3399 -0.3367
11076TIP3    H254644   3.890   1.236  14.526  1.1358 -1.3165  0.9435
11077TIP3   OH254645   3.839   6.566   4.894 -0.9675 -0.4892 -0.1550
11077TIP3    H154646   3.743   6.576   4.892 -1.0173 -1.0809 -0.7963
11077TIP3    H254647   3.871   6.622   4.824 -0.9694 -1.6091 -1.0715
11078TIP3   OH254648   6.382   2.218   2.471  0.1247  0.4364 -0.1448
11078TIP3    H154649   6.340   2.301   2.495  1.6684  1.2735 -0.2220
11078TIP3    H254650   6.320   2.151   2.499 -2.1347  1.6358 -1.9823
11079TIP3   OH254651   0.540   6.407  13.388  0.3283  0.0237 -0.0153
11079TIP3    H154652   0.607   6.344  13.413  1.2723  1.0600  0.1243
11079TIP3    H254653   0.461   6.377  13.433  0.6014 -1.3934 -0.4505
11080TIP3   OH254654   5.705   4.982   3.612  0.0704  0.4344 -0.3431
11080TIP3    H154655   5.787   4.951   3.651  0.1364  0.7324 -0.2387
11080TIP3    H254656   5.658   4.903   3.588 -1.1359  0.0995  2.6737
11081TIP3   OH254657   2.321   0.127   4.762 -0.3617 -0.1235  0.1499
11081TIP3    H154658   2.248   0.167   4.809  0.0982  2.8610 -1.4433
11081TIP3    H254659   2.330   0.180   4.683 -0.3575 -4.1095 -2.8312
11082TIP3   OH254660   5.697   3.440  14.583 -0.8677  0.0132  0.9129
11082TIP3    H154661   5.695   3.505  14.653  1.2298  1.3527 -0.1399
11082TIP3    H254662   5.772   3.466  14.529 -1.7678 -1.5601 -1.2458
11083TIP3   OH254663   5.271   6.187   5.586 -0.8047  0.5630 -0.7396
11083TIP3    H154664   5.176   6.191   5.574 -0.6003  0.4451 -2.9962
11083TIP3    H254665   5.295   6.097   5.561 -0.3328 -0.3209  2.5078
11084TIP3   OH254666   0.079   3.584  15.645 -0.4943  0.7279  0.2390
11084TIP3    H154667   0.154   3.526  15.657  0.9556  2.5041  0.0274
11084TIP3    H254668   0.100   3.636  15.568 -2.6069  0.3252 -0.6812
11085TIP3   OH254669   1.305   3.297   4.292 -0.6613 -0.0287  0.1955
11085TIP3    H154670   1.216   3.316   4.321  0.2684  1.8445  2.0476
11085TIP3    H254671   1.353   3.277   4.372  0.8730  0.1976 -0.6290
11086TIP3   OH254672   6.142   0.912  13.828  0.3925  0.3954 -0.8686
11086TIP3    H154673   6.059   0.883  13.792  1.0508  0.0302 -2.1752
11086TIP3    H254674   6.167   0.844  13.891 -0.1570  0.3790 -0.6643
11087TIP3   OH254675   1.887   3.531  13.656  0.3367  0.2631  0.3000
11087TIP3    H154676   1.928   3.510  13.740 -1.4984 -0.0048  1.1741
11087TIP3    H254677   1.817   3.593  13.678  1.2199  1.9863 -1.3522
11088TIP3   OH254678   3.623   1.050  13.333  0.4447 -0.4132 -0.9850
11088TIP3    H154679   3.676   1.130  13.335  0.4512 -0.4269 -0.4762
11088TIP3    H254680   3.532   1.081  13.338  0.4780 -0.4717  0.6388
11089TIP3   OH254681   5.213   4.502   2.532  0.2230  0.3098  0.8164
11089TIP3    H154682   5.236   4.590   2.563  0.0319  0.7259 -0.1785
11089TIP3    H254683   5.180   4.516   2.443  1.0258 -0.8658  0.3048
11090TIP3   OH254684   6.046   0.719  14.327  0.1763  0.0275  0.3267
11090TIP3    H154685   5.986   0.646  14.347 -2.3314  1.6358 -0.8698
11090TIP3    H254686   6.009   0.760  14.249  2.3896  1.6845  0.0585
11091TIP3   OH254687   4.093   6.450  13.729  0.1098 -0.1617  0.1494
11091TIP3    H154688   4.095   6.545  13.726 -0.1220 -0.1780 -1.4995
11091TIP3    H254689   4.027   6.429  13.796  0.7335  0.8072  1.0952
11092TIP3   OH254690   1.292   1.211  17.236 -0.4782 -0.4037  0.8145
11092TIP3    H154691   1.239   1.178  17.308 -0.4324 -0.6986  0.7139
11092TIP3    H254692   1.315   1.300  17.263  1.0690 -1.1046  2.0393
11093TIP3   OH254693   3.077   4.507  12.868 -0.0440  0.3886 -0.0134
11093TIP3    H154694   3.103   4.437  12.928  0.2525  0.3978 -0.1276
11093TIP3    H254695   3.159   4.532  12.824 -0.2589  0.3679 -0.4335
11094TIP3   OH254696   5.443   1.693   2.730  0.7130  0.0187 -0.1397
11094TIP3    H154697   5.429   1.615   2.784  0.3019  1.0200  1.2476
11094TIP3    H254698   5.470   1.761   2.792 -1.3979  1.6571 -0.9012
11095TIP3   OH254699   2.105   6.079   0.327 -0.4921  0.1816  0.1029
11095TIP3    H154700   2.191   6.044   0.351  0.3246 -0.1224 -2.8519
11095TIP3    H254701   2.107   6.170   0.356  1.0012  0.2867 -0.2501
11096TIP3   OH254702   3.535   0.961  15.174 -0.0935 -0.1235 -0.0389
11096TIP3    H154703   3.586   1.042  15.170 -0.1603 -0.0237  0.8702
11096TIP3    H254704   3.599   0.893  15.193 -0.4232  0.2169  2.7239
11097TIP3   OH254705   2.905   0.950   6.519 -0.3301 -0.3149  0.4768
11097TIP3    H154706   2.940   0.922   6.604 -1.2917 -1.1984  0.5984
11097TIP3    H254707   2.982   0.964   6.465  0.2621 -0.8344  1.1641
11098TIP3   OH254708   3.012   6.659   4.360 -0.4052 -0.4125  0.6810
11098TIP3    H154709   2.988   6.571   4.389  1.1477 -0.4087  2.1022
11098TIP3    H254710   3.006   6.712   4.439 -1.1937  0.7676 -0.1406
11099TIP3   OH254711   0.435   5.416   1.047 -0.0915  0.1455  0.3490
11099TIP3    H154712   0.403   5.498   1.011 -0.4201  0.6632  1.7762
11099TIP3    H254713   0.357   5.370   1.078  0.1630 -0.3832  0.2329
11100TIP3   OH254714   0.345   0.704  10.709 -0.0717  0.5708 -0.1615
11100TIP3    H154715   0.356   0.744  10.795 -0.6735  3.2751 -1.2595
11100TIP3    H254716   0.257   0.666  10.711  0.3871 -0.5343  0.7800
11101TIP3   OH254717   0.138   6.461  15.922 -0.1531 -0.1193 -0.3520
11101TIP3    H154718   0.102   6.372  15.919 -1.0192  0.1651  0.8177
11101TIP3    H254719   0.128   6.488  16.013  0.6940  0.9511 -0.5529
11102TIP3   OH254720   0.119   0.605   6.127  0.0673 -0.2997 -0.8926
11102TIP3    H154721   0.039   0.600   6.179 -0.8113 -0.3865 -2.1866
11102TIP3    H254722   0.189   0.576   6.185 -0.6245  1.0568  0.6931
11103TIP3   OH254723   0.950   4.306  15.269 -0.0353 -0.4609 -0.1057
11103TIP3    H154724   0.933   4.274  15.180 -1.6023  1.4146 -0.5605
11103TIP3    H254725   0.890   4.255  15.324  1.3019 -1.9854 -0.0102
11104TIP3   OH254726   2.686   3.630  12.924 -0.1663 -0.7066  0.7792
11104TIP3    H154727   2.635   3.707  12.947  0.4720  0.0493 -0.2320
11104TIP3    H254728   2.777   3.659  12.928  0.0395 -0.5598 -2.2353
11105TIP3   OH254729   0.878   1.762  15.636 -0.0572  0.5318  0.1566
11105TIP3    H154730   0.957   1.755  15.582  1.3961  0.8412  2.1301
11105TIP3    H254731   0.829   1.836  15.599  1.5299  1.5628  0.0389
11106TIP3   OH254732   6.699   0.803   4.479  0.0983 -0.3206  0.2061
11106TIP3    H154733   6.615   0.761   4.458 -1.0027  1.8001  0.1385
11106TIP3    H254734   6.677   0.870   4.544  1.9400 -0.4515  1.0269
11107TIP3   OH254735   2.422   2.112  12.011  0.2865 -0.0140  0.0852
11107TIP3    H154736   2.474   2.192  12.019 -2.0258  1.4910  0.8115
11107TIP3    H254737   2.411   2.100  11.916 -0.3867  1.2660 -0.0197
11108TIP3   OH254738   6.364   5.613   5.444  0.4258  0.2755 -0.4323
11108TIP3    H154739   6.376   5.562   5.363  1.1599  2.2608 -1.6707
11108TIP3    H254740   6.448   5.658   5.455 -0.9073  3.1228 -0.8738
11109TIP3   OH254741   3.788   1.643  12.153 -0.6495 -0.0385 -0.3496
11109TIP3    H154742   3.859   1.699  12.122 -1.6131  0.8472 -1.0315
11109TIP3    H254743   3.800   1.640  12.248  1.4736 -1.5919 -0.5935
11110TIP3   OH254744   3.527   1.337   2.959 -0.5720 -0.0470  0.3784
11110TIP3    H154745   3.452   1.282   2.936  0.8099 -1.7950 -0.1384
11110TIP3    H254746   3.544   1.388   2.880 -0.1121 -0.9758 -0.1324
11111TIP3   OH254747   3.561   3.837  11.737  0.4318  0.1850 -0.3248
11111TIP3    H154748   3.656   3.842  11.721  0.4407  1.2133 -0.0520
11111TIP3    H254749   3.522   3.885  11.664  0.0705 -0.7373 -0.7548
11112TIP3   OH254750   3.925   5.101  16.555 -0.5375  0.4909 -0.0930
11112TIP3    H154751   3.924   5.100  16.651 -1.4163 -1.4591 -0.0811
11112TIP3    H254752   3.846   5.150  16.531 -0.4278  0.8000  0.1668
11113TIP3   OH254753   6.379   1.346  15.632 -0.5548 -0.5814  0.5199
11113TIP3    H154754   6.284   1.341  15.618 -0.4775  1.1866 -0.9640
11113TIP3    H254755   6.394   1.437  15.656  0.7245 -1.0064  1.4311
11114TIP3   OH254756   2.159   1.022   3.686 -0.4552  0.3398  0.0537
11114TIP3    H154757   2.129   1.007   3.596 -0.4709 -1.4664  0.3207
11114TIP3    H254758   2.091   0.983   3.741  0.0612  0.4818  0.8123
11115TIP3   OH254759   3.362   4.694  11.679 -0.2318 -0.2828  0.3138
11115TIP3    H154760   3.289   4.727  11.731 -0.7404 -1.2726  0.2600
11115TIP3    H254761   3.440   4.719  11.727 -0.5033  2.0339 -0.3201
11116TIP3   OH254762   1.889   1.027   3.077 -0.0001  0.6113 -0.2616
11116TIP3    H154763   1.868   1.104   3.025 -1.5305 -0.6386 -1.6165
11116TIP3    H254764   1.866   1.052   3.167  1.4155  2.3518 -0.3231
11117TIP3   OH254765   1.777   6.573   2.444  0.0960  0.1136 -0.4443
11117TIP3    H154766   1.866   6.603   2.461  0.3118 -1.0585  0.6506
11117TIP3    H254767   1.773   6.486   2.485 -1.8862  0.6124  0.5150
11118TIP3   OH254768   6.206   5.508   6.322 -0.1941 -0.1612 -0.3718
11118TIP3    H154769   6.255   5.430   6.296  0.9837  1.0321 -1.9450
11118TIP3    H254770   6.272   5.569   6.353 -1.3316 -0.6006  3.3456
11119TIP3   OH254771   4.587   3.497   5.257  0.1157  0.1201 -0.9526
11119TIP3    H154772   4.585   3.586   5.292 -0.2852 -0.5513  0.8389
11119TIP3    H254773   4.575   3.509   5.163  1.2276  2.0186 -0.9120
11120TIP3   OH254774   3.756   6.408  13.541 -0.0005 -0.0440 -0.1479
11120TIP3    H154775   3.678   6.437  13.494 -0.6511 -0.7319  0.4517
11120TIP3    H254776   3.746   6.445  13.629 -0.7678 -1.8311  0.5814
11121TIP3   OH254777   3.638   0.031   2.634  0.0560  0.1345  0.0656
11121TIP3    H154778   3.714  -0.020   2.662  1.5299  0.9048 -2.2308
11121TIP3    H254779   3.575   0.022   2.706  2.5395  0.0277  2.3793
11122TIP3   OH254780   1.466   3.061   5.730  0.1675  0.0731 -0.4176
11122TIP3    H154781   1.385   3.086   5.685 -0.1229  0.9525  0.5387
11122TIP3    H254782   1.460   2.967   5.741 -1.0705  0.2104  0.2479
11123TIP3   OH254783   6.159   3.181  14.573 -0.5907  0.2943  0.5090
11123TIP3    H154784   6.143   3.274  14.587 -0.0775  0.3460  0.7720
11123TIP3    H254785   6.247   3.177  14.536  0.0034 -0.1803  1.9064
11124TIP3   OH254786   4.265   6.519  15.385  0.2167 -0.5125 -0.1178
11124TIP3    H154787   4.180   6.493  15.422  1.0463 -0.5202  1.9531
11124TIP3    H254788   4.329   6.467  15.435  1.5957  1.5657  0.3904
11125TIP3   OH254789   2.767   3.556  12.026 -0.0882  0.4696 -0.9547
11125TIP3    H154790   2.709   3.560  12.101  1.2996  0.1781  0.1923
11125TIP3    H254791   2.835   3.621  12.044 -0.3200  1.1841 -2.5067
11126TIP3   OH254792   1.669   0.726  15.470 -0.4646  0.4564 -0.2991
11126TIP3    H154793   1.641   0.717  15.561 -1.8890  1.0025 -0.6569
11126TIP3    H254794   1.737   0.659  15.459  0.2704  0.8809  1.3553
11127TIP3   OH254795   2.101   0.976   6.843  0.3414 -0.1906  0.0340
11127TIP3    H154796   2.043   0.998   6.770 -0.0594  1.0479  0.6937
11127TIP3    H254797   2.043   0.935   6.907  0.6885 -1.2555 -0.3155
11128TIP3   OH254798   5.998   1.067  16.269  0.1989 -0.4750  0.4241
11128TIP3    H154799   5.914   1.111  16.283 -0.5485 -1.7788  0.1638
11128TIP3    H254800   5.981   0.976  16.291  1.5084 -0.7943  0.1808
11129TIP3   OH254801   3.198   4.842  16.352 -0.0141  0.1427 -0.0491
11129TIP3    H154802   3.279   4.801  16.323 -0.2665 -0.6919  0.3828
11129TIP3    H254803   3.132   4.774  16.342 -0.5181  0.5624  0.3389
11130TIP3   OH254804   2.334   2.483  15.660  0.0595  0.2968 -0.2326
11130TIP3    H154805   2.353   2.525  15.576  0.5640  1.1857  0.3188
11130TIP3    H254806   2.247   2.516  15.684 -0.5074 -0.7001 -0.8494
11131TIP3   OH254807   1.590   6.765  13.384 -0.1723  0.1932  0.1683
11131TIP3    H154808   1.515   6.794  13.434 -0.4662 -0.3538  0.0585
11131TIP3    H254809   1.557   6.753  13.295 -0.0836 -0.5180  0.2217
11132TIP3   OH254810   5.343   2.522  11.411  0.0351  0.6282  0.2050
11132TIP3    H154811   5.304   2.438  11.434  1.8375  0.0940  1.5624
11132TIP3    H254812   5.358   2.566  11.494  2.3502  0.7362 -0.1913
11133TIP3   OH254813   2.820   0.650   2.038  0.0916  0.5539 -0.3174
11133TIP3    H154814   2.867   0.621   2.116  1.1525  0.5808 -0.9185
11133TIP3    H254815   2.733   0.611   2.046  0.5461 -0.3622  0.3235
11134TIP3   OH254816   5.341   0.015  16.157  0.1564 -0.5003 -0.1286
11134TIP3    H154817   5.253   0.037  16.127  0.0581 -2.5187 -1.5771
11134TIP3    H254818   5.331  -0.068  16.203  1.2010 -0.3479  0.4113
11135TIP3   OH254819   0.780   1.537  13.932  0.3696 -0.1331  0.0056
11135TIP3    H154820   0.741   1.602  13.990 -0.2723  0.0027 -0.5661
11135TIP3    H254821   0.870   1.567  13.920  0.3296  0.1718  0.4437
11136TIP3   OH254822   6.055   3.439  14.628  0.0284  0.5239  0.5664
11136TIP3    H154823   5.988   3.424  14.561  0.4449 -0.5585  0.3788
11136TIP3    H254824   6.116   3.500  14.587 -0.1342  0.4761  0.2479
11137TIP3   OH254825   5.801   1.046   5.486 -0.0647  0.2351 -0.3522
11137TIP3    H154826   5.747   0.990   5.430 -0.3165  0.0404  0.0690
11137TIP3    H254827   5.891   1.022   5.465 -0.1056  1.0834 -1.5923
11138TIP3   OH254828   3.993   6.284  14.713  0.1199 -0.1149  0.1827
11138TIP3    H154829   3.981   6.379  14.713 -0.3054 -0.1635 -0.1650
11138TIP3    H254830   4.047   6.266  14.790 -1.0002  0.2680  1.0853
11139TIP3   OH254831   6.197   3.764  11.951  0.0985 -0.0991 -0.5090
11139TIP3    H154832   6.208   3.710  12.029  0.0577  0.3459 -0.1887
11139TIP3    H254833   6.159   3.846  11.983 -0.2014 -0.0215 -1.0363
11140TIP3   OH254834   2.528   6.089  16.410 -0.8543 -0.3578 -0.0516
11140TIP3    H154835   2.516   5.999  16.441  0.5920 -1.2547 -1.8716
11140TIP3    H254836   2.508   6.084  16.317 -2.2793  1.6052  0.0942
11141TIP3   OH254837   5.959   5.710  15.303  0.3598  0.3475  0.1296
11141TIP3    H154838   5.925   5.734  15.216 -1.1447  1.1840  0.9014
11141TIP3    H254839   5.901   5.640  15.332 -0.2677  1.2543  1.1473
11142TIP3   OH254840   2.744   2.412  11.342 -0.1313  0.5778  0.5121
11142TIP3    H154841   2.701   2.461  11.412  1.5859  0.8218  1.4408
11142TIP3    H254842   2.690   2.428  11.265 -0.1240  3.2358  0.9671
11143TIP3   OH254843   2.432   6.155  11.550 -0.3361  0.3139 -0.2943
11143TIP3    H154844   2.495   6.174  11.620 -0.0579  0.6892 -0.6336
11143TIP3    H254845   2.348   6.147  11.594  0.2415 -2.4568  0.4842
11144TIP3   OH254846   1.837   3.074   6.567  0.1954  0.2037  0.0048
11144TIP3    H154847   1.843   3.075   6.472  3.2600 -1.1146  0.0938
11144TIP3    H254848   1.765   3.134   6.587  0.8637  2.2183 -3.0429
11145TIP3   OH254849   3.601   1.685   0.202 -0.8649 -0.0075  0.3933
11145TIP3    H154850   3.673   1.747   0.208  0.5198 -1.4346 -0.7912
11145TIP3    H254851   3.523   1.737   0.223  0.3724  1.7905  0.7557
11146TIP3   OH254852   6.126   0.174   3.212 -0.2571  0.0855  0.2825
11146TIP3    H154853   6.078   0.094   3.191  1.7655 -2.1891  3.3760
11146TIP3    H254854   6.071   0.218   3.277  1.2161 -2.1408  3.2689
11147TIP3   OH254855   0.443   4.402  13.147 -0.0649  0.0056 -0.2039
11147TIP3    H154856   0.361   4.354  13.157  0.5584 -0.9127  0.7894
11147TIP3    H254857   0.511   4.335  13.153  0.8279  0.9622  1.1352
11148TIP3   OH254858   1.068   2.320  16.782  0.3815 -0.0788 -0.3269
11148TIP3    H154859   0.998   2.259  16.758 -0.7480 -0.1249  2.5975
11148TIP3    H254860   1.031   2.371  16.854  2.9817  0.6802  0.5804
11149TIP3   OH254861   6.640   2.289  16.156  0.4432 -0.1692  0.2938
11149TIP3    H154862   6.599   2.235  16.223 -0.7097 -1.1956 -1.1602
11149TIP3    H254863   6.711   2.235  16.122  1.1342  0.4163  0.7813
11150TIP3   OH254864   4.041   2.323   4.042  0.0396 -0.2617 -0.5563
11150TIP3    H154865   4.046   2.242   3.991 -1.1703 -1.2816  0.8450
11150TIP3    H254866   4.129   2.335   4.077  0.3838 -0.6352 -1.2948
11151TIP3   OH254867   0.911   6.418  11.695 -0.0411  0.1031 -0.5212
11151TIP3    H154868   0.951   6.486  11.641 -1.0734  0.4533 -0.8817
11151TIP3    H254869   0.840   6.383  11.640  0.9487 -1.8142 -0.6424
11152TIP3   OH254870   2.526   2.465  16.472 -0.1827  0.0742  0.3397
11152TIP3    H154871   2.549   2.524  16.545  2.4772 -0.7725  0.2874
11152TIP3    H254872   2.491   2.523  16.405  0.8673  1.4042  0.8932
11153TIP3   OH254873   1.889   0.288   2.800  0.4765 -0.0722  0.9564
11153TIP3    H154874   1.843   0.213   2.763  0.2551  0.0467  0.9834
11153TIP3    H254875   1.978   0.282   2.766  0.2787  0.0286  0.4112
11154TIP3   OH254876   0.279   2.847  16.812  0.1760 -0.8180  0.3848
11154TIP3    H154877   0.266   2.896  16.731  1.2081 -0.7758  0.2321
11154TIP3    H254878   0.193   2.812  16.833 -0.3363  0.1009 -0.1236
11155TIP3   OH254879   2.719   6.420  13.687  0.3940 -0.0319 -0.6888
11155TIP3    H154880   2.632   6.454  13.708  1.6455  1.2349  3.2393
11155TIP3    H254881   2.763   6.492  13.642  0.7853  1.0934  1.3960
11156TIP3   OH254882   6.231   1.205  14.285  0.3791  0.1336  0.1204
11156TIP3    H154883   6.303   1.253  14.244 -0.1842  2.3384  1.5648
11156TIP3    H254884   6.273   1.154  14.355  0.6826  0.4177  0.1436
11157TIP3   OH254885   6.297   0.414   0.282 -0.1449 -0.7939  0.1162
11157TIP3    H154886   6.245   0.367   0.217 -0.8090 -0.1793  0.1937
11157TIP3    H254887   6.233   0.455   0.340  0.4180  0.1127  0.1225
11158TIP3   OH254888   5.831   2.568  15.019  0.4713  0.5277 -0.0814
11158TIP3    H154889   5.840   2.493  15.078  0.7396 -0.9422 -1.8920
11158TIP3    H254890   5.911   2.567  14.966  0.8543  2.6144  0.3601
11159TIP3   OH254891   1.213   5.239  14.831 -0.0276  0.0507 -0.0429
11159TIP3    H154892   1.209   5.224  14.926 -1.2321  2.3486  0.3501
11159TIP3    H254893   1.130   5.204  14.798 -0.2694  0.5663  0.0024
11160TIP3   OH254894   1.784   3.509   6.174 -0.2099 -0.0384  0.1346
11160TIP3    H154895   1.830   3.554   6.245 -0.2587 -0.7353  0.6153
11160TIP3    H254896   1.738   3.437   6.217  0.2439 -0.8373 -0.6927
11161TIP3   OH254897   2.719   5.918   1.742  0.2591 -0.2540  0.0999
11161TIP3    H154898   2.764   5.990   1.787 -0.3425  0.0449  0.2361
11161TIP3    H254899   2.627   5.928   1.767  0.1229 -0.8936 -0.1215
11162TIP3   OH254900   2.691   1.189   1.984  0.0929  0.2932 -0.3395
11162TIP3    H154901   2.703   1.256   1.916 -1.0816  2.3542  1.3620
11162TIP3    H254902   2.643   1.119   1.939  0.4468  1.0293 -1.9484
11163TIP3   OH254903   0.554   5.146  12.787 -0.1536 -0.7580  0.4603
11163TIP3    H154904   0.580   5.191  12.706  1.4910  0.3983  1.5563
11163TIP3    H254905   0.614   5.072  12.794  0.3843 -0.2649  1.1231
11164TIP3   OH254906   1.717   2.004   2.409 -0.2351  0.3134  0.0233
11164TIP3    H154907   1.674   1.919   2.409 -1.4572  0.9153  0.4280
11164TIP3    H254908   1.809   1.984   2.425 -0.4935 -0.9317  0.0554
11165TIP3   OH254909   3.346   6.560   4.773  0.0211 -0.3401 -0.1128
11165TIP3    H154910   3.300   6.638   4.741 -1.0960 -0.8078  0.2912
11165TIP3    H254911   3.437   6.572   4.745 -0.3692  0.5583 -1.0470
11166TIP3   OH254912   3.723   1.094  17.213 -0.1121  0.2848 -0.0477
11166TIP3    H154913   3.762   1.182  17.215 -0.5707  0.5909 -2.0400
11166TIP3    H254914   3.712   1.071  17.305  3.1842  0.8739  0.6503
11167TIP3   OH254915   6.257   0.656  17.148 -0.3262  0.0233  0.3047
11167TIP3    H154916   6.300   0.739  17.126  3.6534 -1.4640  1.5670
11167TIP3    H254917   6.168   0.681  17.171  0.3061  3.7632 -0.6234
11168TIP3   OH254918   0.355   0.688   1.438  0.2251  0.6445 -0.0256
11168TIP3    H154919   0.374   0.610   1.490 -1.3821  0.5673  0.4977
11168TIP3    H254920   0.441   0.720   1.410  0.9112 -1.6667 -0.8170
11169TIP3   OH254921   1.299   3.045   2.405  0.3628 -0.0178  0.4031
11169TIP3    H154922   1.215   3.049   2.451  0.7391 -0.7720  1.2065
11169TIP3    H254923   1.276   3.026   2.314 -0.3936  1.2640  0.3095
11170TIP3   OH254924   3.808   2.027  11.693  0.3009 -0.0636  0.1858
11170TIP3    H154925   3.879   2.036  11.757  1.4989 -0.0428 -1.1064
11170TIP3    H254926   3.800   1.932  11.680  1.0135 -0.0136 -0.6558
11171TIP3   OH254927   2.800   0.227   2.074 -0.1340 -0.3114  0.3153
11171TIP3    H154928   2.842   0.291   2.016  1.7076 -1.2412  0.5472
11171TIP3    H254929   2.855   0.226   2.152 -0.7852 -1.3413  0.7783
11172TIP3   OH254930   2.632   2.638  14.238  0.1265 -0.0584  0.5011
11172TIP3    H154931   2.564   2.597  14.292 -1.3583 -0.5025 -1.5854
11172TIP3    H254932   2.686   2.565  14.209 -0.5474 -0.1670 -0.5405
11173TIP3   OH254933   1.028   4.008  15.291  0.1641 -0.3422  0.1106
11173TIP3    H154934   1.108   4.012  15.343  0.6984 -1.1764 -0.6080
11173TIP3    H254935   0.991   4.096  15.296  1.6004  0.2993 -0.2876
11174TIP3   OH254936   4.174   0.869   2.054  0.7464  0.5268 -0.2588
11174TIP3    H154937   4.195   0.914   2.136 -1.6468 -0.1064  0.7927
11174TIP3    H254938   4.240   0.900   1.992  1.6514  2.2771  1.4691
11175TIP3   OH254939   6.305   0.315  14.283 -0.2511 -0.0670  0.1268
11175TIP3    H154940   6.343   0.369  14.352  0.3091 -1.1508  0.6986
11175TIP3    H254941   6.327   0.225  14.308 -1.2004 -0.5711 -0.7587
11176TIP3   OH254942   5.168   4.447  17.041  0.4505  0.0680  0.4832
11176TIP3    H154943   5.096   4.488  16.992  0.2461 -0.8419 -0.0002
11176TIP3    H254944   5.213   4.392  16.977  1.2062  0.1487  0.9316
11177TIP3   OH254945   4.883   2.977   3.067 -0.2316 -0.3031 -0.2672
11177TIP3    H154946   4.817   2.921   3.026 -1.7728 -0.5861  2.3119
11177TIP3    H254947   4.846   3.065   3.062  0.5953 -0.0002 -1.3408
11178TIP3   OH254948   5.623   1.852   3.395 -0.5466  0.1285  0.3676
11178TIP3    H154949   5.676   1.901   3.333 -2.5917  3.0630  0.7260
11178TIP3    H254950   5.550   1.819   3.343 -0.9976  0.5161  0.7411
11179TIP3   OH254951   3.723   2.953   3.117 -0.3803 -0.2370  0.0814
11179TIP3    H154952   3.781   2.995   3.181  0.4048  0.6768 -1.1916
11179TIP3    H254953   3.658   3.021   3.096 -0.0405 -0.1783 -0.8168
11180TIP3   OH254954   0.869   2.758   2.747 -0.2941  0.8250 -1.1807
11180TIP3    H154955   0.938   2.705   2.788 -0.2600  0.6952 -1.4071
11180TIP3    H254956   0.890   2.848   2.775 -0.4726  0.7007 -0.6282
11181TIP3   OH254957   2.750   6.045   2.137  0.2292  0.0017 -0.0206
11181TIP3    H154958   2.795   6.109   2.081 -1.4701  0.7610 -0.5765
11181TIP3    H254959   2.661   6.079   2.146 -0.6096 -2.0529  0.0531
11182TIP3   OH254960   6.284   3.732   5.676  0.3011  0.0673 -0.3740
11182TIP3    H154961   6.296   3.819   5.713 -1.1322 -0.6219  1.9344
11182TIP3    H254962   6.372   3.702   5.655  0.8656  1.7883 -0.6240
11183TIP3   OH254963   1.102   3.758   2.478 -0.3571  0.3035 -0.0031
11183TIP3    H154964   1.187   3.726   2.508 -0.7514  0.2023  1.0502
11183TIP3    H254965   1.038   3.706   2.526 -1.0643 -0.7485 -1.9620
11184TIP3   OH254966   5.493   0.804   5.392  0.6508 -0.6877  0.8864
11184TIP3    H154967   5.405   0.773   5.373  0.1424 -0.5198  2.8027
11184TIP3    H254968   5.485   0.899   5.394  0.8404 -0.6789  1.2492
11185TIP3   OH254969   6.118   5.412  13.144 -0.5433  0.1015  0.2649
11185TIP3    H154970   6.210   5.427  13.169 -0.1975 -0.7265 -0.4418
11185TIP3    H254971   6.068   5.431  13.223  0.2791  0.1296  0.7890
11186TIP3   OH254972   4.455   1.994  15.009 -0.5374 -0.4280  0.0865
11186TIP3    H154973   4.495   1.919  15.054  0.8708  0.4631  0.3818
11186TIP3    H254974   4.444   1.965  14.919  1.9960 -0.3504 -0.3396
11187TIP3   OH254975   3.231   3.211   5.717 -0.2273  0.0190 -0.2315
11187TIP3    H154976   3.293   3.267   5.763  1.3240 -2.2639  0.6234
11187TIP3    H254977   3.160   3.196   5.780  0.3104 -0.4917  0.2671
11188TIP3   OH254978   3.469   3.156   1.446  0.2376 -0.1110 -0.3359
11188TIP3    H154979   3.478   3.119   1.358  1.4848  0.8604 -0.6423
11188TIP3    H254980   3.558   3.165   1.478 -0.0966  1.2597  0.2873
11189TIP3   OH254981   6.642   3.982  11.808 -0.1787  0.3872  0.6817
11189TIP3    H154982   6.719   4.033  11.835 -0.6562  1.9992 -0.7938
11189TIP3    H254983   6.569   4.023  11.853 -0.4573  0.4503  0.1806
11190TIP3   OH254984   1.055   2.605  11.567 -0.2616 -0.0497 -0.4143
11190TIP3    H154985   1.049   2.700  11.557 -1.2245 -0.0938 -0.3541
11190TIP3    H254986   0.967   2.573  11.549  0.1135 -0.9662 -0.7204
11191TIP3   OH254987   2.911   1.000   1.734 -0.7315 -0.2554  0.0364
11191TIP3    H154988   2.922   0.944   1.657 -5.1952 -0.0673 -1.0011
11191TIP3    H254989   2.931   1.088   1.702 -0.7372 -0.3954 -0.3617
11192TIP3   OH254990   4.912   2.634   4.110  0.0625  0.2046  0.4336
11192TIP3    H154991   4.886   2.715   4.065  2.5019 -0.1375 -1.8799
11192TIP3    H254992   4.904   2.566   4.042 -1.1568 -1.4218  2.1040
11193TIP3   OH254993   2.639   3.670   4.612  0.4743  0.0282  0.4213
11193TIP3    H154994   2.647   3.601   4.678  2.2511 -0.7537 -0.5469
11193TIP3    H254995   2.598   3.626   4.537  0.0714  0.4738  0.3756
11194TIP3   OH254996   1.722   0.096   4.010  0.1287  0.4041 -0.4246
11194TIP3    H154997   1.682   0.010   3.996  2.4777 -0.6325 -1.3416
11194TIP3    H254998   1.671   0.156   3.955 -2.9839  0.1623  1.9205
11195TIP3   OH254999   2.218   5.872  16.908 -0.5974  0.4551  0.0487
11195TIP3    H155000   2.289   5.897  16.849  1.5583 -1.5467  1.5865
11195TIP3    H255001   2.210   5.947  16.968  0.1964  0.7395 -0.1861
11196TIP3   OH255002   1.639   0.868   5.801  0.0514 -0.1394 -0.8483
11196TIP3    H155003   1.609   0.854   5.711 -1.1541  0.2659 -0.5330
11196TIP3    H255004   1.731   0.893   5.793  0.2062 -0.9960 -1.8985
11197TIP3   OH255005   3.518   0.258   3.837 -0.3675 -0.1576 -0.0941
11197TIP3    H155006   3.544   0.205   3.762  0.5547 -0.9401  0.7386
11197TIP3    H255007   3.424   0.272   3.826 -0.1863 -0.0004 -1.5368
11198TIP3   OH255008   2.425   5.553  11.889 -0.4016  0.2363  0.5144
11198TIP3    H155009   2.398   5.478  11.836  1.2738 -0.9848  1.2789
11198TIP3    H255010   2.506   5.584  11.848 -0.1512  0.5206  1.2049
11199TIP3   OH255011   0.512   4.054   2.374 -0.3598 -0.2171  0.3188
11199TIP3    H155012   0.589   4.074   2.428  0.5205 -1.0967 -0.5672
11199TIP3    H255013   0.463   3.990   2.426  0.3099 -0.8098  0.2471
11200TIP3   OH255014   6.571   2.590   5.281  0.0459  0.4089 -0.1593
11200TIP3    H155015   6.498   2.577   5.342  0.4688 -0.8623  0.1146
11200TIP3    H255016   6.532   2.577   5.195 -0.1831  0.3792 -0.0526
11201TIP3   OH255017   2.193   5.311   0.201 -0.3427 -0.3008 -0.4559
11201TIP3    H155018   2.148   5.255   0.137 -0.5072  0.6600 -1.1974
11201TIP3    H255019   2.185   5.264   0.284  0.1702 -1.7422 -1.1901
11202TIP3   OH255020   3.194   0.660   1.647 -0.2093  0.7642  0.0767
11202TIP3    H155021   3.262   0.685   1.584  1.0835 -1.2594  0.5720
11202TIP3    H255022   3.194   0.564   1.645 -3.9425  0.6335 -0.7806
11203TIP3   OH255023   0.102   2.178   2.447  0.0245 -0.3282  0.4263
11203TIP3    H155024   0.177   2.237   2.452  1.0063 -1.6192  1.8429
11203TIP3    H255025   0.053   2.193   2.528 -1.5014  0.7336 -0.6247
11204TIP3   OH255026   0.217   1.011  10.694 -0.8082 -0.2791  0.2823
11204TIP3    H155027   0.159   1.084  10.673 -0.8979 -0.2099  0.7800
11204TIP3    H255028   0.278   1.007  10.620 -1.2616 -0.1649 -0.1010
11205TIP3   OH255029   0.864   5.554  10.542 -0.0122  0.5469 -0.4887
11205TIP3    H155030   0.930   5.504  10.589 -0.7038  1.3487  1.4390
11205TIP3    H255031   0.905   5.639  10.525 -0.2228  0.7249 -0.1161
11206TIP3   OH255032   4.946   4.020   5.811  0.1179  0.0896 -0.1675
11206TIP3    H155033   4.995   4.067   5.744  0.2491 -0.5819 -0.5488
11206TIP3    H255034   4.879   4.082   5.840  0.4747  0.6092 -0.4558
11207TIP3   OH255035   2.386   5.142  17.215  0.1127  0.4568 -0.0258
11207TIP3    H155036   2.460   5.107  17.264 -0.4297  0.3237  0.7118
11207TIP3    H255037   2.310   5.094  17.248 -0.5355  1.7318  0.4121
11208TIP3   OH255038   1.937   2.978   4.685  0.7605 -0.4945  0.0695
11208TIP3    H155039   1.862   2.925   4.656  1.7173 -1.6369 -0.3901
11208TIP3    H255040   1.904   3.068   4.683  0.0374 -0.7350 -2.2702
11209TIP3   OH255041   5.817   1.041   4.812 -0.3861 -0.3218  0.0708
11209TIP3    H155042   5.853   0.952   4.804 -0.4735 -0.3745  0.2538
11209TIP3    H255043   5.844   1.085   4.731  0.5559 -0.1903  0.4378
11210TIP3   OH255044   2.689   1.149  10.402  0.6436  0.4150 -0.2274
11210TIP3    H155045   2.599   1.118  10.387  0.2274  1.3704  0.2149
11210TIP3    H255046   2.686   1.242  10.381  1.0493  0.8958  1.6529
11211TIP3   OH255047   4.208   4.122   1.132  0.3051  0.0466  0.0745
11211TIP3    H155048   4.266   4.046   1.131  0.4691  0.1714 -0.6630
11211TIP3    H255049   4.157   4.114   1.051  0.3608  0.7436 -0.0370
11212TIP3   OH255050   2.348   5.589   3.483 -0.2324  0.2069 -0.6929
11212TIP3    H155051   2.306   5.522   3.428  0.0875 -0.6242  0.0445
11212TIP3    H255052   2.421   5.543   3.524 -0.8319  0.6302  0.9165
11213TIP3   OH255053   5.157   1.982  12.824  0.0995 -0.2148 -1.0422
11213TIP3    H155054   5.245   1.952  12.847  0.0131  0.0140 -0.3691
11213TIP3    H255055   5.100   1.909  12.848 -0.1237  0.4731  0.7127
11214TIP3   OH255056   1.798   2.502  15.778  0.7766 -0.1531 -0.3518
11214TIP3    H155057   1.730   2.498  15.846  0.9273  0.3434 -0.1653
11214TIP3    H255058   1.793   2.592  15.745  0.7131 -0.3843 -0.9961
11215TIP3   OH255059   4.916   1.931   2.655  0.5591  1.0899  1.2424
11215TIP3    H155060   4.874   1.923   2.741 -0.7281  1.0869  0.6328
11215TIP3    H255061   4.974   1.856   2.650  0.6601  1.0918  2.1162
11216TIP3   OH255062   6.729   4.743   3.768 -0.4582  0.4998 -0.2256
11216TIP3    H155063   6.790   4.674   3.797 -0.4615  0.4075 -0.4327
11216TIP3    H255064   6.781   4.796   3.707 -0.2760  1.0364  0.3808
11217TIP3   OH255065   0.607   0.480   0.680 -0.2197 -0.2381  0.3140
11217TIP3    H155066   0.699   0.469   0.656 -0.2629  2.2165 -1.3546
11217TIP3    H255067   0.568   0.394   0.669  1.7969 -1.2662  0.7625
11218TIP3   OH255068   6.074   1.333   1.265 -0.4848  0.3105 -0.5579
11218TIP3    H155069   6.016   1.277   1.214  0.9665 -0.9549 -0.8843
11218TIP3    H255070   6.015   1.396   1.308 -2.1552 -1.3338 -0.3169
11219TIP3   OH255071   6.549   3.657   4.230 -0.4082 -0.0994  0.2052
11219TIP3    H155072   6.576   3.746   4.205  0.2041 -0.4027 -0.2481
11219TIP3    H255073   6.540   3.661   4.326  0.1796  0.3107  0.2516
11220TIP3   OH255074   4.775   6.409   6.255 -0.4904 -0.6791  0.2255
11220TIP3    H155075   4.712   6.476   6.279 -0.7718 -0.8515 -0.0156
11220TIP3    H255076   4.842   6.413   6.323 -1.1186 -0.9600  0.8815
11221TIP3   OH255077   5.778   4.134   0.697  0.1319  0.5977  0.0832
11221TIP3    H155078   5.813   4.050   0.665  0.3598  0.4306  0.7661
11221TIP3    H255079   5.721   4.164   0.626 -0.7113 -0.6067  0.2166
11222TIP3   OH255080   0.788   4.998  11.322 -0.3718 -1.1751  0.5555
11222TIP3    H155081   0.833   4.981  11.239  0.4021 -0.3431  0.7839
11222TIP3    H255082   0.733   4.922  11.335  0.4498 -1.9114 -0.0997
11223TIP3   OH255083   3.822   1.355  16.641 -0.0197  0.0425  0.1396
11223TIP3    H155084   3.823   1.351  16.736  1.7928 -1.3883  0.1265
11223TIP3    H255085   3.729   1.350  16.617 -0.4258 -1.2702  1.8105
11224TIP3   OH255086   4.878   5.922  15.300  0.3517  0.2971  0.3762
11224TIP3    H155087   4.883   5.862  15.374  1.5410  0.1070  0.1618
11224TIP3    H255088   4.793   5.903  15.259 -0.5298  0.7187  1.9251
11225TIP3   OH255089   5.387   0.238  16.308  0.1990  0.2809 -0.0282
11225TIP3    H155090   5.314   0.218  16.367  1.6351 -1.7476  1.1863
11225TIP3    H255091   5.398   0.158  16.257  1.3990  0.6472 -0.3548
11226TIP3   OH255092   4.389   0.516  12.377  0.1563 -0.0978 -0.0883
11226TIP3    H155093   4.416   0.600  12.342 -0.9111 -0.2000 -1.2010
11226TIP3    H255094   4.450   0.453  12.339 -0.7638 -0.1603 -1.5370
11227TIP3   OH255095   1.295   2.138   2.917 -0.0579 -0.0150 -0.5138
11227TIP3    H155096   1.264   2.057   2.956  0.4288  0.2933  0.5646
11227TIP3    H255097   1.366   2.167   2.975 -1.7171  2.3820  0.4847
11228TIP3   OH255098   0.369   2.504  13.232 -0.3145 -0.3417  0.0953
11228TIP3    H155099   0.313   2.559  13.286  0.0333 -1.1197  1.2768
11228TIP3    H255100   0.325   2.502  13.147 -1.5245 -0.1109  0.6928
11229TIP3   OH255101   5.341   1.077  11.494  0.1432 -0.4979 -0.4682
11229TIP3    H155102   5.257   1.064  11.449 -0.6428  0.5645  0.6411
11229TIP3    H255103   5.348   1.171  11.505  0.7029 -0.6747  0.8975
11230TIP3   OH255104   3.521   6.387  13.232  0.0603  0.1468  0.3695
11230TIP3    H155105   3.469   6.459  13.198 -0.3390  0.3662  1.4034
11230TIP3    H255106   3.487   6.310  13.186  0.5090  0.6049 -0.7599
11231TIP3   OH255107   0.627   0.229   5.598  0.6119  0.6029 -0.2468
11231TIP3    H155108   0.667   0.225   5.685 -0.6426  1.8148  0.4167
11231TIP3    H255109   0.533   0.231   5.615  0.1078 -3.1087 -1.7997
11232TIP3   OH255110   4.316   3.969   1.830  0.5274 -0.5224 -0.5520
11232TIP3    H155111   4.289   4.024   1.903  1.9936 -0.1834 -0.2253
11232TIP3    H255112   4.241   3.968   1.771  0.4962  1.9725 -0.6427
11233TIP3   OH255113   4.951   2.796  16.023  0.1050 -0.2809 -0.0730
11233TIP3    H155114   4.957   2.883  15.983 -0.2934 -0.0853  0.2850
11233TIP3    H255115   5.010   2.800  16.098  0.1111 -0.3321 -0.0753
11234TIP3   OH255116   5.263   4.484   0.266 -0.0602 -0.1474 -0.2546
11234TIP3    H155117   5.197   4.539   0.308  0.3151 -0.2132  0.4373
11234TIP3    H255118   5.321   4.546   0.221 -0.5842 -0.0892 -0.8694
11235TIP3   OH255119   1.474   4.279   4.575 -0.0929  0.1783 -0.3701
11235TIP3    H155120   1.396   4.256   4.624  0.1933 -1.6068 -0.6937
11235TIP3    H255121   1.520   4.196   4.561  1.0120  0.9467 -1.6225
11236TIP3   OH255122   3.729   5.700   2.743 -0.0550  0.5464  0.5347
11236TIP3    H155123   3.687   5.671   2.662 -0.2710  0.0005  0.8362
11236TIP3    H255124   3.701   5.791   2.754 -0.6851  0.3666  0.4277
11237TIP3   OH255125   4.669   4.135   4.568 -1.1498 -0.1662 -0.2616
11237TIP3    H155126   4.657   4.041   4.583 -1.2690 -0.1824 -0.4497
11237TIP3    H255127   4.714   4.167   4.646  1.2103 -0.8516 -1.2277
11238TIP3   OH255128   4.678   2.587  17.240  0.6015 -0.1716 -0.5690
11238TIP3    H155129   4.762   2.569  17.283  1.0836  0.0384 -1.3910
11238TIP3    H255130   4.656   2.676  17.267  0.3578 -0.4308  0.0959
11239TIP3   OH255131   3.403   0.223   5.688 -0.4781 -0.4487  0.1685
11239TIP3    H155132   3.469   0.169   5.732 -0.6570 -1.2017 -0.4627
11239TIP3    H255133   3.350   0.259   5.759 -0.1736 -0.8698  0.6192
11240TIP3   OH255134   4.094   4.680   3.620  0.2335  0.2418 -0.0838
11240TIP3    H155135   4.173   4.688   3.567  0.6509  1.0877  0.6441
11240TIP3    H255136   4.030   4.737   3.576  0.6020  1.0025  0.3546
11241TIP3   OH255137   6.332   3.635  16.898 -0.8084 -0.0556  0.2072
11241TIP3    H155138   6.350   3.608  16.988 -0.9997  1.1068  0.6136
11241TIP3    H255139   6.418   3.646  16.858 -0.7249 -0.7056  0.2057
11242TIP3   OH255140   0.170   1.909  12.667 -0.1304  0.0759  0.1041
11242TIP3    H155141   0.082   1.912  12.704  0.7857 -0.2416  2.4470
11242TIP3    H255142   0.222   1.861  12.731  1.8714  0.6405 -1.0045
11243TIP3   OH255143   1.603   0.580  12.672 -0.6487  0.5141  0.4011
11243TIP3    H155144   1.606   0.520  12.746  2.0711 -0.3783 -0.3210
11243TIP3    H255145   1.604   0.667  12.712  1.0278  0.0478  1.4686
11244TIP3   OH255146   6.744   0.031  13.149 -0.2850  0.5180  0.3158
11244TIP3    H155147   6.721   0.084  13.225  0.7036 -0.0465  1.0398
11244TIP3    H255148   6.738  -0.059  13.180 -0.6242  0.2448 -0.5051
11245TIP3   OH255149   6.339   1.010   3.584  0.0053 -0.4939  0.2693
11245TIP3    H155150   6.404   0.941   3.596  0.2988 -0.8306 -2.4664
11245TIP3    H255151   6.318   1.006   3.490 -2.7001  0.7279  0.7331
11246TIP3   OH255152   2.814   2.832  13.203 -0.2085 -0.2515  0.6794
11246TIP3    H155153   2.895   2.875  13.229  0.0065 -0.4894  0.4125
11246TIP3    H255154   2.746   2.897  13.220  0.1898  0.4896 -0.4239
11247TIP3   OH255155   2.225   2.919   3.464 -0.5724 -0.8803  0.3545
11247TIP3    H155156   2.158   2.966   3.513  1.6973  1.1920  1.6996
11247TIP3    H255157   2.233   2.967   3.382 -0.8698 -1.2513  0.1075
11248TIP3   OH255158   1.438   5.210   3.681  0.4782 -0.6117  0.6052
11248TIP3    H155159   1.411   5.165   3.761 -0.8582 -1.9685 -0.5583
11248TIP3    H255160   1.356   5.226   3.634  1.0304  1.9520  0.3699
11249TIP3   OH255161   6.448   0.820  13.814 -0.2968  0.6161  0.4188
11249TIP3    H155162   6.423   0.840  13.905  1.2593 -0.6062  1.1681
11249TIP3    H255163   6.445   0.724  13.809 -0.9070  0.6819 -1.0224
11250TIP3   OH255164   1.616   2.909  12.637 -0.5600  0.1602  0.2359
11250TIP3    H155165   1.640   2.996  12.670  1.0202  0.3199 -1.1864
11250TIP3    H255166   1.634   2.850  12.710 -1.0427  0.9361  1.0104
11251TIP3   OH255167   5.117   0.815  13.424  0.0057  0.6250  0.0169
11251TIP3    H155168   5.143   0.746  13.485 -1.3095 -0.1699 -0.2869
11251TIP3    H255169   5.086   0.886  13.480  1.7723  1.1813  0.3488
11252TIP3   OH255170   5.234   0.619   5.860  0.3710  0.2277 -0.1946
11252TIP3    H155171   5.235   0.564   5.939 -0.4558  0.2820 -0.1416
11252TIP3    H255172   5.172   0.689   5.880 -0.3673 -0.1382 -1.1403
11253TIP3   OH255173   5.322   2.313  12.741  0.3152  0.2643  0.0216
11253TIP3    H155174   5.377   2.247  12.699 -0.7548 -0.4963 -0.1967
11253TIP3    H255175   5.335   2.299  12.835  2.5182  1.8081  0.0298
11254TIP3   OH255176   5.496   5.738  16.886  0.3511 -0.2693  0.1553
11254TIP3    H155177   5.538   5.666  16.934  0.4161 -1.2415 -1.2927
11254TIP3    H255178   5.419   5.697  16.845 -0.0767  0.6906 -0.0112
11255TIP3   OH255179   6.624   0.148   0.549 -0.5838  0.0015 -0.1543
11255TIP3    H155180   6.572   0.225   0.527 -4.0290 -2.4394 -1.3308
11255TIP3    H255181   6.607   0.133   0.642 -0.1233  0.4371  0.0093
11256TIP3   OH255182   5.790   0.383   5.532 -0.6851 -0.2342 -0.4664
11256TIP3    H155183   5.784   0.299   5.578 -1.0347  0.0608  0.0369
11256TIP3    H255184   5.707   0.391   5.485 -1.1504  0.3499  0.4146
11257TIP3   OH255185   1.742   5.892   1.395 -0.1942  0.0673  0.9053
11257TIP3    H155186   1.837   5.902   1.392 -0.1812 -0.1608 -1.1827
11257TIP3    H255187   1.709   5.982   1.391  0.0010  0.1337 -2.5209
11258TIP3   OH255188   3.314   0.591   4.226 -0.3917 -0.5201  0.3655
11258TIP3    H155189   3.329   0.501   4.199 -0.9970 -0.2040 -1.1310
11258TIP3    H255190   3.345   0.644   4.153  0.3698  0.5205  1.4001
11259TIP3   OH255191   4.456   0.974  13.333 -0.2820  0.2603 -0.2879
11259TIP3    H155192   4.378   0.926  13.361  0.2050 -0.1243  0.4340
11259TIP3    H255193   4.421   1.049  13.284 -1.0757 -0.3818 -0.7467
11260TIP3   OH255194   0.567   6.195  14.700 -0.5622 -0.1367 -0.1513
11260TIP3    H155195   0.585   6.124  14.637  0.9455 -0.3449  0.4863
11260TIP3    H255196   0.476   6.180  14.726 -0.5980 -1.2120 -0.8080
11261TIP3   OH255197   2.370   1.101   1.251 -0.4639  0.1145  0.2234
11261TIP3    H155198   2.287   1.096   1.204  0.1106 -0.1932 -0.7811
11261TIP3    H255199   2.436   1.081   1.185  0.4460  0.8221  0.9046
11262TIP3   OH255200   1.968   1.164  11.960 -0.3618 -0.6134  0.0422
11262TIP3    H155201   2.001   1.253  11.946  0.1143 -1.0108 -1.5633
11262TIP3    H255202   2.031   1.123  12.018 -0.0853 -0.1950  0.0399
11263TIP3   OH255203   5.584   5.277   5.068 -0.3443  0.8463  0.6242
11263TIP3    H155204   5.531   5.340   5.021 -0.5392  2.5082  2.8872
11263TIP3    H255205   5.524   5.234   5.128  0.2206  0.1212  0.6943
11264TIP3   OH255206   5.957   4.298  11.434 -0.1284 -0.5508  0.0624
11264TIP3    H155207   6.035   4.282  11.488 -0.6560 -0.8750  0.7329
11264TIP3    H255208   5.971   4.245  11.355 -0.1464 -1.4241  0.6367
11265TIP3   OH255209   0.934   3.071   1.601 -0.2094  0.6227 -0.1679
11265TIP3    H155210   0.955   3.118   1.520 -1.0529  2.1607  0.4781
11265TIP3    H255211   1.013   3.080   1.655 -0.5353  1.7624  0.1446
11266TIP3   OH255212   2.343   3.104  15.942  0.6748 -0.7074  0.0856
11266TIP3    H155213   2.320   3.071  15.855  0.2837 -1.9916  0.6516
11266TIP3    H255214   2.438   3.112  15.940  0.7802 -1.8804 -0.0874
11267TIP3   OH255215   2.568   2.755   3.283 -1.3881 -0.0592  0.4629
11267TIP3    H155216   2.620   2.694   3.230  0.5628  0.5161  1.5893
11267TIP3    H255217   2.500   2.787   3.223  0.9416  0.8857 -1.8919
11268TIP3   OH255218   6.476   2.912  16.724  0.2885  0.1644 -0.3254
11268TIP3    H155219   6.477   2.886  16.632 -1.6616 -0.4429 -0.2332
11268TIP3    H255220   6.419   2.848  16.766  1.0510  0.5093  1.2892
11269TIP3   OH255221   0.722   5.697   3.125 -0.1104  0.0193  0.2261
11269TIP3    H155222   0.765   5.738   3.051 -1.8849 -0.5619 -1.1997
11269TIP3    H255223   0.793   5.674   3.185  1.5200 -0.5999 -1.8383
11270TIP3   OH255224   6.376   5.319  12.321 -0.4359 -0.0864  0.1359
11270TIP3    H155225   6.407   5.405  12.349  0.0914  0.1253 -1.0080
11270TIP3    H255226   6.452   5.279  12.278 -1.5446  0.2807 -2.3821
11271TIP3   OH255227   4.839   1.790   5.114  0.3210 -1.1797  0.0912
11271TIP3    H155228   4.780   1.748   5.051 -0.7658  1.0717 -0.5240
11271TIP3    H255229   4.884   1.858   5.062 -1.3125  1.4028  1.8332
11272TIP3   OH255230   5.365   0.030   4.197 -0.1497  0.0548  0.6953
11272TIP3    H155231   5.354   0.100   4.262  0.6522 -0.7656  1.7561
11272TIP3    H255232   5.446   0.052   4.151 -1.8615  1.8811 -1.7078
11273TIP3   OH255233   5.294   2.817   2.658 -0.3603  0.3445 -0.0721
11273TIP3    H155234   5.368   2.831   2.716  0.6425  2.7151 -1.7457
11273TIP3    H255235   5.228   2.880   2.687 -0.1725  0.9627 -0.9386
11274TIP3   OH255236   6.327   0.386  16.476  0.4692 -0.4983  0.0163
11274TIP3    H155237   6.386   0.393  16.550 -0.2828  2.4968  0.4491
11274TIP3    H255238   6.239   0.385  16.515  0.1110 -0.5515 -0.7690
11275TIP3   OH255239   1.318   5.763   2.201  0.4505  0.2124  0.1799
11275TIP3    H155240   1.318   5.707   2.123 -1.8899  0.8697 -0.3748
11275TIP3    H255241   1.321   5.852   2.168 -0.4659  0.4992  0.8084
11276TIP3   OH255242   5.935   5.124   5.864 -0.3592  0.1285  0.6414
11276TIP3    H155243   6.023   5.131   5.828 -0.2078 -2.9864  0.0896
11276TIP3    H255244   5.889   5.202   5.832  1.3987  0.3559 -1.5449
11277TIP3   OH255245   4.510   0.254  15.669  0.1580  0.3726 -0.2780
11277TIP3    H155246   4.544   0.192  15.734  1.5157  0.3599 -0.9458
11277TIP3    H255247   4.424   0.279  15.701  1.4741  1.8214  2.5723
11278TIP3   OH255248   0.054   3.573  14.028  0.3116  0.3169  0.2987
11278TIP3    H155249   0.087   3.650  14.075  0.5069 -0.0130  0.7015
11278TIP3    H255250   0.063   3.596  13.935  0.3874  0.7720  0.4190
11279TIP3   OH255251   1.956   1.623   1.706  0.0389 -0.2797  0.1634
11279TIP3    H155252   2.008   1.686   1.757  0.8140 -1.1131  0.4182
11279TIP3    H255253   1.879   1.606   1.760 -0.5908  1.0274 -0.2524
11280TIP3   OH255254   1.246   3.306  12.081 -0.1890 -0.5059  0.0641
11280TIP3    H155255   1.155   3.333  12.068 -1.0600 -2.3889  1.7197
11280TIP3    H255256   1.269   3.259  12.001 -0.7247 -0.1660 -0.2977
11281TIP3   OH255257   5.162   3.062   2.037 -0.4671 -0.0688  0.3458
11281TIP3    H155258   5.117   2.992   2.084 -2.7356  1.5175  0.6891
11281TIP3    H255259   5.092   3.115   1.999  1.2232  0.4177 -2.3707
11282TIP3   OH255260   0.033   2.632   3.927 -0.0953 -0.2774 -0.3983
11282TIP3    H155261   0.052   2.603   4.016 -0.9161  0.0015 -0.1180
11282TIP3    H255262   0.032   2.728   3.933  0.9270 -0.2160 -0.9514
11283TIP3   OH255263   3.197   2.142  13.462  0.0571 -0.0092  0.5192
11283TIP3    H155264   3.173   2.234  13.446 -0.7844 -0.4286 -0.8327
11283TIP3    H255265   3.142   2.093  13.400  1.0993 -1.3616  0.6434
11284TIP3   OH255266   1.949   3.518  11.148  0.7292  0.3004 -0.0435
11284TIP3    H155267   2.021   3.580  11.142  1.3851 -0.5607 -1.5758
11284TIP3    H255268   1.898   3.548  11.223  2.6083  0.9919  1.0186
11285TIP3   OH255269   1.376   3.288  13.614  0.1576  0.0023  0.3023
11285TIP3    H155270   1.416   3.224  13.556 -1.2716 -1.2509  0.6254
11285TIP3    H255271   1.442   3.305  13.681  0.2821 -1.7618  0.6552
11286TIP3   OH255272   2.937   1.503   4.440  0.3068  0.1928 -0.1216
11286TIP3    H155273   2.988   1.535   4.515  0.4143  0.2272 -0.2096
11286TIP3    H255274   2.962   1.560   4.368 -0.1875  0.4905 -0.0642
11287TIP3   OH255275   4.717   0.377   3.301  0.3355  0.2181  0.2581
11287TIP3    H155276   4.646   0.390   3.238 -0.6032 -0.3176  1.1699
11287TIP3    H255277   4.765   0.302   3.267  0.3770  0.4966 -0.2975
11288TIP3   OH255278   3.884   2.648   0.465 -0.5296 -0.3617 -0.4166
11288TIP3    H155279   3.808   2.688   0.424 -1.0993 -1.6567 -0.6469
11288TIP3    H255280   3.935   2.613   0.392 -0.3596 -0.6314 -0.1689
11289TIP3   OH255281   0.520   2.252   1.185 -0.1474  0.3109  0.8014
11289TIP3    H155282   0.581   2.301   1.241  0.1776  3.1841 -1.8109
11289TIP3    H255283   0.571   2.178   1.154  1.0000  0.9249  1.1550
11290TIP3   OH255284   5.345   3.046   4.612  0.6225  0.3769 -0.1448
11290TIP3    H155285   5.327   3.140   4.611  1.6805  0.6293  1.1762
11290TIP3    H255286   5.394   3.030   4.531 -1.8701  0.4090 -1.7524
11291TIP3   OH255287   6.310   6.727   0.772  0.7224 -0.6632 -0.2102
11291TIP3    H155288   6.228   6.771   0.755  1.0512 -0.3488 -1.0404
11291TIP3    H255289   6.330   6.680   0.690  1.0799 -1.2027  0.1726
11292TIP3   OH255290   0.169   3.710   2.635  0.0898 -0.0622 -0.2926
11292TIP3    H155291   0.244   3.767   2.617 -0.8927  1.0636 -0.9840
11292TIP3    H255292   0.207   3.624   2.652  1.6027  0.7262  0.4867
11293TIP3   OH255293   3.592   1.255  12.024 -0.0045  0.3630 -0.0295
11293TIP3    H155294   3.618   1.342  11.993 -1.6820  0.2707 -1.8059
11293TIP3    H255295   3.665   1.228  12.081  2.6282  1.1340 -2.7474
11294TIP3   OH255296   0.765   5.880  16.717 -0.4496 -0.1468  0.1717
11294TIP3    H155297   0.715   5.800  16.703 -1.4947  0.6038 -0.5438
11294TIP3    H255298   0.846   5.866  16.667 -0.7358 -0.6607 -0.1594
11295TIP3   OH255299   3.554   6.147   1.218  0.1809  0.4674 -0.6467
11295TIP3    H155300   3.566   6.060   1.180 -0.4497  0.4116 -0.7266
11295TIP3    H255301   3.517   6.199   1.147 -1.3462  0.2666 -0.0402
11296TIP3   OH255302   0.117   4.662  13.035 -0.7600  0.2910  0.4550
11296TIP3    H155303   0.165   4.723  12.978 -0.6209 -0.4901 -0.2701
11296TIP3    H255304   0.165   4.666  13.118 -0.6255  1.0093  0.3567
11297TIP3   OH255305   0.426   5.368   3.234 -0.3669 -0.0028  0.2838
11297TIP3    H155306   0.453   5.295   3.179  1.7313  1.7525 -1.1909
11297TIP3    H255307   0.505   5.422   3.244 -2.2207  3.0971 -0.4167
11298TIP3   OH255308   0.184   0.410  11.155  0.3800 -0.1207 -0.0763
11298TIP3    H155309   0.172   0.496  11.195  0.5300 -0.3054  0.3839
11298TIP3    H255310   0.095   0.375  11.146  0.2237  0.5929 -1.4482
11299TIP3   OH255311   4.700   4.920  17.225  0.3468 -0.5036 -0.7815
11299TIP3    H155312   4.716   4.837  17.270  1.4776  1.0012  1.8315
11299TIP3    H255313   4.653   4.896  17.145 -1.3694 -3.4293  0.9663
11300TIP3   OH255314   0.504   1.387  11.801 -0.1814  0.1733  0.6299
11300TIP3    H155315   0.565   1.361  11.870  0.1755 -0.1165  0.2112
11300TIP3    H255316   0.485   1.479  11.818 -2.4381 -0.6004  2.9078
11301TIP3   OH255317   0.860   6.394   1.941 -0.0960 -0.5155  0.1744
11301TIP3    H155318   0.790   6.403   2.006 -1.0937  0.8721 -1.0166
11301TIP3    H255319   0.922   6.333   1.980 -2.0211 -1.8717  1.2534
11302TIP3   OH255320   4.191   4.630   5.381 -0.3642 -0.4924  0.1173
11302TIP3    H155321   4.216   4.709   5.428  1.2056 -1.2305  0.6198
11302TIP3    H255322   4.179   4.564   5.449  1.3744 -1.4335 -0.4037
11303TIP3   OH255323   6.000   3.792   0.408  0.2103 -0.2649 -0.4543
11303TIP3    H155324   6.041   3.707   0.418 -1.0611 -1.1262 -2.1630
11303TIP3    H255325   5.984   3.801   0.314 -2.5058  0.4350 -0.0133
11304TIP3   OH255326   5.642   6.113   2.975 -0.1135  0.1075  0.1624
11304TIP3    H155327   5.677   6.175   3.038  0.1728 -0.8366  0.9458
11304TIP3    H255328   5.718   6.067   2.940 -0.3504 -0.1122 -0.0768
11305TIP3   OH255329   0.690   2.580   5.280  0.1333 -0.0801 -0.1819
11305TIP3    H155330   0.748   2.649   5.250  3.1270 -0.8794  3.1048
11305TIP3    H255331   0.678   2.597   5.373  1.3432 -3.9777  0.9080
11306TIP3   OH255332   6.564   6.433   3.592  0.2771  0.6113 -0.8821
11306TIP3    H155333   6.567   6.386   3.508  1.2681  2.2728 -1.8239
11306TIP3    H255334   6.546   6.364   3.657  1.6533 -1.0812 -2.1850
11307TIP3   OH255335   2.888   3.260  15.780 -0.4274 -0.2462 -0.4015
11307TIP3    H155336   2.949   3.331  15.761 -0.7567 -0.1443 -1.0822
11307TIP3    H255337   2.940   3.195  15.828 -0.2214  0.6259  0.5737
11308TIP3   OH255338   0.983   0.192   5.350 -0.1029 -0.2219  0.6284
11308TIP3    H155339   0.968   0.172   5.257  1.8995  0.6910  0.0492
11308TIP3    H255340   0.918   0.258   5.371 -3.1574 -3.1028  1.0384
11309TIP3   OH255341   1.706   3.761   2.243  0.0478 -0.1522  0.4152
11309TIP3    H155342   1.749   3.758   2.328  1.4198  1.8984 -0.1480
11309TIP3    H255343   1.767   3.807   2.186 -1.7346  0.4192 -1.1423
11310TIP3   OH255344   0.954   3.920   1.798  0.6265 -0.5919  0.0623
11310TIP3    H155345   0.912   3.867   1.731  1.4699 -2.0707  0.6369
11310TIP3    H255346   0.986   3.856   1.862  2.0365  0.5904  0.6015
11311TIP3   OH255347   4.142   4.672   0.167  0.4226  0.0411  0.0246
11311TIP3    H155348   4.104   4.737   0.227 -1.4406 -0.6347 -0.3638
11311TIP3    H255349   4.211   4.630   0.219 -0.4562  0.1807  1.3608
11312TIP3   OH255350   6.775   3.678   5.272 -0.1380 -0.0053  0.3442
11312TIP3    H155351   6.748   3.767   5.293 -0.0284  0.7692 -2.4478
11312TIP3    H255352   6.870   3.680   5.275 -0.1268  0.0625 -0.0220
11313TIP3   OH255353   4.712   3.284  13.599  0.1721  0.2001  0.2665
11313TIP3    H155354   4.636   3.225  13.605  1.0313 -0.9669 -0.0904
11313TIP3    H255355   4.786   3.227  13.580  1.4999  1.0626  2.4464
11314TIP3   OH255356   0.886   3.053  13.080 -0.5622  0.0678 -0.5995
11314TIP3    H155357   0.878   2.993  13.154 -0.0010 -0.5985 -1.0708
11314TIP3    H255358   0.876   2.998  13.002  0.5376  0.4768 -1.0563
11315TIP3   OH255359   6.033   6.491   0.813  0.4989  0.6453 -0.2867
11315TIP3    H155360   6.092   6.520   0.883 -0.4124  0.4222  0.5991
11315TIP3    H255361   5.950   6.534   0.834  0.0991  0.2092 -0.9813
11316TIP3   OH255362   5.328   1.580  14.770 -0.2550 -0.1232 -0.3434
11316TIP3    H155363   5.388   1.549  14.838 -0.3694  0.8818  0.2265
11316TIP3    H255364   5.347   1.523  14.695  2.5777  1.1433 -0.7448
11317TIP3   OH255365   3.042   4.512  16.800 -0.2234 -0.1812 -0.5237
11317TIP3    H155366   3.014   4.424  16.824  0.4296 -0.5259 -0.9652
11317TIP3    H255367   2.962   4.564  16.798 -0.5966 -0.7374 -0.1274
11318TIP3   OH255368   5.051   2.417   1.963  0.1574  0.3925  0.2995
11318TIP3    H155369   5.059   2.371   1.880  1.8177  1.1840 -0.0163
11318TIP3    H255370   5.141   2.438   1.988 -0.2353 -0.2348  2.5460
11319TIP3   OH255371   4.218   6.511   0.477 -0.5448  0.1728  0.4973
11319TIP3    H155372   4.292   6.463   0.514  0.4600  1.2817 -0.0155
11319TIP3    H255373   4.151   6.444   0.462  0.0839 -0.7383  1.6071
11320TIP3   OH255374   5.139   1.796  16.880 -0.2321 -0.3316  0.2608
11320TIP3    H155375   5.047   1.813  16.902 -0.6319 -1.8809 -0.0884
11320TIP3    H255376   5.188   1.828  16.956 -0.8037  2.7041 -0.5199
11321TIP3   OH255377   4.918   4.815  14.846  0.0391  0.0789  0.0264
11321TIP3    H155378   4.966   4.791  14.766  1.0414 -2.8291  1.3874
11321TIP3    H255379   4.977   4.874  14.892  0.9963 -0.9981  0.2178
11322TIP3   OH255380   6.619   0.883  13.247  0.0426 -0.3292 -0.3659
11322TIP3    H155381   6.669   0.965  13.237 -1.9638  0.7816 -2.1747
11322TIP3    H255382   6.528   0.910  13.245 -0.6989 -2.4513  1.3173
11323TIP3   OH255383   2.552   3.374  14.267  0.3823  0.2038  0.3767
11323TIP3    H155384   2.542   3.315  14.342 -0.9612  1.1820  0.9918
11323TIP3    H255385   2.629   3.427  14.289  1.3328 -0.9876  0.0207
11324TIP3   OH255386   5.249   3.550   3.826 -0.1273 -0.2666 -0.2818
11324TIP3    H155387   5.317   3.496   3.866 -1.6368 -1.0303  1.3846
11324TIP3    H255388   5.216   3.604   3.898 -0.7454  0.6803 -1.2477
11325TIP3   OH255389   6.240   5.111   0.386  0.0256  0.0799  0.2441
11325TIP3    H155390   6.301   5.153   0.325 -1.5390  0.9504 -0.7716
11325TIP3    H255391   6.297   5.061   0.445  1.6849  0.4101 -0.9914
11326TIP3   OH255392   1.286   1.091  12.812  0.0891  0.1558 -0.0660
11326TIP3    H155393   1.365   1.145  12.800 -1.1089  2.0585  0.1431
11326TIP3    H255394   1.313   1.023  12.874  1.5329  0.8384  0.1095
11327TIP3   OH255395   4.747   6.356  14.766  0.1405 -0.2497 -0.1645
11327TIP3    H155396   4.796   6.274  14.758 -0.2635 -0.4984 -0.1003
11327TIP3    H255397   4.784   6.398  14.844 -0.1899 -0.7448  0.2712
11328TIP3   OH255398   3.909   5.236  10.705  0.3058 -0.0069  0.6824
11328TIP3    H155399   3.912   5.155  10.654 -2.1559  0.8882 -1.0827
11328TIP3    H255400   4.001   5.260  10.717  1.0643 -1.0517 -2.1584
11329TIP3   OH255401   5.675   0.791  15.264  0.3869  0.0288  0.0017
11329TIP3    H155402   5.621   0.850  15.212  1.8552  0.2975 -1.3097
11329TIP3    H255403   5.764   0.803  15.229  1.7608  1.2039  3.4131
11330TIP3   OH255404   0.366   4.736  16.958  0.4462  0.2029 -0.2365
11330TIP3    H155405   0.419   4.775  16.888 -0.0828 -1.2852 -1.5382
11330TIP3    H255406   0.354   4.645  16.931  0.2135 -0.4251  1.8294
11331TIP3   OH255407   6.604   5.778  15.151  0.0822 -0.3974 -0.1496
11331TIP3    H155408   6.538   5.839  15.119  1.2707  0.7160 -0.5465
11331TIP3    H255409   6.684   5.801  15.103  0.7861 -1.6583  0.3697
11332TIP3   OH255410   2.654   4.969  13.270 -0.2831  0.3395  0.3964
11332TIP3    H155411   2.678   5.030  13.200 -0.9187  0.4765  0.2905
11332TIP3    H255412   2.688   5.008  13.350  1.6332 -0.4613  0.0329
11333TIP3   OH255413   1.703   5.416   3.389  0.2783 -0.0793 -0.1934
11333TIP3    H155414   1.727   5.468   3.467  0.5986  0.3596 -0.5795
11333TIP3    H255415   1.787   5.381   3.358 -0.1871 -3.3428  1.7799
11334TIP3   OH255416   5.739   0.844   0.943 -0.2801  0.1348  0.2634
11334TIP3    H155417   5.696   0.769   0.901  0.8888 -0.8766  0.7924
11334TIP3    H255418   5.669   0.906   0.959 -1.2264 -0.6937 -0.5360
11335TIP3   OH255419   1.949   1.726  14.247  0.2830  0.2451 -0.0291
11335TIP3    H155420   2.004   1.802  14.229 -0.2699  0.1905 -2.2116
11335TIP3    H255421   1.918   1.698  14.161  0.0124 -2.1091  0.7653
11336TIP3   OH255422   1.092   4.745   3.773 -0.1006  0.6175 -0.9334
11336TIP3    H155423   1.034   4.821   3.773  1.1855  1.6956  0.8414
11336TIP3    H255424   1.176   4.779   3.741  0.5131  0.0042 -0.0390
11337TIP3   OH255425   5.776   0.942  13.324 -0.6481 -0.4114  0.2515
11337TIP3    H155426   5.782   0.859  13.372  2.1139 -0.5592 -0.1613
11337TIP3    H255427   5.847   0.938  13.260  0.0803  2.5642  0.7070
11338TIP3   OH255428   6.404   3.454   6.441  0.1244 -0.1936  0.1250
11338TIP3    H155429   6.330   3.450   6.501  1.2926 -1.1986  1.5735
11338TIP3    H255430   6.391   3.536   6.393 -2.0030 -0.4433  0.1904
11339TIP3   OH255431   2.141   4.667  12.593 -0.1754  0.4587 -0.2528
11339TIP3    H155432   2.086   4.712  12.528  0.5441  0.9981 -0.5077
11339TIP3    H255433   2.196   4.609  12.541  0.4927  0.9861 -0.1535
11340TIP3   OH255434   6.585   5.722  10.982  0.1059  1.0056  0.0366
11340TIP3    H155435   6.545   5.712  11.069 -1.1190  1.6025 -0.4423
11340TIP3    H255436   6.625   5.637  10.964  1.2886  1.1730  1.6091
11341TIP3   OH255437   4.283   3.510  15.192  0.1826 -0.6099 -0.4020
11341TIP3    H155438   4.240   3.533  15.275 -1.2320  1.2079 -1.5519
11341TIP3    H255439   4.227   3.442  15.155 -0.6164  0.3173 -0.9553
11342TIP3   OH255440   5.983   3.923   4.976 -0.1011  0.0469  0.8183
11342TIP3    H155441   5.953   3.896   4.889 -1.1944  1.2289  0.8002
11342TIP3    H255442   6.030   4.005   4.960 -2.7522  1.8392  1.6079
11343TIP3   OH255443   6.084   5.958  16.614  0.0430  0.4249 -0.0272
11343TIP3    H155444   6.056   5.922  16.530 -1.4413  0.5844  0.3718
11343TIP3    H255445   6.042   6.044  16.618  1.1097  0.9458  0.3495
11344TIP3   OH255446   3.938   2.085   4.395 -0.3854  0.3770  0.1250
11344TIP3    H155447   3.980   2.031   4.329 -1.2468 -0.7695  0.4983
11344TIP3    H255448   3.887   2.149   4.346 -1.0263 -0.4697 -0.3224
11345TIP3   OH255449   4.917   0.017   1.885 -0.0668  0.4204 -0.0849
11345TIP3    H155450   4.887  -0.073   1.901  1.5602  0.2656  2.9161
11345TIP3    H255451   4.843   0.060   1.841 -2.6921 -1.2233  2.3841
11346TIP3   OH255452   4.755   3.021  14.548 -1.1600  0.3685 -0.6392
11346TIP3    H155453   4.673   3.033  14.594 -1.1619 -0.2600 -0.4636
11346TIP3    H255454   4.761   2.926  14.535 -1.9897  0.6181 -3.4528
11347TIP3   OH255455   2.593   4.375   2.177 -0.2547 -0.0919  0.2008
11347TIP3    H155456   2.600   4.394   2.083 -1.2868  0.5991  0.2460
11347TIP3    H255457   2.543   4.293   2.181 -0.1761 -0.1426  0.1465
11348TIP3   OH255458   2.828   3.204  12.584  0.2574 -1.4876  0.0406
11348TIP3    H155459   2.891   3.170  12.520 -1.2673 -2.2937 -1.0958
11348TIP3    H255460   2.742   3.180  12.548 -0.7666  0.6006  0.9423
11349TIP3   OH255461   2.049   3.046   5.752 -0.4950 -0.1184  0.8864
11349TIP3    H155462   1.955   3.030   5.757 -0.5359 -0.0279  0.4449
11349TIP3    H255463   2.082   2.976   5.695 -0.4602  0.5020  0.1364
11350TIP3   OH255464   4.573   5.667   5.240 -0.6017  0.4957  0.3127
11350TIP3    H155465   4.553   5.712   5.322 -1.9122  0.3507  0.0956
11350TIP3    H255466   4.580   5.575   5.265 -4.1085 -0.0166 -0.1332
11351TIP3   OH255467   1.401   4.428  11.112 -0.0790 -0.3527  0.3440
11351TIP3    H155468   1.452   4.359  11.070 -0.7766 -0.2563 -0.6720
11351TIP3    H255469   1.453   4.451  11.190  1.0407 -0.7857 -0.2484
11352TIP3   OH255470   2.225   1.368   2.715  0.4026 -0.9667 -0.2370
11352TIP3    H155471   2.249   1.382   2.624  1.2098  0.1482  0.1227
11352TIP3    H255472   2.140   1.410   2.725  1.4244  1.1874  0.0804
11353TIP3   OH255473   3.810   4.812  13.014  0.3001 -0.0949 -0.2550
11353TIP3    H155474   3.747   4.845  13.077 -0.5094 -2.6460  0.3590
11353TIP3    H255475   3.856   4.891  12.983 -1.4970  1.5582  1.0562
11354TIP3   OH255476   6.595   3.146   3.891 -0.1002  0.0235 -0.0265
11354TIP3    H155477   6.586   3.241   3.885  0.8353  0.0885 -0.7080
11354TIP3    H255478   6.513   3.112   3.855  0.4129  0.5744 -1.8484
11355TIP3   OH255479   2.183   3.189  16.567  0.3622 -0.1518 -0.4242
11355TIP3    H155480   2.101   3.152  16.601  0.0341  1.0445  0.1355
11355TIP3    H255481   2.155   3.245  16.495  0.5149  1.3497  0.6392
11356TIP3   OH255482   6.158   3.390   4.600 -0.1185  0.1965  0.0624
11356TIP3    H155483   6.090   3.454   4.623  0.0708  0.5986 -0.4800
11356TIP3    H255484   6.218   3.393   4.674 -1.2057 -0.9034  1.0226
11357TIP3   OH255485   1.901   6.733   1.361  0.5621  0.2392 -0.0638
11357TIP3    H155486   1.968   6.771   1.418  1.1046 -0.6668 -0.0845
11357TIP3    H255487   1.839   6.692   1.421  0.3928  0.4672 -0.0785
11358TIP3   OH255488   4.298   0.965   1.144  0.4174 -0.0103 -0.2930
11358TIP3    H155489   4.237   1.027   1.184  0.8026 -0.0676  0.3872
11358TIP3    H255490   4.278   0.969   1.050 -0.3845  0.2406 -0.1173
11359TIP3   OH255491   6.346   4.259   4.174 -0.2254 -0.2338 -0.2167
11359TIP3    H155492   6.320   4.350   4.189 -2.3572 -0.7962 -0.1266
11359TIP3    H255493   6.264   4.214   4.155  0.6495 -2.3227  0.6736
11360TIP3   OH255494   3.597   3.581   4.407  0.1581  0.1723 -0.4316
11360TIP3    H155495   3.579   3.661   4.455  1.6711  0.2657  0.0178
11360TIP3    H255496   3.606   3.609   4.316 -0.0753  0.3885 -0.3898
11361TIP3   OH255497   5.043   1.935   1.305  0.1067  0.0687  0.1476
11361TIP3    H155498   4.990   1.870   1.351 -0.9474  0.4707 -0.4828
11361TIP3    H255499   5.099   1.972   1.373 -0.0584 -0.7075  0.7290
11362TIP3   OH255500   6.502   3.352   3.009  0.0999 -0.3974  0.0509
11362TIP3    H155501   6.447   3.354   2.930  0.5473  1.5275 -0.2577
11362TIP3    H255502   6.591   3.350   2.976  0.2789 -0.1789  0.5138
11363TIP3   OH255503   5.069   6.014   5.231 -0.1770 -0.0442 -0.5834
11363TIP3    H155504   4.989   5.962   5.232 -0.4580  0.3699  1.2596
11363TIP3    H255505   5.140   5.950   5.239 -0.3356 -0.3453 -1.4188
11364TIP3   OH255506   4.663   2.352   4.197  0.2378 -0.1259 -0.1568
11364TIP3    H155507   4.656   2.358   4.101  2.2105 -1.1393 -0.4233
11364TIP3    H255508   4.607   2.278   4.220 -1.4512  1.0597 -0.3088
11365TIP3   OH255509   3.753   5.706   1.177 -0.4656 -0.3817 -0.1260
11365TIP3    H155510   3.834   5.660   1.156 -0.8695 -1.5984  0.8308
11365TIP3    H255511   3.743   5.695   1.272 -1.3922  0.3539 -0.1198
11366TIP3   OH255512   6.126   3.875  15.759 -0.8401  0.7861 -0.1133
11366TIP3    H155513   6.086   3.876  15.846 -0.0866 -1.8513  0.3552
11366TIP3    H255514   6.052   3.876  15.698 -1.4317  1.1843  0.5971
11367TIP3   OH255515   0.688   5.205  12.547  0.2806 -0.2671  0.2224
11367TIP3    H155516   0.764   5.170  12.501 -0.4290 -1.3763 -0.1386
11367TIP3    H255517   0.642   5.257  12.482  0.8752  0.6747  0.5273
11368TIP3   OH255518   2.005   0.769  12.853  0.2601  0.4217 -0.0915
11368TIP3    H155519   1.937   0.835  12.865 -0.7321 -0.5109 -0.3559
11368TIP3    H255520   2.045   0.758  12.939 -1.0992 -0.2283  0.4834
11369TIP3   OH255521   3.693   4.090  13.778  0.4702  0.3878 -0.4101
11369TIP3    H155522   3.777   4.101  13.823  0.8512 -0.5309 -0.8630
11369TIP3    H255523   3.632   4.144  13.827  1.0632  0.0953  0.6757
11370TIP3   OH255524   2.001   6.780  13.921  0.2109 -0.2949 -0.2645
11370TIP3    H155525   1.963   6.856  13.877 -0.2327 -0.1118  0.4168
11370TIP3    H255526   1.931   6.715  13.920 -0.0874 -0.0138  0.8519
11371TIP3   OH255527   2.355   3.228  15.268 -0.4493 -0.2454  0.1534
11371TIP3    H155528   2.449   3.241  15.262 -0.2024 -2.2042 -1.0956
11371TIP3    H255529   2.341   3.189  15.354 -0.1790  0.3801  0.4840
11372TIP3   OH255530   0.600   4.784   0.654 -0.0069 -0.0963 -0.2863
11372TIP3    H155531   0.524   4.840   0.669 -1.2255 -1.9102  0.6787
11372TIP3    H255532   0.641   4.776   0.740  1.0706  0.5475 -0.7253
11373TIP3   OH255533   4.320   4.129  16.002 -0.0084  0.1284  0.4962
11373TIP3    H155534   4.312   4.173  16.087  0.9432  0.5761  0.3684
11373TIP3    H255535   4.399   4.076  16.011  0.0846  0.1598 -0.1063
11374TIP3   OH255536   0.392   2.929  13.069 -0.7130 -0.1563 -0.4138
11374TIP3    H155537   0.447   2.852  13.059  0.9269  1.0523 -1.1918
11374TIP3    H255538   0.373   2.957  12.980 -1.9662 -0.0914 -0.1463
11375TIP3   OH255539   0.107   3.100   4.140  0.5670  0.2517  0.3689
11375TIP3    H155540   0.054   3.082   4.218 -0.0275 -0.1217 -0.1041
11375TIP3    H255541   0.082   3.031   4.078  0.3128  1.0972 -0.4933
11376TIP3   OH255542   5.952   3.458  15.128  0.0492 -0.1960 -0.2726
11376TIP3    H155543   5.957   3.505  15.045  0.9256  1.9441  0.9130
11376TIP3    H255544   6.035   3.412  15.135  0.4503  0.5440 -0.0867
11377TIP3   OH255545   0.229   0.355  15.138  0.2831  0.0829  0.1192
11377TIP3    H155546   0.242   0.382  15.047  0.5706  0.3127  0.2287
11377TIP3    H255547   0.162   0.287  15.133  1.0053 -0.6179 -0.3694
11378TIP3   OH255548   6.564   4.421  10.845 -0.0670  0.4396 -0.4986
11378TIP3    H155549   6.567   4.332  10.812  0.8927  1.2012 -2.7240
11378TIP3    H255550   6.649   4.433  10.889  0.0568  0.4168 -0.7278
11379TIP3   OH255551   0.093   5.656  14.077  0.3846  0.3871 -0.3302
11379TIP3    H155552   0.103   5.750  14.059 -2.8267  0.9459  0.2468
11379TIP3    H255553   0.060   5.620  13.995 -0.2377  0.1233  0.0371
11380TIP3   OH255554   5.053   5.603   0.812  0.1791  0.4344  0.1178
11380TIP3    H155555   5.094   5.594   0.726 -2.1170  1.5375 -1.1578
11380TIP3    H255556   5.005   5.685   0.808  1.1723  1.3091  3.0223
11381TIP3   OH255557   0.531   3.837  15.602 -0.3868 -0.2104  0.1307
11381TIP3    H155558   0.553   3.826  15.694 -0.4521  0.0299  0.1762
11381TIP3    H255559   0.608   3.803  15.555 -0.8033 -1.3495  0.2468
11382TIP3   OH255560   0.268   3.439  16.213 -0.2271  0.3580  0.6065
11382TIP3    H155561   0.188   3.491  16.219 -0.6957 -0.1858 -0.6641
11382TIP3    H255562   0.260   3.374  16.283 -0.9996  0.1768  0.3619
11383TIP3   OH255563   0.309   1.908   2.602 -0.7003 -0.9373 -0.4612
11383TIP3    H155564   0.350   1.905   2.516  2.5772  1.9195  0.7690
11383TIP3    H255565   0.351   1.838   2.652  1.4540  0.7013  0.1954
11384TIP3   OH255566   5.329   5.309   0.597 -0.3751 -0.4599 -0.1016
11384TIP3    H155567   5.358   5.219   0.585 -1.4724 -0.5513 -3.0457
11384TIP3    H255568   5.240   5.310   0.562 -1.1928  1.3618  1.8092
11385TIP3   OH255569   5.989   6.733   1.650 -0.2324 -0.0835  0.3360
11385TIP3    H155570   6.025   6.646   1.633 -1.8469 -0.4466 -1.6875
11385TIP3    H255571   5.898   6.718   1.674 -0.5024  1.0312  0.0873
11386TIP3   OH255572   2.222   2.649   0.118 -0.3269  0.4296 -0.3815
11386TIP3    H155573   2.301   2.693   0.150 -0.4347  1.6444 -1.6766
11386TIP3    H255574   2.150   2.695   0.162 -0.4323  1.5277 -1.6272
11387TIP3   OH255575   4.801   6.559  13.054 -0.1991 -0.3119 -0.4756
11387TIP3    H155576   4.763   6.477  13.023 -1.1476 -0.8418  1.8744
11387TIP3    H255577   4.731   6.623  13.045 -0.2911 -0.3412  0.0175
11388TIP3   OH255578   2.407   6.536  10.737 -0.4348  0.2712  0.3683
11388TIP3    H155579   2.314   6.553  10.726 -0.5936  1.2178  2.6529
11388TIP3    H255580   2.411   6.450  10.780 -0.1238 -0.5902 -1.2956
11389TIP3   OH255581   4.419   5.639   3.192  0.4242  0.1242 -0.2083
11389TIP3    H155582   4.352   5.706   3.203 -0.7786 -1.1741  0.6751
11389TIP3    H255583   4.383   5.579   3.126 -0.1595 -1.5520  1.5429
11390TIP3   OH255584   2.420   5.885  14.016 -0.5126  0.0620  0.0756
11390TIP3    H155585   2.341   5.869  14.068 -0.2591 -1.2473  0.0984
11390TIP3    H255586   2.399   5.849  13.930  0.2341 -0.7515  0.2277
11391TIP3   OH255587   5.626   5.072  13.042  0.5276  0.1262 -0.0148
11391TIP3    H155588   5.586   5.067  13.129  0.1790 -0.0894 -0.1819
11391TIP3    H255589   5.573   5.136  12.995  0.4229 -0.1053 -0.2138
11392TIP3   OH255590   1.862   1.794   2.674 -0.3199  0.2621  0.6612
11392TIP3    H155591   1.924   1.853   2.632 -1.0382  0.4077 -0.2137
11392TIP3    H255592   1.790   1.850   2.701 -2.1363 -0.4387 -2.2715
11393TIP3   OH255593   3.985   3.780  11.423 -0.4127  0.1206 -0.4822
11393TIP3    H155594   4.074   3.790  11.456  0.0771 -0.9666 -1.3919
11393TIP3    H255595   3.990   3.811  11.332 -1.1161  0.6248 -0.3553
11394TIP3   OH255596   2.460   0.578  14.762  0.1004  0.5869  0.2726
11394TIP3    H155597   2.380   0.528  14.778  0.0195  0.4774 -0.4496
11394TIP3    H255598   2.530   0.513  14.767  0.4166  1.0428  3.2018
11395TIP3   OH255599   0.267   5.209   5.333 -0.6571  0.6168 -0.3796
11395TIP3    H155600   0.214   5.165   5.400 -0.9153 -0.0826 -1.0273
11395TIP3    H255601   0.288   5.294   5.371  0.4982 -0.3278  1.2258
11396TIP3   OH255602   4.722   1.822   4.197 -0.1982 -0.1815  0.0345
11396TIP3    H155603   4.789   1.761   4.165 -1.0129 -1.6088  0.9403
11396TIP3    H255604   4.754   1.908   4.170  1.0557 -0.9776 -1.1849
11397TIP3   OH255605   6.333   6.353   6.112  0.3339 -0.0343  0.2475
11397TIP3    H155606   6.426   6.379   6.110 -0.0078  1.3218  0.7780
11397TIP3    H255607   6.317   6.315   6.025  1.1452  0.6106 -0.2022
11398TIP3   OH255608   3.250   6.387   3.155 -0.0702  0.3048 -0.2871
11398TIP3    H155609   3.239   6.481   3.142  1.3497  0.3390 -1.5700
11398TIP3    H255610   3.259   6.351   3.066  2.2048 -0.6223  0.2351
11399TIP3   OH255611   0.619   4.351   0.387 -0.3348 -0.4143 -0.7258
11399TIP3    H155612   0.712   4.356   0.409  0.0748 -0.8492 -2.2210
11399TIP3    H255613   0.618   4.331   0.293 -1.9440  0.3690 -0.9049
11400TIP3   OH255614   0.713   3.661  11.572 -0.1145 -0.0303 -0.5268
11400TIP3    H155615   0.756   3.670  11.487 -1.3111  1.6661 -1.0014
11400TIP3    H255616   0.620   3.652  11.551 -1.1301  4.9509  0.5115
11401TIP3   OH255617   1.381   4.747  13.287 -0.1135 -0.4147 -0.2071
11401TIP3    H155618   1.309   4.751  13.350 -0.6724 -0.8863 -0.7921
11401TIP3    H255619   1.338   4.736  13.202  0.6396 -0.2877 -0.6181
11402TIP3   OH255620   3.435   4.731   5.507 -0.2733  0.1575 -0.1179
11402TIP3    H155621   3.497   4.661   5.533  1.3133  1.9596  1.2705
11402TIP3    H255622   3.432   4.725   5.412  0.8298 -0.9981 -0.1271
11403TIP3   OH255623   4.939   6.155   3.565 -0.1662 -0.4803  0.0947
11403TIP3    H155624   4.911   6.208   3.490  0.0177  1.3882  1.2670
11403TIP3    H255625   4.968   6.072   3.526 -2.9287 -0.7781 -1.5707
11404TIP3   OH255626   4.514   0.977  14.045  0.0002 -0.1058 -0.1352
11404TIP3    H155627   4.499   1.038  14.117 -1.4467  2.3457 -2.3029
11404TIP3    H255628   4.573   1.024  13.986  1.9794 -2.4389 -0.1641
11405TIP3   OH255629   0.239   1.541  17.041  0.4188  0.5824  0.2998
11405TIP3    H155630   0.224   1.626  16.998  2.3427  1.5273  1.3912
11405TIP3    H255631   0.215   1.557  17.133  0.4603 -0.1787  0.4427
11406TIP3   OH255632   1.408   0.177  15.075 -0.8325 -0.1368 -0.0424
11406TIP3    H155633   1.433   0.141  15.160  0.0499  0.0812 -0.1892
11406TIP3    H255634   1.390   0.101  15.020  0.7924 -0.3989 -0.2861
11407TIP3   OH255635   6.152   1.853  15.761  0.0260  0.1846 -0.6113
11407TIP3    H155636   6.060   1.879  15.775  0.2717  0.9405 -0.3620
11407TIP3    H255637   6.197   1.881  15.841  0.3070 -1.0495 -0.3214
11408TIP3   OH255638   5.873   4.422  13.061 -0.2304 -0.3685 -0.1526
11408TIP3    H155639   5.837   4.509  13.045  1.9512  0.3819 -1.5133
11408TIP3    H255640   5.959   4.439  13.100  0.9328 -1.7904 -1.9211
11409TIP3   OH255641   1.325   2.083   3.305  0.2362  0.3377  0.5878
11409TIP3    H155642   1.242   2.043   3.280  1.2383 -0.0210 -2.4604
11409TIP3    H255643   1.368   2.017   3.360 -0.7729 -0.1339  0.8397
11410TIP3   OH255644   4.454   1.991  11.841  0.6436  0.5536 -0.4979
11410TIP3    H155645   4.495   1.905  11.829 -0.8335 -0.2398 -0.0311
11410TIP3    H255646   4.362   1.977  11.818  0.1223  1.7035  0.7954
11411TIP3   OH255647   1.472   1.936  13.759 -0.0196 -0.0758 -0.3103
11411TIP3    H155648   1.430   1.940  13.673  0.1081 -0.7568 -0.4121
11411TIP3    H255649   1.411   1.886  13.813  0.5972 -1.0167 -0.4420
11412TIP3   OH255650   1.775   0.048  16.142 -0.4343  0.0647 -0.0069
11412TIP3    H155651   1.830  -0.025  16.170  2.5340  1.7129 -1.0903
11412TIP3    H255652   1.761   0.035  16.049 -0.0579  0.7505 -0.1691
11413TIP3   OH255653   1.784   4.415   1.384  0.0470 -0.5276  0.3309
11413TIP3    H155654   1.759   4.402   1.292  0.7917  1.7722 -0.2558
11413TIP3    H255655   1.718   4.476   1.418 -0.3672 -1.5551  1.4290
11414TIP3   OH255656   1.608   2.310   3.377  0.0900  0.0845  0.6823
11414TIP3    H155657   1.616   2.260   3.458 -0.9414  2.0510  2.0786
11414TIP3    H255658   1.560   2.389   3.401  0.2252  1.0200 -1.7431
11415TIP3   OH255659   0.111   2.215   1.804  0.0240  0.4347 -0.4229
11415TIP3    H155660   0.053   2.272   1.856 -0.9749 -0.6612 -0.2862
11415TIP3    H255661   0.131   2.142   1.862  0.6171  0.2329 -0.8736
11416TIP3   OH255662   0.758   0.012  13.190  0.2014  0.2490 -0.3205
11416TIP3    H155663   0.782  -0.009  13.280 -2.0646  0.7696  0.4662
11416TIP3    H255664   0.701  -0.060  13.163 -0.7709  1.1000 -0.5944
11417TIP3   OH255665   6.306   1.494  12.115 -0.2863 -0.5347  0.2489
11417TIP3    H155666   6.279   1.583  12.138 -0.2159 -0.3492 -0.3712
11417TIP3    H255667   6.320   1.451  12.199 -0.2726  0.0572  0.5560
11418TIP3   OH255668   1.968   4.430  15.091  0.1479 -0.0930  0.0447
11418TIP3    H155669   2.021   4.510  15.095 -1.5094  1.0162  0.7492
11418TIP3    H255670   2.023   4.364  15.133  1.4977  0.6806 -0.4125
11419TIP3   OH255671   5.027   3.426   5.826  0.0911 -0.2170 -0.4574
11419TIP3    H155672   5.064   3.408   5.739 -1.2023 -2.2499 -0.6588
11419TIP3    H255673   5.100   3.413   5.886  0.4533 -1.1043 -1.0726
11420TIP3   OH255674   4.489   0.318   3.470  0.4037 -0.5108 -0.1448
11420TIP3    H155675   4.508   0.376   3.543 -1.6526 -0.2438  0.2518
11420TIP3    H255676   4.542   0.351   3.398 -0.7484  1.9822  0.0404
11421TIP3   OH255677   1.987   2.388   5.488  0.8920  0.0404 -0.5784
11421TIP3    H155678   1.918   2.378   5.553  0.1842  0.2592 -1.2859
11421TIP3    H255679   2.042   2.310   5.499  3.0514  1.7860  2.8679
11422TIP3   OH255680   2.602   5.020  14.401 -0.0306 -0.2405 -0.1684
11422TIP3    H155681   2.614   4.926  14.390 -0.1661 -0.1284 -1.3770
11422TIP3    H255682   2.691   5.056  14.401 -0.0156 -0.2778 -0.5989
11423TIP3   OH255683   3.925   5.998  13.315  0.4222  0.0237  0.7914
11423TIP3    H155684   3.952   6.038  13.398  0.6343  0.0422  0.7122
11423TIP3    H255685   3.843   6.042  13.293  1.1766  1.1427  0.1767
11424TIP3   OH255686   3.393   0.336   0.560  0.6383  0.1388  0.9020
11424TIP3    H155687   3.443   0.269   0.514 -1.2324 -0.7819  0.1055
11424TIP3    H255688   3.376   0.299   0.647 -1.3148 -0.9854  0.1105
11425TIP3   OH255689   3.978   6.367   2.096 -0.1576  0.5442  0.8591
11425TIP3    H155690   4.048   6.377   2.031 -0.5879 -4.2943 -0.7449
11425TIP3    H255691   3.897   6.382   2.048 -0.3904 -0.9490  0.7159
11426TIP3   OH255692   1.509   0.366   0.221 -0.6280  0.4104 -0.0893
11426TIP3    H155693   1.600   0.354   0.247 -0.6855 -1.5323 -0.6585
11426TIP3    H255694   1.512   0.380   0.126 -0.9549 -0.5831 -0.2621
11427TIP3   OH255695   0.565   6.361   0.280  0.7057  0.1770  0.0810
11427TIP3    H155696   0.615   6.394   0.206  2.4904  0.2047  1.2243
11427TIP3    H255697   0.580   6.426   0.349  1.9041 -1.4975  1.4880
11428TIP3   OH255698   3.262   6.372  12.799  0.2713  0.3424 -0.3327
11428TIP3    H155699   3.330   6.374  12.732 -1.3754 -1.8708 -2.2708
11428TIP3    H255700   3.181   6.392  12.751 -1.0145 -1.6161  0.8498
11429TIP3   OH255701   0.867   3.952   4.335 -0.5895  0.4583  0.0281
11429TIP3    H155702   0.805   3.880   4.351 -0.7728  0.7774  0.7833
11429TIP3    H255703   0.906   3.931   4.250  1.8206 -2.3020  1.6365
11430TIP3   OH255704   4.819   3.591  13.321 -0.4143 -0.1285 -0.0800
11430TIP3    H155705   4.760   3.567  13.249  0.1895  1.5105 -1.1848
11430TIP3    H255706   4.906   3.595  13.281 -0.0599  0.7621  0.7280
11431TIP3   OH255707   0.067   4.411   5.376  0.5197 -0.7761  0.5072
11431TIP3    H155708   0.000   4.353   5.340  0.3686  0.9462 -2.2506
11431TIP3    H255709   0.136   4.413   5.310  0.2772  2.5274  0.2099
11432TIP3   OH255710   0.613   3.549   5.517 -0.1697  0.5760 -0.6458
11432TIP3    H155711   0.518   3.546   5.533 -0.0653 -1.5018 -0.1638
11432TIP3    H255712   0.651   3.553   5.605  0.2323 -3.1503 -0.5158
11433TIP3   OH255713   2.043   2.672  14.497  0.1461 -0.0199 -0.4626
11433TIP3    H155714   2.069   2.592  14.451 -2.4704 -0.2897 -1.6126
11433TIP3    H255715   2.063   2.742  14.436  0.6908  0.0471 -0.2146
11434TIP3   OH255716   4.296   6.533  15.732 -0.6058 -0.6992 -0.6697
11434TIP3    H155717   4.273   6.610  15.680  0.1985 -0.7981 -1.1711
11434TIP3    H255718   4.390   6.521  15.720 -0.5185 -1.1229  0.2715
11435TIP3   OH255719   5.583   0.259  11.507  0.0752  0.3590  1.1867
11435TIP3    H155720   5.637   0.192  11.548  1.4168  0.2111 -0.6938
11435TIP3    H255721   5.550   0.219  11.427 -1.1304  1.1529  1.2530
11436TIP3   OH255722   2.226   0.247  15.294  0.0474  0.3587  0.9319
11436TIP3    H155723   2.213   0.222  15.203  0.5353  0.0743  0.9391
11436TIP3    H255724   2.315   0.218  15.315  0.7256  2.2431  0.8739
11437TIP3   OH255725   4.214   4.467   4.195  0.1268  0.3517 -0.1660
11437TIP3    H155726   4.121   4.448   4.209  0.2001  0.0499 -0.0765
11437TIP3    H255727   4.233   4.434   4.107 -0.0567  1.1988 -0.5294
11438TIP3   OH255728   2.093   1.338   4.654 -0.1406  0.8587 -0.1467
11438TIP3    H155729   2.020   1.275   4.654 -0.2140  0.9122  1.3706
11438TIP3    H255730   2.171   1.284   4.649 -0.2372  0.7258 -0.2379
11439TIP3   OH255731   4.223   6.051  15.480 -0.0419 -0.2654  0.6545
11439TIP3    H155732   4.269   5.997  15.416  0.4161  1.6797 -0.7609
11439TIP3    H255733   4.133   6.053  15.449 -0.7301 -2.3431  2.2472
11440TIP3   OH255734   3.011   4.958  16.616 -0.7659  0.1068  0.2253
11440TIP3    H155735   3.027   4.926  16.704  0.7475  0.4583  0.0979
11440TIP3    H255736   2.995   4.880  16.564 -1.5478 -0.1085  0.7717
11441TIP3   OH255737   4.529   1.614   5.165  0.5992 -0.3265  0.2695
11441TIP3    H155738   4.437   1.640   5.157  0.7888  0.5482  0.8091
11441TIP3    H255739   4.563   1.616   5.075 -0.0960 -1.4214 -0.0371
11442TIP3   OH255740   5.956   4.271  15.556  1.0616  0.5104 -0.2024
11442TIP3    H155741   5.967   4.236  15.645 -0.0950 -0.8950 -0.5615
11442TIP3    H255742   6.026   4.229  15.505 -0.1148 -1.1399 -0.5572
11443TIP3   OH255743   4.327   3.144  12.254 -0.0638  0.1596  0.3918
11443TIP3    H155744   4.357   3.054  12.239 -0.3640  0.2628 -0.9521
11443TIP3    H255745   4.262   3.136  12.324 -1.5839 -0.9859 -1.0805
11444TIP3   OH255746   4.164   3.496  12.330  0.4715 -0.0213  0.0668
11444TIP3    H155747   4.258   3.495  12.347  0.4296 -1.1888  0.3229
11444TIP3    H255748   4.157   3.516  12.237  1.0916 -1.8952 -0.4307
11445TIP3   OH255749   4.901   3.596  14.896 -0.2514  0.1340 -0.2224
11445TIP3    H155750   4.841   3.546  14.952 -0.7965  1.6462  0.5990
11445TIP3    H255751   4.922   3.674  14.947  0.4733  0.8096 -1.5106
11446TIP3   OH255752   4.870   6.443  16.713  0.6646  0.3130 -0.4424
11446TIP3    H155753   4.892   6.470  16.624  1.4124  3.6782  0.6352
11446TIP3    H255754   4.948   6.397  16.744  0.3808 -0.9275 -1.4809
11447TIP3   OH255755   0.702   3.257  15.906 -0.3492  0.1966 -0.0750
11447TIP3    H155756   0.648   3.323  15.861 -1.0156 -0.6255 -0.5061
11447TIP3    H255757   0.768   3.232  15.842 -1.1124 -0.7538 -0.5025
11448TIP3   OH255758   2.302   6.550  11.073 -0.8762  0.0086  0.1457
11448TIP3    H155759   2.290   6.518  10.984 -0.5015 -1.3553  0.5599
11448TIP3    H255760   2.311   6.645  11.064  1.5687 -0.3013 -1.5415
11449TIP3   OH255761   5.612   0.236   1.974 -0.2516 -0.0088 -0.3903
11449TIP3    H155762   5.592   0.329   1.964  0.7299  0.1298 -1.2165
11449TIP3    H255763   5.706   0.233   1.990 -0.0080 -0.9162 -1.7965
11450TIP3   OH255764   6.113   3.158  16.405  0.4229 -0.0777 -0.3583
11450TIP3    H155765   6.163   3.238  16.420 -0.8648  0.6028  0.6009
11450TIP3    H255766   6.150   3.119  16.326  2.5449  0.2834  0.4078
11451TIP3   OH255767   4.718   1.438  13.472 -0.1501  0.3750 -0.2081
11451TIP3    H155768   4.681   1.491  13.543 -1.5547  1.0252 -1.3883
11451TIP3    H255769   4.655   1.368  13.458  0.5034 -0.2042 -0.3128
11452TIP3   OH255770   2.069   0.261  14.279 -0.0158  0.7099  0.2605
11452TIP3    H155771   1.986   0.223  14.309  0.1796  1.6215  2.1237
11452TIP3    H255772   2.126   0.185  14.263 -0.2117  0.1293  2.1061
11453TIP3   OH255773   4.834   0.345  12.349 -0.0857 -0.2642  0.4018
11453TIP3    H155774   4.895   0.364  12.421 -0.4065 -0.0142  0.6090
11453TIP3    H255775   4.875   0.386  12.272 -0.9749  1.7396  0.9200
11454TIP3   OH255776   6.512   6.558  12.175 -0.6484 -0.4204 -0.1016
11454TIP3    H155777   6.436   6.537  12.121 -0.5577  0.2317 -0.4998
11454TIP3    H255778   6.538   6.646  12.146 -0.1166 -0.3885  0.4546
11455TIP3   OH255779   4.078   3.121   2.854  0.1152 -0.0722  0.3817
11455TIP3    H155780   4.161   3.129   2.807  0.1861  0.5968  0.6030
11455TIP3    H255781   4.073   3.029   2.880 -0.3073 -0.6432 -1.6046
11456TIP3   OH255782   0.275   2.381  10.941 -0.7856 -0.3329  0.1217
11456TIP3    H155783   0.207   2.435  10.902 -0.2048  0.8703  0.7221
11456TIP3    H255784   0.331   2.356  10.867 -1.1163 -0.1889 -0.1790
11457TIP3   OH255785   0.300   5.368  14.789 -0.6773  0.2101  0.2260
11457TIP3    H155786   0.325   5.447  14.742 -0.6673  0.3885  0.5273
11457TIP3    H255787   0.205   5.362  14.778 -0.7863  0.6956  0.8567
11458TIP3   OH255788   6.019   3.883  11.140  0.1192  0.2962 -0.0157
11458TIP3    H155789   6.068   3.963  11.126  0.0896  0.1134 -1.2882
11458TIP3    H255790   6.041   3.856  11.230  0.5423  1.4212  0.2297
11459TIP3   OH255791   3.512   3.878   2.836 -0.0996  0.0363  0.3935
11459TIP3    H155792   3.533   3.928   2.916 -1.4628 -0.4287  1.0660
11459TIP3    H255793   3.513   3.787   2.864 -0.0618 -0.1642 -0.2556
11460TIP3   OH255794   2.920   1.907  14.642  0.0024 -0.1813  0.0209
11460TIP3    H155795   2.907   1.993  14.604 -0.2354  0.5537  1.7127
11460TIP3    H255796   2.846   1.855  14.611 -0.2424  0.4285 -0.4279
11461TIP3   OH255797   1.521   0.207  11.872  0.0317 -0.1621 -0.5518
11461TIP3    H155798   1.475   0.270  11.817  0.7997  0.8635 -0.0523
11461TIP3    H255799   1.452   0.164  11.923 -0.6895 -1.1292 -2.2724
11462TIP3   OH255800   6.103   1.289  15.589  0.0076  0.5464 -0.6117
11462TIP3    H155801   6.026   1.317  15.539 -1.2131 -0.4012  0.6540
11462TIP3    H255802   6.106   1.194  15.578  0.6726  0.5099 -0.1889
11463TIP3   OH255803   6.459   5.712  16.439  0.7892  0.2480  0.5767
11463TIP3    H155804   6.469   5.752  16.525 -3.0271  2.5565  0.1617
11463TIP3    H255805   6.524   5.757  16.385  1.6918  0.4013  1.7389
11464TIP3   OH255806   2.598   3.456   2.370  0.8880 -0.0273  0.0339
11464TIP3    H155807   2.562   3.445   2.282 -1.1290  0.6254  0.7106
11464TIP3    H255808   2.563   3.381   2.419 -1.1310  1.5360  1.1413
11465TIP3   OH255809   2.324   4.009   0.482  0.3999  0.5335 -0.6618
11465TIP3    H155810   2.299   3.926   0.442  0.2130  0.5140 -0.5015
11465TIP3    H255811   2.420   4.008   0.481  0.4564 -0.6401  1.3094
11466TIP3   OH255812   6.000   4.481   2.711 -0.0014  0.5591  0.3490
11466TIP3    H155813   6.027   4.571   2.696 -0.5397  0.5187 -0.9458
11466TIP3    H255814   5.960   4.482   2.798 -1.8399  2.0100 -0.4502
11467TIP3   OH255815   2.535   3.836   4.342  0.3952 -0.1349 -0.6534
11467TIP3    H155816   2.444   3.839   4.311  0.9177  0.0560 -2.2745
11467TIP3    H255817   2.538   3.898   4.414 -0.9661 -0.8418  0.0678
11468TIP3   OH255818   3.090   2.939   5.121 -0.1666  0.4576 -0.2973
11468TIP3    H155819   3.017   2.885   5.089 -0.0608 -0.0776  0.3440
11468TIP3    H255820   3.119   2.988   5.044 -0.3364 -0.3197 -0.8708
11469TIP3   OH255821   2.514   4.068   4.533  0.3435 -0.2113 -0.6548
11469TIP3    H155822   2.558   4.091   4.614  0.4132 -0.5655 -0.5883
11469TIP3    H255823   2.545   4.131   4.469  1.3399 -0.7572 -0.7346
11470TIP3   OH255824   4.970   4.605   5.050  0.6488  0.3186  0.6031
11470TIP3    H155825   4.967   4.518   5.090  1.6277 -0.1626 -0.3118
11470TIP3    H255826   4.880   4.637   5.056  0.0732 -1.1196  0.2011
11471TIP3   OH255827   0.755   5.325   4.203 -0.2867  0.0974  0.0896
11471TIP3    H155828   0.827   5.387   4.215 -0.7373  0.6569 -0.0500
11471TIP3    H255829   0.764   5.295   4.112  0.6918 -1.0268  0.5383
11472TIP3   OH255830   4.850   1.215   3.121 -0.6350  0.2074  0.1357
11472TIP3    H155831   4.923   1.238   3.064 -0.1311 -0.2337  0.5917
11472TIP3    H255832   4.871   1.256   3.205  0.3994 -2.0409  1.0335
11473TIP3   OH255833   1.613   0.487   5.481 -0.2452  0.4917 -0.7069
11473TIP3    H155834   1.637   0.397   5.503  3.1188  0.5600 -3.3197
11473TIP3    H255835   1.634   0.537   5.560 -2.8105 -0.9297  1.0367
11474TIP3   OH255836   3.923   2.273  13.489  0.7410 -0.3245 -0.4211
11474TIP3    H155837   3.927   2.367  13.473  2.6032 -0.4542 -0.8906
11474TIP3    H255838   3.846   2.262  13.546  0.9703  1.5646  0.3313
11475TIP3   OH255839   3.628   3.802  13.749  0.6659 -0.2083 -0.9519
11475TIP3    H155840   3.695   3.733  13.746  0.3461 -0.5357 -0.6001
11475TIP3    H255841   3.675   3.879  13.781  0.6117 -0.7547  0.5104
11476TIP3   OH255842   4.432   1.838  13.179 -0.5509  0.4540 -0.2354
11476TIP3    H155843   4.385   1.921  13.193 -0.1911  0.2524  2.8640
11476TIP3    H255844   4.406   1.783  13.253  0.7878 -1.4821 -1.1249
11477TIP3   OH255845   6.014   5.270   2.971  0.4158  0.0025 -0.5255
11477TIP3    H155846   6.052   5.291   2.886 -0.5301 -0.4173 -1.0687
11477TIP3    H255847   6.065   5.320   3.034  0.8377  0.6637 -1.3847
11478TIP3   OH255848   2.474   1.448   3.888  0.2162  0.1800  0.7251
11478TIP3    H155849   2.459   1.488   3.802  1.8968  1.0976  0.8069
11478TIP3    H255850   2.400   1.389   3.900 -0.9946  1.3408 -0.5717
11479TIP3   OH255851   1.672   1.784   1.988  0.6206 -0.0347 -0.4099
11479TIP3    H155852   1.747   1.787   2.048  1.2625 -0.8960 -1.1371
11479TIP3    H255853   1.599   1.816   2.040  1.1148 -0.9718  0.9215
11480TIP3   OH255854   4.863   3.615  15.672  0.0343  0.1183  0.1239
11480TIP3    H155855   4.926   3.670  15.625  0.0262  0.4781  0.5357
11480TIP3    H255856   4.896   3.526  15.659  0.2650  0.2494 -0.2133
11481TIP3   OH255857   1.606   6.622  12.876 -0.2312 -0.7886 -0.0493
11481TIP3    H155858   1.663   6.672  12.817  0.4487 -1.0043  0.4248
11481TIP3    H255859   1.644   6.535  12.879 -0.8678 -1.0740 -0.1120
11482TIP3   OH255860   5.208   1.050  15.030 -0.5833  0.1284 -0.2104
11482TIP3    H155861   5.214   1.062  15.125 -0.6993  0.2846 -0.2228
11482TIP3    H255862   5.268   1.115  14.994 -1.2306  0.6998 -0.2793
11483TIP3   OH255863   2.509   1.115  12.626 -0.1486 -0.7773  0.2013
11483TIP3    H155864   2.576   1.107  12.694  0.0299  0.9553  0.2660
11483TIP3    H255865   2.557   1.104  12.544  0.4438  1.4314  0.2007
11484TIP3   OH255866   4.198   4.857   5.519  0.1906  0.5651 -0.1709
11484TIP3    H155867   4.159   4.859   5.606  0.2631  0.7583 -0.1410
11484TIP3    H255868   4.278   4.909   5.528  0.6394 -0.1079 -0.1401
11485TIP3   OH255869   1.503   2.268  10.445 -0.1720 -0.2217 -0.5104
11485TIP3    H155870   1.581   2.285  10.393 -0.0500  0.0688 -0.2396
11485TIP3    H255871   1.493   2.173  10.445  0.6722 -0.3221  0.1620
11486TIP3   OH255872   2.719   2.736  14.516  0.0682  0.3404  0.3449
11486TIP3    H155873   2.645   2.766  14.569 -0.5814  2.3244 -1.5244
11486TIP3    H255874   2.679   2.708  14.434  1.1860 -1.2251  0.2970
11487TIP3   OH255875   0.453   3.747   4.645  0.0526  0.5844 -0.4970
11487TIP3    H155876   0.376   3.801   4.661  0.6224  1.5580 -0.9277
11487TIP3    H255877   0.502   3.749   4.727  0.5145  1.4750 -0.7855
11488TIP3   OH255878   0.038   0.853  12.750  0.4075 -0.0090  0.7150
11488TIP3    H155879  -0.055   0.867  12.735  0.9252  1.1014 -2.0703
11488TIP3    H255880   0.047   0.758  12.759 -0.7442 -0.3682 -1.4106
11489TIP3   OH255881   3.302   5.749  12.845  0.4055  0.0246 -0.1150
11489TIP3    H155882   3.270   5.806  12.776 -0.5365  0.5728  0.7593
11489TIP3    H255883   3.308   5.805  12.922  1.8827 -0.4625  0.1620
11490TIP3   OH255884   1.878   1.387   4.205  0.8986 -0.1936 -0.1329
11490TIP3    H155885   1.954   1.337   4.236  0.9268 -1.3192 -1.8838
11490TIP3    H255886   1.804   1.351   4.255  1.3769  0.4391  1.0861
11491TIP3   OH255887   5.297   3.352   2.703  0.2778 -0.3963  0.3622
11491TIP3    H155888   5.203   3.336   2.714  0.0678  1.1631  1.1397
11491TIP3    H255889   5.337   3.307   2.777  0.2824 -1.8713 -0.4826
11492TIP3   OH255890   0.979   6.057  14.835 -0.1644  0.0022 -0.8446
11492TIP3    H155891   1.051   6.102  14.878 -0.7684 -0.9387  1.3057
11492TIP3    H255892   0.909   6.123  14.831 -0.4950 -0.1968  0.7819
11493TIP3   OH255893   3.735   4.852   1.899  0.1843  0.1987 -0.1738
11493TIP3    H155894   3.777   4.854   1.986 -0.8054  1.5980  0.3058
11493TIP3    H255895   3.657   4.798   1.911  0.9944 -1.1314 -0.6834
11494TIP3   OH255896   3.625   0.930   4.699 -0.2622  0.3788  0.5595
11494TIP3    H155897   3.560   0.865   4.729 -0.4211  0.2031 -0.1281
11494TIP3    H255898   3.606   1.008   4.751  0.4232 -0.3382  1.9518
11495TIP3   OH255899   5.617   5.976   5.454 -0.4122 -0.1731  0.1173
11495TIP3    H155900   5.706   5.978   5.491 -0.4658 -2.3799  0.5085
11495TIP3    H255901   5.630   5.988   5.360  0.2568 -0.1998  0.1984
11496TIP3   OH255902   6.243   1.215   1.838 -0.9544 -0.6096  0.2652
11496TIP3    H155903   6.243   1.292   1.781 -0.2896  0.1876  1.2950
11496TIP3    H255904   6.152   1.204   1.864 -0.9650  0.2832  0.6651
11497TIP3   OH255905   1.160   3.629  16.083  0.0505 -1.1349  0.8106
11497TIP3    H155906   1.219   3.629  16.158  0.6026 -0.1399  0.4012
11497TIP3    H255907   1.126   3.539  16.079  1.9768 -1.9186  0.7251
11498TIP3   OH255908   1.036   0.964   4.306 -0.3901  0.0543 -0.3920
11498TIP3    H155909   1.055   0.933   4.217 -2.3944  2.2953 -1.7226
11498TIP3    H255910   0.966   1.027   4.294 -1.5353 -0.4275  2.9810
11499TIP3   OH255911   3.670   3.225  10.985 -0.7422  0.0671  0.3904
11499TIP3    H155912   3.631   3.211  10.899 -0.4452 -1.4259  0.4719
11499TIP3    H255913   3.706   3.313  10.981 -0.1754 -0.2076 -1.2299
11500TIP3   OH255914   5.679   0.373  16.437 -0.5332  0.0197  0.4748
11500TIP3    H155915   5.662   0.467  16.442 -1.2153  0.2124 -2.9184
11500TIP3    H255916   5.774   0.367  16.425 -0.6620  0.4469 -0.9455
11501TIP3   OH255917   3.327   2.138  12.220  0.1257  0.3061  0.5535
11501TIP3    H155918   3.305   2.048  12.196 -0.8365  0.6925 -0.0521
11501TIP3    H255919   3.409   2.155  12.173 -0.9428  0.5341 -1.3233
11502TIP3   OH255920   3.704   2.346  11.224 -0.5340 -0.4656  0.6662
11502TIP3    H155921   3.616   2.318  11.200 -0.4725 -0.9484  1.0113
11502TIP3    H255922   3.725   2.415  11.160 -0.8975 -0.8103  0.1696
11503TIP3   OH255923   5.630   3.863   2.344 -0.1548  0.5154  0.0530
11503TIP3    H155924   5.698   3.834   2.405 -0.3574 -1.0032 -0.3888
11503TIP3    H255925   5.675   3.921   2.284  0.8640 -0.7107 -0.4189
11504TIP3   OH255926   2.916   2.826   2.896  0.2695 -0.0313  0.3395
11504TIP3    H155927   2.875   2.776   2.825 -0.2373  0.4396  0.2926
11504TIP3    H255928   2.998   2.781   2.912  0.5023 -0.0143 -0.7049
11505TIP3   OH255929   2.363   1.413   0.174  0.1043  0.4570  0.2231
11505TIP3    H155930   2.342   1.320   0.186  0.5119  0.1336 -1.3396
11505TIP3    H255931   2.449   1.424   0.214 -0.3762  0.4271  1.3229
11506TIP3   OH255932   6.501   3.709  12.043  0.1310  0.0133 -0.7757
11506TIP3    H155933   6.421   3.682  12.088  0.7577  0.5880  0.7363
11506TIP3    H255934   6.472   3.735  11.956 -1.1613 -0.8692 -0.6336
11507TIP3   OH255935   1.314   2.106  16.047  0.2864 -0.5513 -0.4928
11507TIP3    H155936   1.303   2.014  16.025 -0.7095 -0.1481 -1.8286
11507TIP3    H255937   1.399   2.130  16.009  0.4359 -0.8563 -0.3515
11508TIP3   OH255938   4.625   6.031   4.932  0.0554 -0.0426  0.2793
11508TIP3    H155939   4.534   6.003   4.936  0.1008 -0.0441  3.1315
11508TIP3    H255940   4.675   5.958   4.968  0.8571  1.0090  1.4128
11509TIP3   OH255941   1.678   6.319   5.101 -0.0733 -0.3845 -0.1477
11509TIP3    H155942   1.719   6.233   5.105 -2.9472 -1.9456 -1.6730
11509TIP3    H255943   1.743   6.373   5.055  0.6991 -2.5037 -1.7391
11510TIP3   OH255944   2.607   5.861   4.884  0.2007  0.4646  0.1736
11510TIP3    H155945   2.644   5.790   4.832 -1.9347 -0.1890 -0.5814
11510TIP3    H255946   2.568   5.817   4.960  1.5920  1.2059  1.3436
11511TIP3   OH255947   6.058   5.664  13.756 -0.4877 -0.5570 -0.1789
11511TIP3    H155948   6.011   5.585  13.730 -0.4263 -0.4601 -0.5861
11511TIP3    H255949   6.146   5.634  13.777 -0.4807 -0.6066 -0.2797
11512TIP3   OH255950   0.950   3.922  11.882 -0.1991 -0.0335 -0.3132
11512TIP3    H155951   1.004   4.000  11.891  2.0842 -1.2953 -2.1910
11512TIP3    H255952   0.999   3.853  11.926 -1.4627 -0.7369  0.0413
11513TIP3   OH255953   6.468   1.950   4.505 -0.3813  0.3894 -0.7631
11513TIP3    H155954   6.424   2.033   4.523 -0.5130  0.4159 -1.2030
11513TIP3    H255955   6.467   1.904   4.589  1.8009  1.8039  0.1134
11514TIP3   OH255956   3.884   1.254   4.043  0.8718  1.3683  0.4532
11514TIP3    H155957   3.855   1.254   4.135 -2.3293 -0.8844 -0.3644
11514TIP3    H255958   3.978   1.238   4.047  0.4721 -1.3545  3.3875
11515TIP3   OH255959   0.997   1.091  11.976  0.3628 -0.2934 -0.2241
11515TIP3    H155960   1.085   1.121  11.955  0.3132 -1.0999 -1.7328
11515TIP3    H255961   0.940   1.161  11.946  0.4751  0.4106  1.1203
11516TIP3   OH255962   1.264   4.757   4.518 -0.1648 -0.0196 -0.4328
11516TIP3    H155963   1.284   4.820   4.588 -0.3098  0.0126 -0.4205
11516TIP3    H255964   1.171   4.738   4.530 -0.0223 -0.5675 -0.1648
11517TIP3   OH255965   4.688   1.349  15.419 -0.2617 -0.4623 -0.1821
11517TIP3    H155966   4.691   1.340  15.323 -0.7345 -1.1751 -0.1352
11517TIP3    H255967   4.777   1.332  15.448  0.2479  1.2651 -0.6058
11518TIP3   OH255968   2.548   6.181   1.636  0.0047 -0.3913 -0.0787
11518TIP3    H155969   2.616   6.221   1.583  0.3408 -0.5423  0.2273
11518TIP3    H255970   2.502   6.122   1.576 -1.3585  1.3984 -0.8715
11519TIP3   OH255971   4.076   1.450  13.716  0.5346  0.2010  0.6434
11519TIP3    H155972   4.111   1.362  13.714  0.5618  0.1369  2.2917
11519TIP3    H255973   4.143   1.505  13.676  0.4625 -0.5322 -0.4939
11520TIP3   OH255974   0.832   5.639  12.208 -0.6135  0.1567 -0.3901
11520TIP3    H155975   0.809   5.580  12.136  0.0885  1.3998 -1.6714
11520TIP3    H255976   0.763   5.705  12.207  0.5133  1.3606 -1.3274
11521TIP3   OH255977   3.666   5.357  11.826 -0.5824 -0.0973 -0.3779
11521TIP3    H155978   3.699   5.441  11.858  2.9098 -1.7037  0.6555
11521TIP3    H255979   3.674   5.362  11.731 -0.9634  0.8940 -0.3715
11522TIP3   OH255980   0.088   1.219   0.366  0.0984  0.1000 -0.0042
11522TIP3    H155981   0.149   1.212   0.438 -0.8461  1.2539  0.9653
11522TIP3    H255982   0.021   1.153   0.383 -0.5873  0.9415  0.6931
11523TIP3   OH255983   2.612   3.323  16.187  0.3299 -0.0866 -0.2058
11523TIP3    H155984   2.692   3.376  16.185  0.0534  0.4186  0.9142
11523TIP3    H255985   2.554   3.366  16.125  0.6216  0.0573 -0.3861
11524TIP3   OH255986   4.236   1.580  16.466  0.4648 -0.2488 -0.1166
11524TIP3    H155987   4.199   1.537  16.389  0.9152 -0.5765 -0.1556
11524TIP3    H255988   4.160   1.612  16.514  0.2194  2.0828 -1.8749
11525TIP3   OH255989   2.245   2.433  14.840 -0.0542 -0.0372  0.0790
11525TIP3    H155990   2.163   2.406  14.799 -0.3666  0.1482  0.5823
11525TIP3    H255991   2.309   2.368  14.809 -0.3467 -0.0810 -0.4546
11526TIP3   OH255992   2.848   0.893   2.978  0.1288 -0.5675 -0.1500
11526TIP3    H155993   2.801   0.831   2.922  2.0134  0.0701 -2.6081
11526TIP3    H255994   2.940   0.868   2.968  0.6961  0.8547  1.1420
11527TIP3   OH255995   6.725   2.303  13.406 -0.0152 -0.3789 -0.4987
11527TIP3    H155996   6.670   2.257  13.469 -0.0884  0.1158 -0.1926
11527TIP3    H255997   6.670   2.312  13.328 -0.9622  1.4685  0.3150
11528TIP3   OH255998   3.241   4.171   0.178 -0.5523  0.6968  0.0537
11528TIP3    H155999   3.272   4.083   0.158 -0.3913  0.5309  0.9989
11528TIP3    H256000   3.159   4.157   0.226 -0.3580  1.0612  0.4870
11529TIP3   OH256001   3.776   2.126  11.054 -0.1842  0.5314 -0.2336
11529TIP3    H156002   3.776   2.183  11.130 -1.2990  0.5582 -0.2392
11529TIP3    H256003   3.793   2.184  10.980  1.4663  0.4239  0.0256
11530TIP3   OH256004   0.147   5.570   2.571 -0.3346  0.3980  0.6117
11530TIP3    H156005   0.213   5.524   2.622  1.2268 -1.2999 -2.6317
11530TIP3    H256006   0.156   5.535   2.483 -3.1145  2.8099 -0.8116
11531TIP3   OH256007   4.843   6.636   0.013  0.3034  0.1393  0.0145
11531TIP3    H156008   4.806   6.678   0.092  0.1945  1.7471 -0.8418
11531TIP3    H256009   4.802   6.550   0.010 -1.7337  1.0456  0.3068
11532TIP3   OH256010   2.834   1.132  13.121 -0.4152  0.4879 -0.2395
11532TIP3    H156011   2.813   1.086  13.040 -0.5863  0.1630 -0.0125
11532TIP3    H256012   2.772   1.205  13.124 -1.0931 -0.1015  0.1160
11533TIP3   OH256013   3.711   0.035  12.366 -0.1244 -0.6548  0.3347
11533TIP3    H156014   3.701  -0.052  12.328  1.3940 -0.7818  0.1523
11533TIP3    H256015   3.651   0.090  12.316  0.7937 -1.0890 -1.3294
11534TIP3   OH256016   6.071   5.013  16.998  0.2279  0.1224  0.2693
11534TIP3    H156017   6.160   5.049  16.992  0.1968  0.0743 -0.7993
11534TIP3    H256018   6.077   4.926  16.957 -0.7809  1.0994 -2.2109
11535TIP3   OH256019   2.771   1.866  13.383 -0.0027  0.1290  0.1633
11535TIP3    H156020   2.777   1.953  13.422 -0.0641  0.7493 -1.1506
11535TIP3    H256021   2.679   1.842  13.394  0.0943  0.0664  0.8609
11536TIP3   OH256022   4.358   5.445   2.976  0.2433 -0.2276 -0.3990
11536TIP3    H156023   4.333   5.383   2.908 -0.2558 -0.5884  0.1177
11536TIP3    H256024   4.450   5.425   2.994 -0.4195 -2.1718  1.1685
11537TIP3   OH256025   5.629   3.455  16.544  0.2100  0.2472  0.1339
11537TIP3    H156026   5.619   3.428  16.453  0.9369 -2.5914  0.8083
11537TIP3    H256027   5.721   3.480  16.551 -0.2642  2.3107 -0.2777
11538TIP3   OH256028   6.591   4.499  13.581  0.3356  0.0497  0.4728
11538TIP3    H156029   6.591   4.554  13.502  0.5272 -1.0833 -0.3490
11538TIP3    H256030   6.520   4.436  13.567  1.0507 -0.8334  0.7064
11539TIP3   OH256031   3.296   2.014   1.829 -0.6437  0.2641 -0.1456
11539TIP3    H156032   3.242   1.936   1.841 -1.4805  0.8794  0.2703
11539TIP3    H256033   3.309   2.021   1.735 -0.8556 -0.1843 -0.2089
11540TIP3   OH256034   5.424   1.603  16.085  0.4991 -0.4092  0.7791
11540TIP3    H156035   5.454   1.662  16.154 -1.5830  0.9045  0.6397
11540TIP3    H256036   5.397   1.524  16.131  2.6982 -1.0683  1.0344
11541TIP3   OH256037   2.063   3.868   2.557  0.2198  0.1224 -0.4785
11541TIP3    H156038   2.125   3.802   2.588 -0.0133 -0.4143 -1.1340
11541TIP3    H256039   1.980   3.844   2.600 -0.2749 -1.0418 -1.9982
11542TIP3   OH256040   2.114   2.387  15.312  0.7865 -0.3539 -0.5827
11542TIP3    H156041   2.192   2.390  15.367  1.1168  0.3045 -1.0724
11542TIP3    H256042   2.051   2.445  15.356  0.4874 -1.0469 -0.0771
11543TIP3   OH256043   0.012   6.496   1.875 -0.2467 -0.0595  0.7345
11543TIP3    H156044   0.039   6.409   1.903 -0.6508 -0.4655 -0.1012
11543TIP3    H256045  -0.082   6.489   1.861 -0.1586  0.2886 -0.0963
11544TIP3   OH256046   1.640   3.508  14.042 -0.2382  0.2378 -0.0575
11544TIP3    H156047   1.617   3.591  14.000  0.9933  1.4414  1.5061
11544TIP3    H256048   1.677   3.533  14.126  1.8463 -1.7926 -0.2583
11545TIP3   OH256049   5.276   5.729   6.428  0.0397 -0.2579 -0.3994
11545TIP3    H156050   5.263   5.636   6.448 -1.0485 -0.2862 -1.1270
11545TIP3    H256051   5.211   5.775   6.481  0.8350  0.1282  0.2501
11546TIP3   OH256052   3.304   3.386   5.918  0.6892 -0.5220  0.0204
11546TIP3    H156053   3.235   3.330   5.954 -1.5700  2.3337  0.5596
11546TIP3    H256054   3.347   3.423   5.995 -0.2009  1.0702 -0.1991
11547TIP3   OH256055   4.573   6.626   6.632 -0.1138  0.2006 -0.6400
11547TIP3    H156056   4.579   6.532   6.616  1.3453  0.3397 -1.0752
11547TIP3    H256057   4.664   6.656   6.632 -0.5626  1.6364 -0.6442
11548TIP3   OH256058   5.058   3.354  16.980  0.1986  0.7184  0.4664
11548TIP3    H156059   5.107   3.325  17.057  0.9787  0.8912  0.0400
11548TIP3    H256060   5.086   3.294  16.910 -0.7662  0.3404  0.3937
11549TIP3   OH256061   1.310   0.123  14.362  0.4259  0.2764 -0.2338
11549TIP3    H156062   1.252   0.107  14.436 -0.9408  2.2455 -0.8052
11549TIP3    H256063   1.254   0.119  14.285  1.9094 -2.2584 -1.3012
11550TIP3   OH256064   2.356   2.486   6.365  0.1735 -0.0378  0.0248
11550TIP3    H156065   2.348   2.398   6.326  0.6110  0.4112 -1.1321
11550TIP3    H256066   2.450   2.503   6.366  0.3534 -0.7332  2.9871
11551TIP3   OH256067   5.296   5.900  17.125 -0.4382 -0.6521 -0.1986
11551TIP3    H156068   5.254   5.829  17.076 -4.1350 -0.2017  1.9995
11551TIP3    H256069   5.316   5.861  17.211  0.0551  0.2627  0.1169
11552TIP3   OH256070   1.759   0.009   5.601 -0.2107 -0.3386  0.5097
11552TIP3    H156071   1.739   0.103   5.605  1.1731  0.1901 -2.3791
11552TIP3    H256072   1.853   0.004   5.621 -0.2680 -1.1124  0.6234
11553TIP3   OH256073   4.574   6.776  14.634  0.8063  0.0078  0.5815
11553TIP3    H156074   4.584   6.799  14.727  0.3591 -1.3190  0.9777
11553TIP3    H256075   4.651   6.814  14.592  1.3255  0.1152  1.5932
11554TIP3   OH256076   3.712   2.374   4.967 -0.3353  0.5305 -0.0852
11554TIP3    H156077   3.702   2.454   5.019  1.0820  1.2232 -0.8106
11554TIP3    H256078   3.765   2.316   5.022 -0.0085  0.7267 -0.1873
11555TIP3   OH256079   1.885   5.189  15.558  0.0924  0.0016 -0.0805
11555TIP3    H156080   1.973   5.157  15.539  0.6518  0.5794  1.4312
11555TIP3    H256081   1.887   5.282  15.536 -0.0688  0.0678  0.1775
11556TIP3   OH256082   6.074   0.643   6.124  0.1343 -0.1623  0.0906
11556TIP3    H156083   6.113   0.719   6.167  0.8883 -1.2056  1.3035
11556TIP3    H256084   5.989   0.674   6.092 -0.1893  0.8216  1.8037
11557TIP3   OH256085   5.825   2.524   0.268  0.1505 -0.2207  0.0189
11557TIP3    H156086   5.779   2.441   0.279  2.0471 -1.2731  0.4594
11557TIP3    H256087   5.828   2.562   0.356 -0.7464  0.3557 -0.1879
11558TIP3   OH256088   6.045   1.758   2.603 -0.3188  0.6248 -0.4067
11558TIP3    H156089   6.027   1.852   2.605 -0.4244  0.6234  1.9759
11558TIP3    H256090   5.983   1.720   2.666  2.0704 -0.5155  1.4565
11559TIP3   OH256091   3.542   5.292  14.681  0.2737  0.4076  0.6760
11559TIP3    H156092   3.556   5.320  14.591  0.0602 -0.6980  0.2809
11559TIP3    H256093   3.630   5.280  14.717  0.3584  0.8370  0.6194
11560TIP3   OH256094   6.607   1.649  12.675  0.1281  0.1499 -0.2925
11560TIP3    H156095   6.618   1.555  12.691  1.0031  0.5966  2.2728
11560TIP3    H256096   6.529   1.655  12.621  0.7061 -2.1030 -1.5047
11561TIP3   OH256097   3.361   6.766  11.991  0.0320 -0.9965  0.6138
11561TIP3    H156098   3.283   6.762  11.937 -0.3523  3.2169  0.4783
11561TIP3    H256099   3.433   6.745  11.932 -0.5088  2.0821 -1.3978
11562TIP3   OH256100   0.280   0.801   2.886  0.0972 -0.1296 -0.6222
11562TIP3    H156101   0.196   0.784   2.928  1.0381  0.0098  1.4352
11562TIP3    H256102   0.273   0.891   2.854  0.5103  1.1314  2.4706
11563TIP3   OH256103   2.838   2.636   1.019 -0.3619 -0.1306  0.2563
11563TIP3    H156104   2.837   2.561   1.079  0.5966  0.3293  0.8817
11563TIP3    H256105   2.905   2.614   0.954  0.3805  0.4431  0.8112
11564TIP3   OH256106   0.232   0.241  11.937  0.0775 -0.0658  0.1726
11564TIP3    H156107   0.312   0.233  11.989  0.2196  0.2427  0.0055
11564TIP3    H256108   0.262   0.246  11.847 -0.2203 -1.5670 -0.0353
11565TIP3   OH256109   5.281   6.397   0.872 -0.7364  0.5639 -0.5148
11565TIP3    H156110   5.239   6.482   0.888 -1.4955 -0.0576  0.9948
11565TIP3    H256111   5.298   6.361   0.959  0.1859 -0.5546 -1.1200
11566TIP3   OH256112   0.863   3.542  13.495 -0.0561 -0.2405 -0.0743
11566TIP3    H156113   0.904   3.625  13.470 -1.3020  0.9697  1.6906
11566TIP3    H256114   0.796   3.528  13.428  1.0917 -0.5980 -1.1846
11567TIP3   OH256115   2.782   5.480  10.805 -0.7904  0.4177  0.0159
11567TIP3    H156116   2.792   5.388  10.780 -0.4693  0.6973 -0.9501
11567TIP3    H256117   2.730   5.478  10.885 -2.5848 -0.5224 -1.0888
11568TIP3   OH256118   4.067   5.570   0.045  0.2498 -0.5279 -0.1722
11568TIP3    H156119   4.053   5.612  -0.040  1.1220 -0.9464 -0.5334
11568TIP3    H256120   3.992   5.512   0.056 -1.6031  1.9120  0.8615
11569TIP3   OH256121   4.843   0.942   2.343 -0.3236 -0.8339 -0.2156
11569TIP3    H156122   4.926   0.989   2.354  0.9172 -2.9650  0.2898
11569TIP3    H256123   4.781   1.008   2.312  2.3226  0.2934 -3.8523
11570TIP3   OH256124   1.597   2.515   6.325 -0.2756  0.1486  0.1178
11570TIP3    H156125   1.525   2.453   6.328  1.4275 -2.3044 -3.2079
11570TIP3    H256126   1.672   2.468   6.361  0.3382  1.5669  0.7800
11571TIP3   OH256127   5.101   0.262   1.886 -0.1334 -0.1421 -0.3459
11571TIP3    H156128   5.031   0.198   1.876 -0.2128  0.0863 -1.3299
11571TIP3    H256129   5.181   0.213   1.868 -0.1939  0.0161 -1.0951
11572TIP3   OH256130   4.246   2.447  12.199 -0.4354 -0.5824 -0.5139
11572TIP3    H156131   4.259   2.380  12.266  1.4188 -1.1726 -1.3938
11572TIP3    H256132   4.226   2.527  12.248  0.7597 -1.0177  0.7452
11573TIP3   OH256133   1.088   5.907  12.494  0.0061  0.1724 -0.0039
11573TIP3    H156134   1.119   5.889  12.405 -0.3417 -1.9831  0.2423
11573TIP3    H256135   1.161   5.881  12.550 -0.8239 -1.3701  0.4239
11574TIP3   OH256136   3.330   3.455  17.010  0.6338  0.3359 -0.4520
11574TIP3    H156137   3.398   3.407  16.963  0.5247  0.5670 -0.8487
11574TIP3    H256138   3.254   3.396  17.010  1.2599 -0.5375  1.2650
11575TIP3   OH256139   4.354   6.631  12.879  0.6618 -0.6727  0.1182
11575TIP3    H156140   4.300   6.563  12.919 -0.8546 -1.0281 -2.2804
11575TIP3    H256141   4.387   6.590  12.799 -2.0552  1.8992 -2.5725
11576TIP3   OH256142   5.382   5.924   1.384 -0.2373 -0.4061 -0.2183
11576TIP3    H156143   5.382   5.936   1.289 -2.1512 -0.1523 -0.2351
11576TIP3    H256144   5.361   6.011   1.418 -1.8273 -0.9663  0.2982
11577TIP3   OH256145   6.738   1.377  12.744  0.3222 -0.0143 -0.1540
11577TIP3    H156146   6.833   1.388  12.751  0.2968 -0.7257  1.8177
11577TIP3    H256147   6.716   1.314  12.813 -1.2774 -1.7859 -2.1346
11578TIP3   OH256148   5.986   6.183  11.510  0.4813 -0.4454 -0.5574
11578TIP3    H156149   5.972   6.274  11.485 -0.5111 -0.9360 -1.9345
11578TIP3    H256150   5.898   6.145  11.513  0.8574 -1.2793  0.3209
11579TIP3   OH256151   1.847   5.739  16.765 -0.2050  0.0972 -0.5044
11579TIP3    H156152   1.776   5.742  16.828  1.5318 -0.5616  1.5886
11579TIP3    H256153   1.868   5.831  16.747  1.0080  0.3817  2.0136
11580TIP3   OH256154   3.647   5.392  15.347  0.2225 -0.0920 -0.6531
11580TIP3    H156155   3.572   5.372  15.291 -0.6968  2.0152 -0.2491
11580TIP3    H256156   3.610   5.402  15.434  1.2071 -0.4422 -0.1814
11581TIP3   OH256157   2.981   2.963   2.605 -0.1857 -0.3391 -0.0313
11581TIP3    H156158   2.938   3.028   2.549  2.6234 -0.1266 -2.1041
11581TIP3    H256159   2.916   2.894   2.616 -2.1184  1.3267 -0.4239
11582TIP3   OH256160   0.873   6.767  13.923  0.1604 -0.1449 -0.4336
11582TIP3    H156161   0.827   6.837  13.876 -0.8134  0.2180  0.9826
11582TIP3    H256162   0.873   6.796  14.015 -0.7000 -2.2049  0.2717
11583TIP3   OH256163   6.727   3.855  15.204  0.2220  0.7130  0.3782
11583TIP3    H156164   6.810   3.862  15.250  1.0488  0.4682 -0.9976
11583TIP3    H256165   6.746   3.888  15.116  0.0722 -3.2041 -1.3537
11584TIP3   OH256166   1.063   2.224  16.050 -0.0535  0.1379 -0.3639
11584TIP3    H156167   1.029   2.136  16.068 -0.3705  0.4194  0.4706
11584TIP3    H256168   1.158   2.215  16.059 -0.1864  0.2256  1.3609
11585TIP3   OH256169   6.599   5.736   5.496  0.4156  0.2518 -0.2145
11585TIP3    H156170   6.663   5.701   5.434  2.3496  0.7407  1.4179
11585TIP3    H256171   6.637   5.818   5.526 -0.7216  0.2992  1.2137
11586TIP3   OH256172   5.894   4.981  13.460 -0.1344 -0.2147  0.1749
11586TIP3    H156173   5.866   5.069  13.436  1.5360  0.1570 -0.5134
11586TIP3    H256174   5.917   4.988  13.553 -0.6518 -0.1048  0.2990
11587TIP3   OH256175   1.068   2.048  16.427  0.7706 -0.3750 -0.0089
11587TIP3    H156176   1.144   2.059  16.371  0.7859  0.3900  0.1445
11587TIP3    H256177   1.022   1.971  16.392  2.9380 -2.4627  1.4209
11588TIP3   OH256178   0.807   0.513   4.895  0.0649  0.2058  0.2035
11588TIP3    H156179   0.767   0.596   4.868  1.2007  1.1568  1.3329
11588TIP3    H256180   0.766   0.493   4.979 -0.5779 -0.6757 -0.3013
11589TIP3   OH256181   6.749   4.800  16.341 -0.4071  0.1229  0.0630
11589TIP3    H156182   6.739   4.807  16.246 -0.2695  0.4468  0.0706
11589TIP3    H256183   6.727   4.887  16.374 -2.4982 -0.5321  0.5297
11590TIP3   OH256184   1.681   1.210   0.818  0.5297  0.6742 -0.4161
11590TIP3    H156185   1.754   1.223   0.756 -0.4766  0.2425 -1.7474
11590TIP3    H256186   1.604   1.200   0.762 -1.1309  4.1516  0.9488
11591TIP3   OH256187   4.628   5.552  16.216  0.2704 -0.0374 -0.2608
11591TIP3    H156188   4.703   5.599  16.252 -1.2605  0.9876  1.8332
11591TIP3    H256189   4.627   5.468  16.264 -1.0932  0.8488  1.3887
11592TIP3   OH256190   3.042   4.652  14.490 -0.2972 -0.0604 -0.2160
11592TIP3    H156191   3.022   4.561  14.511 -0.4265 -0.0478 -0.2831
11592TIP3    H256192   3.126   4.668  14.532  1.4768 -1.2257 -2.9921
11593TIP3   OH256193   4.570   2.245  10.841  0.4221 -0.2567 -0.3294
11593TIP3    H156194   4.527   2.284  10.917  1.6979 -1.0681  0.8471
11593TIP3    H256195   4.511   2.264  10.768  0.1064  2.2685  0.4856
11594TIP3   OH256196   5.483   0.869   1.316  0.5301 -0.3411  0.0879
11594TIP3    H156197   5.396   0.853   1.353 -0.0765 -0.2262 -1.2269
11594TIP3    H256198   5.487   0.812   1.239  1.3716  0.1225 -0.2210
11595TIP3   OH256199   0.248   1.039  15.176  0.2368 -0.0926 -0.4829
11595TIP3    H156200   0.178   1.104  15.170  1.7214  1.5349 -1.2508
11595TIP3    H256201   0.275   1.041  15.268  0.1312  0.2224 -0.4581
11596TIP3   OH256202   1.037   2.940  14.239 -0.4120 -0.2035 -0.1679
11596TIP3    H156203   1.115   2.885  14.250  0.1138  0.8709  1.8899
11596TIP3    H256204   1.064   3.007  14.176  0.6583  0.6901  1.1996
11597TIP3   OH256205   6.550   0.679  16.883 -0.3684 -0.2365  0.3640
11597TIP3    H156206   6.597   0.631  16.951  0.5181 -0.4565 -0.3962
11597TIP3    H256207   6.462   0.692  16.921  0.0564 -0.4714  1.4865
11598TIP3   OH256208   6.490   4.624  14.697 -0.0789  0.0842 -0.0759
11598TIP3    H156209   6.568   4.657  14.741  1.9228 -1.1573 -2.4581
11598TIP3    H256210   6.472   4.540  14.738 -0.7388  0.7300  1.0275
11599TIP3   OH256211   4.763   0.320  15.942  0.4380 -0.1107  0.0037
11599TIP3    H156212   4.816   0.346  15.866  1.6563  0.1258  0.9004
11599TIP3    H256213   4.693   0.266  15.905  1.2662 -0.3828 -1.2342
11600TIP3   OH256214   0.469   2.420   5.204 -0.5199 -0.1876  0.1576
11600TIP3    H156215   0.553   2.463   5.222  0.8535 -2.3651 -0.6509
11600TIP3    H256216   0.471   2.400   5.111  0.1701 -4.2801  0.8825
11601TIP3   OH256217   6.731   2.937  14.729  0.0745 -0.1977 -0.3361
11601TIP3    H156218   6.752   2.903  14.816  0.5976 -0.6728 -0.6461
11601TIP3    H256219   6.639   2.965  14.736  0.7474  1.8237  0.9983
11602TIP3   OH256220   0.894   6.045  12.633 -0.6677  0.4535 -0.0069
11602TIP3    H156221   0.942   6.001  12.563 -0.0527  1.2597 -0.1082
11602TIP3    H256222   0.933   6.010  12.714 -1.0931 -0.1666 -0.0641
11603TIP3   OH256223   4.699   2.793  15.150 -0.5414  0.0338  0.1467
11603TIP3    H156224   4.657   2.736  15.085 -0.6389 -1.4381  1.4393
11603TIP3    H256225   4.745   2.859  15.098  1.4162 -2.4614 -1.5585
11604TIP3   OH256226   4.131   0.879  15.743  0.0491 -0.1703 -0.2479
11604TIP3    H156227   4.108   0.971  15.756  0.2817 -0.2983  1.2646
11604TIP3    H256228   4.047   0.835  15.733 -0.0778  0.1527 -0.6332
11605TIP3   OH256229   0.298   4.043   0.272  0.5551  0.2085 -0.5518
11605TIP3    H156230   0.206   4.041   0.298  0.8075 -3.2201  0.6115
11605TIP3    H256231   0.327   4.132   0.293 -2.5602  1.5916 -1.5001
11606TIP3   OH256232   4.858   3.752   0.183  0.5797 -0.3160 -0.3028
11606TIP3    H156233   4.778   3.721   0.142 -0.0715 -1.5872  1.7563
11606TIP3    H256234   4.928   3.708   0.135 -0.0791 -0.9193 -0.7374
11607TIP3   OH256235   6.302   3.778   0.517  0.0829  0.1924  0.2295
11607TIP3    H156236   6.287   3.782   0.422  1.2256 -0.8066 -0.0186
11607TIP3    H256237   6.300   3.685   0.538  1.1268  0.3132  0.9451
11608TIP3   OH256238   0.315   0.713  17.256  0.1029  0.2816  0.2637
11608TIP3    H156239   0.357   0.627  17.260  0.6288  0.5443  0.5175
11608TIP3    H256240   0.253   0.713  17.329  1.3315  0.7454  1.3449
11609TIP3   OH256241   2.085   4.650  14.816 -0.3042 -0.3195  0.0646
11609TIP3    H156242   2.152   4.651  14.885  2.0560  0.5394 -2.0916
11609TIP3    H256243   2.061   4.557  14.807  0.7705 -0.6792  0.7247
11610TIP3   OH256244   3.509   5.482  13.296  0.5362  0.5518 -0.5029
11610TIP3    H156245   3.535   5.495  13.388 -0.4186  0.5970 -0.2338
11610TIP3    H256246   3.588   5.505  13.246  0.4652  2.5235  0.2088
11611TIP3   OH256247   5.718   4.337  13.258  0.4847  0.1391 -0.5586
11611TIP3    H156248   5.649   4.396  13.230  1.4464  0.8999 -1.3936
11611TIP3    H256249   5.784   4.342  13.189  1.4567 -0.4182  0.2974
11612TIP3   OH256250   6.767   5.840   3.220  0.7916 -0.6494  0.0834
11612TIP3    H156251   6.687   5.788   3.225  0.2602  0.0507 -0.9490
11612TIP3    H256252   6.828   5.784   3.172  0.5095 -0.6918 -0.2317
11613TIP3   OH256253   3.211   1.254   4.177  0.1206 -0.2128  0.0229
11613TIP3    H156254   3.240   1.339   4.211  2.1090 -0.8919  0.1621
11613TIP3    H256255   3.168   1.212   4.252  1.1499 -0.2133  0.6360
11614TIP3   OH256256   1.607   2.618   4.116 -0.6253  0.2628 -0.2050
11614TIP3    H156257   1.580   2.701   4.154  0.3907  0.5933 -0.1653
11614TIP3    H256258   1.557   2.552   4.164  0.1321  0.7154  1.2816
11615TIP3   OH256259   5.440   1.210  13.158 -0.4698 -0.5266  0.0499
11615TIP3    H156260   5.514   1.200  13.218  0.4474  1.3511 -0.7122
11615TIP3    H256261   5.430   1.124  13.118  1.5219 -0.7306 -0.0905
11616TIP3   OH256262   1.556   0.175   4.779 -0.0622  0.1344  0.3782
11616TIP3    H156263   1.616   0.214   4.843 -0.3043  1.2112 -0.0352
11616TIP3    H256264   1.609   0.110   4.733  0.7174  0.8567  0.2292
11617TIP3   OH256265   4.097   4.435   1.523 -0.2088  0.5712  0.1780
11617TIP3    H156266   4.060   4.387   1.450 -0.1250  1.2907 -0.3441
11617TIP3    H256267   4.044   4.408   1.599 -0.8884  0.5286 -0.3067
11618TIP3   OH256268   0.490   0.925  13.955  0.2197  0.3407  0.5316
11618TIP3    H156269   0.497   1.021  13.958  0.9057  0.2976  0.3386
11618TIP3    H256270   0.401   0.910  13.923  0.9947  0.9577 -2.1666
11619TIP3   OH256271   6.754   6.670   5.475 -0.2712  0.0472  0.0081
11619TIP3    H156272   6.683   6.667   5.411 -0.2986 -0.5088  0.0644
11619TIP3    H256273   6.786   6.580   5.480  1.3896  0.5340 -1.0792
11620TIP3   OH256274   0.921   4.208  13.347  0.3920 -0.2998  0.1915
11620TIP3    H156275   0.963   4.133  13.305 -1.2654 -1.7772  1.0303
11620TIP3    H256276   0.916   4.183  13.440 -2.5354 -0.3901  0.0959
11621TIP3   OH256277   2.955   5.366   3.585 -0.2260  0.0136  0.3196
11621TIP3    H156278   2.981   5.455   3.564  0.4299 -0.0643  0.7474
11621TIP3    H256279   2.885   5.345   3.523  2.2819 -0.5955 -2.5616
11622TIP3   OH256280   6.522   2.040   3.737  0.4009  0.3235  0.6020
11622TIP3    H156281   6.436   2.041   3.695  0.2874 -0.7323  0.7772
11622TIP3    H256282   6.509   2.088   3.819 -0.1513 -0.2367  0.8547
11623TIP3   OH256283   4.122   6.416   4.589 -0.6462 -0.1167  0.3068
11623TIP3    H156284   4.137   6.510   4.597 -3.3339  0.4048  0.0101
11623TIP3    H256285   4.076   6.391   4.669 -1.5958 -0.7878 -0.4265
11624TIP3   OH256286   6.596   0.392  12.036 -0.0612 -0.3739 -0.0576
11624TIP3    H156287   6.634   0.433  12.114  0.3341  1.8636 -1.3485
11624TIP3    H256288   6.666   0.395  11.971 -1.1410 -0.0052 -1.2302
11625TIP3   OH256289   3.445   0.193  16.165 -0.2151  0.4399 -0.2684
11625TIP3    H156290   3.351   0.204  16.150 -0.5406  1.1580  1.8968
11625TIP3    H256291   3.468   0.263  16.226  1.3134 -0.8435  0.7276
11626TIP3   OH256292   1.238   4.434   0.888 -1.2364 -0.0664 -0.4734
11626TIP3    H156293   1.220   4.524   0.863  0.7208  0.4808 -0.0859
11626TIP3    H256294   1.152   4.395   0.902 -2.2020  1.1347 -2.6448
11627TIP3   OH256295   2.757   5.565  15.891 -0.2982  0.1886  0.5250
11627TIP3    H156296   2.776   5.471  15.886  1.6193  0.6214 -1.6760
11627TIP3    H256297   2.665   5.569  15.919 -0.6359 -2.3317  0.0276
11628TIP3   OH256298   0.222   5.689   3.149  0.1827 -0.5462 -0.7501
11628TIP3    H156299   0.288   5.623   3.128  1.4751  0.1707  0.7870
11628TIP3    H256300   0.177   5.655   3.227  0.8496  0.3218  0.0489
11629TIP3   OH256301   2.076   5.370  11.948  0.7530 -0.2530  0.5403
11629TIP3    H156302   2.091   5.276  11.952 -1.2051 -0.5882  1.3367
11629TIP3    H256303   1.998   5.380  11.894  1.8525  1.0737 -0.8749
11630TIP3   OH256304   2.411   3.953   3.487 -0.2871  0.3647 -0.0851
11630TIP3    H156305   2.462   4.024   3.524  0.3593  0.8577 -1.8244
11630TIP3    H256306   2.347   3.996   3.430 -0.8741 -0.3835 -0.0173
11631TIP3   OH256307   1.225   3.642   3.130  0.4127  0.7792  0.1718
11631TIP3    H156308   1.264   3.680   3.209  0.2309  0.4433  0.4264
11631TIP3    H256309   1.265   3.555   3.124  0.7462  0.9636 -0.3464
11632TIP3   OH256310   2.704   5.834  12.242  0.3380 -0.2163 -0.6170
11632TIP3    H156311   2.641   5.770  12.275  1.0889  0.1491  1.6966
11632TIP3    H256312   2.651   5.897  12.193 -1.0582 -0.1980  0.8361
11633TIP3   OH256313   1.900   0.624   0.166 -0.4360 -0.4311 -0.1140
11633TIP3    H156314   1.942   0.660   0.088  0.1850 -0.2332  0.3047
11633TIP3    H256315   1.807   0.633   0.149 -0.3005  0.2675 -0.5347
11634TIP3   OH256316   2.531   1.608  16.814  0.2648  0.3784  0.6806
11634TIP3    H156317   2.619   1.577  16.794  0.1690 -0.3049  1.2573
11634TIP3    H256318   2.544   1.689  16.862  0.5082  1.8738 -1.7325
11635TIP3   OH256319   0.546   6.751   2.982  0.3679 -0.3978 -0.6181
11635TIP3    H156320   0.641   6.748   2.993  0.2679 -0.8370  0.1934
11635TIP3    H256321   0.532   6.816   2.913  1.2839 -0.7514 -1.1551
11636TIP3   OH256322   1.042   3.804  11.601 -0.1316  0.3377  0.0881
11636TIP3    H156323   1.002   3.828  11.684 -0.5835 -0.0235 -0.0199
11636TIP3    H256324   1.123   3.761  11.625 -0.5223 -0.2552  0.3686
11637TIP3   OH256325   1.161   3.851   3.631 -0.4356 -0.1766 -0.3183
11637TIP3    H156326   1.142   3.804   3.712 -0.0046  0.5310  0.1969
11637TIP3    H256327   1.117   3.935   3.640  1.6656  0.9367  0.2978
11638TIP3   OH256328   0.597   1.659   0.655  0.0246 -0.4162  0.1575
11638TIP3    H156329   0.645   1.630   0.577 -1.4607  0.5816 -1.2017
11638TIP3    H256330   0.505   1.647   0.632 -0.4389 -0.6325  2.0123
11639TIP3   OH256331   5.227   1.999  15.959  0.2947 -0.2799  0.2314
11639TIP3    H156332   5.305   1.947  15.937  0.4788 -0.3706  1.0580
11639TIP3    H256333   5.259   2.090  15.959  0.1524 -0.2187 -0.4338
11640TIP3   OH256334   1.987   3.527  12.690 -0.0679 -0.7214  0.1475
11640TIP3    H156335   1.906   3.536  12.741  0.4115  0.6087  0.7003
11640TIP3    H256336   2.056   3.558  12.748  0.5731  0.2597 -1.0955
11641TIP3   OH256337   1.848   2.504   3.225 -0.1162  0.3218  0.3892
11641TIP3    H156338   1.781   2.458   3.174 -0.2407  1.2869 -0.3696
11641TIP3    H256339   1.923   2.510   3.165  0.3769 -0.0715  0.9591
11642TIP3   OH256340   3.760   6.688  11.998 -0.6712 -0.0180 -0.6691
11642TIP3    H156341   3.824   6.744  12.043 -1.0342  1.3551 -1.7713
11642TIP3    H256342   3.799   6.601  11.999  0.3570  0.4267  0.3072
11643TIP3   OH256343   0.346   3.481   4.600  0.3739 -0.2478  0.5522
11643TIP3    H156344   0.264   3.474   4.649 -1.1521 -0.5921 -1.8825
11643TIP3    H256345   0.379   3.569   4.620 -0.1751 -0.3700  2.1152
11644TIP3   OH256346   2.122   2.868  12.977  0.0778  0.3348 -0.3645
11644TIP3    H156347   2.214   2.844  12.985  0.2192  0.8812 -0.3040
11644TIP3    H256348   2.096   2.835  12.891 -0.0196 -0.9228  0.1315
11645TIP3   OH256349   2.794   1.208  15.643 -0.0141 -0.5332  0.6100
11645TIP3    H156350   2.843   1.130  15.615  3.8139  0.9013  2.5567
11645TIP3    H256351   2.814   1.274  15.576  1.5729  0.3123  1.8628
11646TIP3   OH256352   2.141   0.211   3.404 -0.2325 -0.1712  0.6486
11646TIP3    H156353   2.073   0.143   3.404 -0.6336  0.2299  0.4225
11646TIP3    H256354   2.105   0.282   3.455 -0.5000  0.5524 -0.5070
11647TIP3   OH256355   4.478   6.265   5.068  0.0323  0.5969  0.2490
11647TIP3    H156356   4.551   6.211   5.098  1.8639  0.8874 -3.1807
11647TIP3    H256357   4.512   6.354   5.066 -0.8819  0.9550 -0.1226
11648TIP3   OH256358   0.820   2.344   1.621 -0.2471  0.4592 -0.1471
11648TIP3    H156359   0.752   2.337   1.688 -1.0149  1.1677 -0.8141
11648TIP3    H256360   0.887   2.281   1.647 -0.1213  1.2915  1.7340
11649TIP3   OH256361   2.711   6.531   6.241 -0.2890  0.0787  0.4621
11649TIP3    H156362   2.783   6.480   6.278  0.1690  1.7537  2.0120
11649TIP3    H256363   2.690   6.596   6.308 -1.6696  1.1632 -0.9270
11650TIP3   OH256364   0.154   2.274  15.513  0.5520 -0.2182 -0.4789
11650TIP3    H156365   0.172   2.186  15.545 -0.4548 -0.4760 -0.6040
11650TIP3    H256366   0.073   2.300  15.557  0.7499  0.5880 -0.5670
11651TIP3   OH256367   6.748   3.391   0.013 -0.1469 -0.2184 -0.6373
11651TIP3    H156368   6.795   3.454  -0.043 -1.1118  0.2356 -0.9568
11651TIP3    H256369   6.817   3.340   0.054  0.6106 -0.8883 -2.6162
11652TIP3   OH256370   4.618   5.161  16.701 -0.1779 -0.1171  0.5381
11652TIP3    H156371   4.612   5.252  16.729  0.1155  0.2525 -0.5342
11652TIP3    H256372   4.711   5.142  16.699 -0.2611 -0.6446  1.3486
11653TIP3   OH256373   0.893   4.668   1.281 -0.2521 -0.7933 -0.1685
11653TIP3    H156374   0.964   4.651   1.343  0.0824  0.4871 -0.1856
11653TIP3    H256375   0.917   4.750   1.238 -1.1201 -0.9976 -1.0804
11654TIP3   OH256376   2.349   5.489   5.612  0.0858 -0.2718  0.5558
11654TIP3    H156377   2.333   5.401   5.647  1.4195 -0.7838 -0.0622
11654TIP3    H256378   2.297   5.546   5.668 -1.5481 -1.5156  0.4089
11655TIP3   OH256379   5.477   5.992  12.968 -0.5564 -0.4160  0.1961
11655TIP3    H156380   5.508   5.919  13.021 -0.2395 -2.9573 -3.1813
11655TIP3    H256381   5.426   5.951  12.898 -2.0455  2.7944 -0.7956
11656TIP3   OH256382   1.397   1.863   4.359  0.0951  0.0665 -0.4464
11656TIP3    H156383   1.356   1.925   4.420  1.1852  2.1003 -1.6803
11656TIP3    H256384   1.354   1.880   4.275  0.6015 -0.6825 -0.8700
11657TIP3   OH256385   3.502   4.498   5.117 -0.0529 -0.6016  0.0643
11657TIP3    H156386   3.524   4.445   5.040  0.8529  0.4146 -0.4056
11657TIP3    H256387   3.541   4.450   5.191  1.2675 -0.3273 -0.4238
11658TIP3   OH256388   2.050   3.090   4.378 -0.3694  0.5422 -0.2222
11658TIP3    H156389   2.082   3.052   4.296 -1.0146  3.1242 -1.7970
11658TIP3    H256390   2.111   3.162   4.396 -0.8915  0.7073  0.9568
11659TIP3   OH256391   3.441   0.357   2.298 -0.9363 -0.2212  0.5674
11659TIP3    H156392   3.473   0.270   2.320 -0.1300  0.2944  1.5588
11659TIP3    H256393   3.375   0.376   2.365 -0.0668  0.4834  1.2511
11660TIP3   OH256394   6.564   4.642   3.048 -0.0329 -0.1009 -0.2325
11660TIP3    H156395   6.564   4.555   3.087  1.2786 -1.1272 -2.3241
11660TIP3    H256396   6.590   4.701   3.119 -0.3766 -1.4674  1.0730
11661TIP3   OH256397   6.640   5.109   6.285 -0.2979  0.2332  0.5727
11661TIP3    H156398   6.572   5.073   6.342  0.3294  1.1003  1.9239
11661TIP3    H256399   6.592   5.145   6.210 -1.1449 -0.9301  0.5326
11662TIP3   OH256400   6.394   5.811   0.710 -0.0891  0.1029  0.2555
11662TIP3    H156401   6.466   5.866   0.739 -1.6800  1.7568  1.2846
11662TIP3    H256402   6.392   5.822   0.615 -0.5916  2.2018  0.4581
11663TIP3   OH256403   5.102   6.508  15.090 -0.2598  0.5725 -0.0447
11663TIP3    H156404   5.057   6.490  15.172  1.3205 -0.6202  0.6162
11663TIP3    H256405   5.171   6.442  15.086  1.0811  1.9769 -1.2692
11664TIP3   OH256406   2.644   1.924  15.859  0.2515 -0.1501  0.3899
11664TIP3    H156407   2.672   2.005  15.901 -0.0059  0.7236 -1.0280
11664TIP3    H256408   2.554   1.911  15.887  1.7075 -2.8575  4.8065
11665TIP3   OH256409   1.043   5.276   3.749  0.0835  0.3073  0.5769
11665TIP3    H156410   0.965   5.306   3.795 -0.5996  2.0498 -1.5397
11665TIP3    H256411   1.115   5.321   3.792 -0.2469  0.0376  1.4372
11666TIP3   OH256412   3.180   1.562  13.029 -0.1939 -0.3754  0.0267
11666TIP3    H156413   3.231   1.548  12.949  0.2102  0.9844  0.0156
11666TIP3    H256414   3.094   1.527  13.009  0.7967 -3.1508  0.2100
11667TIP3   OH256415   6.561   3.662   0.135 -0.1778  0.1256  0.2210
11667TIP3    H156416   6.519   3.621   0.210 -1.8858  1.0100 -0.1891
11667TIP3    H256417   6.542   3.756   0.145 -0.4460  0.2670 -1.2668
11668TIP3   OH256418   6.254   3.651  14.969  0.4992 -0.2618  0.3045
11668TIP3    H156419   6.167   3.686  14.948  0.2738 -0.2414  1.2418
11668TIP3    H256420   6.308   3.728  14.984  0.6612 -0.2764 -0.1979
11669TIP3   OH256421   6.276   2.432   0.483 -0.5986 -0.6256  0.4519
11669TIP3    H156422   6.217   2.413   0.410 -1.0878 -3.2895  1.4411
11669TIP3    H256423   6.218   2.464   0.552 -0.4223 -0.1365  0.3762
11670TIP3   OH256424   2.646   5.823  13.384 -0.3925 -0.5521 -0.6997
11670TIP3    H156425   2.730   5.785  13.413  0.2152  0.6866 -0.7865
11670TIP3    H256426   2.598   5.749  13.346  0.6752 -1.2786 -0.6729
11671TIP3   OH256427   2.569   2.413   1.223 -0.8238 -0.2247  0.7550
11671TIP3    H156428   2.498   2.409   1.286 -1.3057 -0.6339  0.2001
11671TIP3    H256429   2.539   2.476   1.157 -0.7859 -0.5776  0.3940
11672TIP3   OH256430   0.349   3.671   1.892 -0.9192 -0.4119  0.0551
11672TIP3    H156431   0.435   3.712   1.895 -1.0613 -0.1125  2.2485
11672TIP3    H256432   0.313   3.695   1.807  0.9152 -0.0441 -0.6491
11673TIP3   OH256433   1.619   5.988   3.909 -0.5568 -0.1731 -0.5327
11673TIP3    H156434   1.683   5.917   3.916  0.5652  0.6812 -1.5780
11673TIP3    H256435   1.559   5.959   3.840  1.2096  0.7813 -2.5811
11674TIP3   OH256436   3.767   1.024   4.463 -0.6351  0.4703  0.4585
11674TIP3    H156437   3.765   0.931   4.441  0.3868  0.3430  0.8376
11674TIP3    H256438   3.705   1.032   4.536  0.4141 -0.2439  1.4873
11675TIP3   OH256439   0.980   1.568   3.807  0.0968  0.9370 -0.3625
11675TIP3    H156440   0.931   1.537   3.882  0.4556  1.1488 -0.0382
11675TIP3    H256441   0.913   1.599   3.746 -0.1684  1.3454  0.1272
11676TIP3   OH256442   5.172   4.152  11.767  0.5163 -0.6056  0.0773
11676TIP3    H156443   5.102   4.204  11.727 -0.6594 -0.6892  1.9146
11676TIP3    H256444   5.251   4.204  11.753 -0.5203  1.4620  1.3451
11677TIP3   OH256445   3.589   3.227   6.187  0.7856 -0.9558  0.3945
11677TIP3    H156446   3.523   3.285   6.224 -0.5294 -1.4287 -1.0652
11677TIP3    H256447   3.625   3.180   6.261  0.3963  0.2326  1.3664
11678TIP3   OH256448   0.562   4.838   1.447  0.1620  0.0785 -0.3415
11678TIP3    H156449   0.527   4.751   1.428  0.2475 -0.2072  0.7418
11678TIP3    H256450   0.541   4.890   1.369  1.5117 -1.3087 -1.6980
11679TIP3   OH256451   2.443   5.133  16.856  0.3101  0.4889  0.1009
11679TIP3    H156452   2.414   5.107  16.943 -0.3677  1.1497  0.0842
11679TIP3    H256453   2.464   5.050  16.812 -0.8222  0.0286  0.3823
11680TIP3   OH256454   4.487   1.287  14.020 -0.1617  0.3808  0.1132
11680TIP3    H156455   4.513   1.365  14.069  0.6458  0.3187 -0.1946
11680TIP3    H256456   4.449   1.320  13.939 -1.9685  0.4997  0.9571
11681TIP3   OH256457   0.209   0.179  14.378  0.6752 -0.6272 -0.0456
11681TIP3    H156458   0.268   0.106  14.357 -0.2435 -1.3590 -0.1267
11681TIP3    H256459   0.135   0.169  14.318  0.5586  0.4176 -0.1054
11682TIP3   OH256460   0.803   0.046   2.936  0.4123 -0.2930  0.1125
11682TIP3    H156461   0.810   0.002   2.851  2.5936  1.2114 -0.5523
11682TIP3    H256462   0.777   0.135   2.914  0.2139 -0.0974  1.1224
11683TIP3   OH256463   3.307   2.116  13.148 -0.1459 -0.4436 -1.2968
11683TIP3    H156464   3.384   2.082  13.194  0.2875  0.4818 -1.3107
11683TIP3    H256465   3.238   2.116  13.214 -0.1177 -1.2023 -1.2592
11684TIP3   OH256466   3.587   5.558   0.286 -0.4018 -0.5304  0.2345
11684TIP3    H156467   3.611   5.626   0.223  0.3110  0.7810  1.8412
11684TIP3    H256468   3.501   5.584   0.318 -0.0362 -0.2452  1.0101
11685TIP3   OH256469   1.075   0.080   2.312  0.5136  0.0819  0.9608
11685TIP3    H156470   1.039   0.059   2.226 -0.1357  2.5168  0.5667
11685TIP3    H256471   1.169   0.092   2.296  0.5233 -0.2549  0.7543
11686TIP3   OH256472   1.979   0.798  16.587  0.3380 -0.2840  0.2328
11686TIP3    H156473   2.074   0.804  16.589  0.6874 -3.6454 -0.2888
11686TIP3    H256474   1.952   0.827  16.674  1.7109  1.4864  0.1328
11687TIP3   OH256475   6.529   2.130  13.492  0.2057 -0.1359 -0.2149
11687TIP3    H156476   6.476   2.161  13.418  0.0690 -1.3269 -0.6331
11687TIP3    H256477   6.568   2.048  13.462 -0.8095 -1.2834  1.4272
11688TIP3   OH256478   5.378   0.265  13.022  0.4148 -0.6247 -0.2835
11688TIP3    H156479   5.328   0.186  12.999  0.2995 -0.4501 -0.6256
11688TIP3    H256480   5.311   0.332  13.037  0.5611 -0.2397 -1.2889
11689TIP3   OH256481   3.293   6.628  13.344  0.4226 -0.1590  0.3884
11689TIP3    H156482   3.203   6.594  13.343  0.2277  0.3478  0.6750
11689TIP3    H256483   3.305   6.665  13.256  1.8431 -4.0256 -1.3194
11690TIP3   OH256484   3.104   5.639  15.061 -0.3254  0.3320 -0.7925
11690TIP3    H156485   3.193   5.665  15.086  0.2249 -1.7706 -0.3802
11690TIP3    H256486   3.116   5.582  14.985 -1.3527  0.1887 -0.8683
11691TIP3   OH256487   5.211   0.343  15.278 -0.2531  0.3675  0.3090
11691TIP3    H156488   5.270   0.413  15.307  0.1714  0.0819  0.1406
11691TIP3    H256489   5.174   0.376  15.196  0.9341 -0.1319 -0.4582
11692TIP3   OH256490   2.680   2.861  11.409  0.1615  0.3461  0.4312
11692TIP3    H156491   2.716   2.928  11.350 -0.0494 -0.7045 -0.9529
11692TIP3    H256492   2.757   2.819  11.447  0.2874  1.9347  2.0086
11693TIP3   OH256493   4.347   0.035   2.303  0.0116  0.3824 -0.3833
11693TIP3    H156494   4.336   0.052   2.396  2.3564  1.1344 -0.1720
11693TIP3    H256495   4.414   0.098   2.275 -0.5904  0.1271 -2.5655
11694TIP3   OH256496   4.477   1.472  15.997  0.2773 -0.2042  0.2892
11694TIP3    H156497   4.424   1.526  16.055  0.2917  0.5560 -0.3966
11694TIP3    H256498   4.563   1.514  15.996  0.2821 -0.2117 -0.2688
11695TIP3   OH256499   5.560   1.151   0.367 -0.3854  0.5566 -0.0267
11695TIP3    H156500   5.566   1.159   0.463 -0.0042 -0.4424  0.0362
11695TIP3    H256501   5.597   1.065   0.347  0.5917  1.2241 -1.1895
11696TIP3   OH256502   1.849   3.178   3.052  0.3259  0.3879  0.2872
11696TIP3    H156503   1.774   3.135   3.010 -0.5857  1.6481  0.5618
11696TIP3    H256504   1.841   3.154   3.144  0.4839  0.2086  0.2541
11697TIP3   OH256505   2.933   6.166  12.602 -0.2268 -0.8493  0.8162
11697TIP3    H156506   2.862   6.229  12.589  0.9099  0.0624 -1.8398
11697TIP3    H256507   2.909   6.091  12.548  0.0169 -1.2307  1.2422
11698TIP3   OH256508   1.276   5.520  13.089 -0.5377  0.0913  0.7184
11698TIP3    H156509   1.285   5.615  13.084 -1.4791  0.1776  0.5367
11698TIP3    H256510   1.228   5.496  13.011 -0.2901 -0.5437  0.7535
11699TIP3   OH256511   0.156   4.985  13.254  0.3618 -0.2225 -0.4716
11699TIP3    H156512   0.096   5.044  13.299 -2.7615 -2.9617 -0.6370
11699TIP3    H256513   0.125   4.983  13.163 -1.1952 -3.5994 -0.0326
11700TIP3   OH256514   4.830   1.306   5.004 -0.2269  0.4930 -1.0581
11700TIP3    H156515   4.860   1.376   5.061  2.5701  0.7127 -2.6200
11700TIP3    H256516   4.826   1.345   4.917  1.6498 -1.2333 -2.0240
11701TIP3   OH256517   2.178   1.201  16.278  1.1014  0.1923  0.3979
11701TIP3    H156518   2.262   1.198  16.231  1.2381  0.5787  0.6119
11701TIP3    H256519   2.119   1.148  16.224  1.1663  0.9008 -0.3988
11702TIP3   OH256520   5.707   5.142   3.403  0.3593 -0.0023 -0.1433
11702TIP3    H156521   5.686   5.101   3.487 -0.2329 -0.3776 -0.4741
11702TIP3    H256522   5.715   5.069   3.342  0.9476  0.2578 -0.3902
11703TIP3   OH256523   0.834   2.272  12.966  0.5088 -0.5231 -0.0632
11703TIP3    H156524   0.877   2.190  12.942  0.0355 -1.0852  0.9382
11703TIP3    H256525   0.888   2.340  12.928  0.4960 -1.3229 -1.5746
11704TIP3   OH256526   4.786   6.744  13.365  0.0571  0.4129  0.1758
11704TIP3    H156527   4.863   6.797  13.386 -1.1864  2.4581 -0.1103
11704TIP3    H256528   4.800   6.717  13.274 -0.6175  2.9235 -0.7680
11705TIP3   OH256529   5.273   6.054   1.866 -0.2106 -0.4649  0.4499
11705TIP3    H156530   5.272   5.989   1.936 -1.1526  0.3374  1.2155
11705TIP3    H256531   5.325   6.014   1.796  0.7445 -1.2843  1.6025
11706TIP3   OH256532   1.101   0.217   4.847 -0.2249  0.6156 -0.3836
11706TIP3    H156533   1.091   0.312   4.838  0.0753  0.6644 -0.2015
11706TIP3    H256534   1.192   0.200   4.821  0.0150  0.4948  0.5105
11707TIP3   OH256535   0.225   0.132   2.852  0.2560 -0.1796 -0.3994
11707TIP3    H156536   0.195   0.223   2.864 -1.0942 -0.6985  0.4555
11707TIP3    H256537   0.316   0.140   2.823  0.0412  1.4515 -0.7090
11708TIP3   OH256538   4.491   1.250   4.832  0.3958 -0.2396  0.0537
11708TIP3    H156539   4.400   1.222   4.820 -0.3606  1.6907  0.8439
11708TIP3    H256540   4.540   1.203   4.764 -1.0297 -1.9737  0.1537
11709TIP3   OH256541   4.254   0.325   3.690 -0.4721 -0.3246  0.1074
11709TIP3    H156542   4.195   0.324   3.765  0.0360  0.4771  0.5374
11709TIP3    H256543   4.333   0.367   3.723 -0.3151  0.2250 -0.9339
11710TIP3   OH256544   4.849   3.164   5.054 -0.3748  0.0770 -0.0595
11710TIP3    H156545   4.860   3.217   4.975 -1.4391  0.6846  0.1797
11710TIP3    H256546   4.936   3.161   5.094  0.0666  0.1615 -1.0024
11711TIP3   OH256547   6.158   4.927  11.575 -0.3352 -0.1870  0.6240
11711TIP3    H156548   6.071   4.964  11.562  0.3798  1.1441 -0.6832
11711TIP3    H256549   6.212   5.000  11.604  0.7101 -0.5805 -0.2413
11712TIP3   OH256550   2.237   0.290   0.863 -0.6948  0.0811  0.2201
11712TIP3    H156551   2.144   0.305   0.881 -0.7106  0.1049  0.1212
11712TIP3    H256552   2.282   0.320   0.942 -0.7092  0.9494 -0.0902
11713TIP3   OH256553   3.338   0.211  17.158  0.0055  0.4255 -0.0721
11713TIP3    H156554   3.279   0.277  17.123  1.3700  1.6522 -0.1499
11713TIP3    H256555   3.342   0.144  17.090 -2.2622 -0.3663  0.4741
11714TIP3   OH256556   4.406   4.266  16.903 -0.0447 -0.3322 -0.1016
11714TIP3    H156557   4.361   4.212  16.968  1.2550 -1.1641  0.1442
11714TIP3    H256558   4.383   4.228  16.819  0.8100 -1.2676  0.0687
11715TIP3   OH256559   4.719   3.145   0.020 -0.5745  0.6150 -0.5919
11715TIP3    H156560   4.775   3.221   0.038  0.0629 -0.3950  2.2095
11715TIP3    H256561   4.637   3.165   0.064 -0.5910 -0.0363 -0.3068
11716TIP3   OH256562   2.433   5.526   4.427  0.1797 -0.5331  0.3483
11716TIP3    H156563   2.338   5.514   4.427  0.1568 -0.3813  0.9230
11716TIP3    H256564   2.469   5.437   4.435  0.0870 -0.5691  0.3619
11717TIP3   OH256565   4.420   0.953   2.780  0.0490  0.1711 -0.2489
11717TIP3    H156566   4.408   1.027   2.721 -1.2743 -0.4706 -0.8105
11717TIP3    H256567   4.504   0.915   2.754 -0.6348 -0.2641 -1.9329
11718TIP3   OH256568   2.087   4.801   2.095  0.4660 -0.1531  0.3214
11718TIP3    H156569   2.097   4.776   2.003  0.0215 -0.7942  0.4406
11718TIP3    H256570   2.139   4.738   2.144 -1.2819 -1.4114  0.6798
11719TIP3   OH256571   0.879   0.799   5.679  0.2904 -0.2216 -0.1372
11719TIP3    H156572   0.883   0.876   5.737 -0.2695 -0.6358  0.4622
11719TIP3    H256573   0.794   0.806   5.636  1.2894  0.8768 -2.0560
11720TIP3   OH256574   6.092   2.847  14.993 -0.1890 -0.0447  0.4438
11720TIP3    H156575   6.098   2.890  14.908  3.6943 -1.5023 -0.2402
11720TIP3    H256576   6.068   2.757  14.973 -1.4630  0.1240  1.1561
11721TIP3   OH256577   2.545   3.351   3.309 -0.2562 -0.1791 -0.1802
11721TIP3    H156578   2.464   3.387   3.273  0.4271  0.0642 -1.5470
11721TIP3    H256579   2.517   3.295   3.381 -1.5184  1.2551  0.5007
11722TIP3   OH256580   3.715   1.130  12.794 -0.7404  0.5734  0.0519
11722TIP3    H156581   3.677   1.043  12.785 -1.8616  0.9021  1.2973
11722TIP3    H256582   3.776   1.138  12.720 -2.2322 -0.4212 -1.3512
11723TIP3   OH256583   1.675   4.744  16.781  0.4018  0.6818 -0.3468
11723TIP3    H156584   1.724   4.824  16.767  0.8239  0.6361  0.7570
11723TIP3    H256585   1.717   4.680  16.724 -0.0640  1.2779 -1.3850
11724TIP3   OH256586   2.916   0.024  13.187 -0.2694 -0.3837 -0.2335
11724TIP3    H156587   3.007  -0.004  13.183  0.2427  1.2103 -0.7619
11724TIP3    H256588   2.918   0.106  13.237 -1.8213 -1.6949  2.1488
11725TIP3   OH256589   3.884   1.761  15.635  0.2556 -0.1197  0.0186
11725TIP3    H156590   3.881   1.733  15.544  0.2687  0.4205 -0.1477
11725TIP3    H256591   3.815   1.826  15.643  0.1486 -0.2773  0.4374
11726TIP3   OH256592   2.633   2.677  15.664  0.2673 -0.2427 -0.0402
11726TIP3    H156593   2.583   2.658  15.584 -2.2064  1.1523  1.0758
11726TIP3    H256594   2.668   2.592  15.691 -2.0372 -1.4376 -0.5887
11727TIP3   OH256595   5.711   0.594  16.738 -0.5069  0.1725 -0.0121
11727TIP3    H156596   5.701   0.685  16.768 -1.3272  0.1555 -0.2052
11727TIP3    H256597   5.804   0.586  16.717 -0.5990  1.2809 -0.9749
11728TIP3   OH256598   5.538   0.639   3.271 -0.0845 -0.5331 -1.0660
11728TIP3    H156599   5.447   0.618   3.248 -1.8682  1.5523  3.0127
11728TIP3    H256600   5.554   0.589   3.351  2.5669 -0.9914 -1.7749
11729TIP3   OH256601   1.822   2.374   6.433  0.4336  0.9733  0.2817
11729TIP3    H156602   1.881   2.365   6.507  1.2062  1.0695 -0.3032
11729TIP3    H256603   1.879   2.369   6.356 -0.3519  0.8131 -0.3100
11730TIP3   OH256604   0.568   2.443  15.316  0.0203  0.0588 -0.3030
11730TIP3    H156605   0.590   2.380  15.384 -0.3062  0.0533 -0.2013
11730TIP3    H256606   0.474   2.432  15.302  0.1995 -0.4247 -1.2398
11731TIP3   OH256607   4.797   1.305  13.154  0.2415 -0.2069 -0.2942
11731TIP3    H156608   4.849   1.252  13.094  0.8552 -0.3708  0.3600
11731TIP3    H256609   4.740   1.243  13.198  2.9465 -0.9187  2.5858
11732TIP3   OH256610   0.425   0.445   1.528  0.2732  0.6296  0.0209
11732TIP3    H156611   0.381   0.471   1.609 -0.4769  1.7440 -0.7022
11732TIP3    H256612   0.436   0.351   1.535 -0.1940  0.6503  1.2190
11733TIP3   OH256613   5.333   2.959   3.012 -0.1610 -0.1580 -0.2655
11733TIP3    H156614   5.391   2.979   3.086  0.2744  1.2825 -0.9682
11733TIP3    H256615   5.392   2.951   2.937 -0.7649  0.1360 -0.7728
11734TIP3   OH256616   3.065   1.000   3.478  0.7823 -0.0345 -0.3351
11734TIP3    H156617   3.099   0.924   3.524 -0.9580 -0.6537 -0.0143
11734TIP3    H256618   3.025   1.054   3.546 -0.3757 -0.1701 -0.8826
11735TIP3   OH256619   2.538   0.988   4.746 -0.5295  0.0855  0.3684
11735TIP3    H156620   2.484   0.960   4.672  0.0289 -0.6634  0.2280
11735TIP3    H256621   2.583   0.908   4.774  0.6601  0.7262  0.3441
11736TIP3   OH256622   6.206   3.011   4.175  0.3215  0.5390  0.2406
11736TIP3    H156623   6.246   3.060   4.247  0.5106  2.6215 -1.1876
11736TIP3    H256624   6.118   3.048   4.167 -0.6482 -1.4696  1.0086
11737TIP3   OH256625   5.146   1.110   3.600 -0.3634 -0.1900  0.1949
11737TIP3    H156626   5.215   1.064   3.648  0.7071  0.0574 -1.0178
11737TIP3    H256627   5.096   1.041   3.557 -1.3928 -0.4158  1.7016
11738TIP3   OH256628   4.092   4.876   0.588 -0.5435  0.2014 -0.1857
11738TIP3    H156629   4.026   4.935   0.624 -0.7375 -1.1338  1.7865
11738TIP3    H256630   4.170   4.892   0.640  0.0256  0.1171 -0.9839
11739TIP3   OH256631   3.535   5.416   5.441 -0.2299 -0.6329 -0.1262
11739TIP3    H156632   3.569   5.495   5.484  1.8711 -1.9561  0.8069
11739TIP3    H256633   3.448   5.404   5.478  0.3354 -0.0276  1.4801
11740TIP3   OH256634   1.634   2.112   3.588 -0.3254 -0.0135 -0.0198
11740TIP3    H156635   1.576   2.045   3.552 -0.3582 -0.0262  0.0559
11740TIP3    H256636   1.576   2.176   3.629 -0.2360 -0.9791  1.7053
11741TIP3   OH256637   6.264   2.326  15.715 -0.3904 -0.0406 -0.2934
11741TIP3    H156638   6.234   2.287  15.796  1.2036  0.5677  0.6272
11741TIP3    H256639   6.208   2.404  15.704  0.6220  0.9687  1.2873
11742TIP3   OH256640   2.000   0.033   5.738  0.4871 -0.2324 -0.7036
11742TIP3    H156641   2.084   0.061   5.702 -0.0064  0.9156 -0.9932
11742TIP3    H256642   2.001  -0.062   5.731  0.1629 -0.1033 -4.3553
11743TIP3   OH256643   3.551   0.643  12.770  0.1237  0.1776 -0.1058
11743TIP3    H156644   3.603   0.617  12.846  2.3274 -1.6129 -2.0653
11743TIP3    H256645   3.461   0.641  12.802  0.7531 -2.7175  1.9238
11744TIP3   OH256646   1.757   2.682   5.265 -0.5048  0.1674  0.1481
11744TIP3    H156647   1.789   2.600   5.228  2.2218  0.2410  2.0428
11744TIP3    H256648   1.781   2.677   5.358 -0.7185  2.8880  0.4129
11745TIP3   OH256649   0.187   2.237   2.928 -0.5317  0.0480  0.5744
11745TIP3    H156650   0.190   2.221   2.834  1.3166 -1.1987  0.7797
11745TIP3    H256651   0.127   2.170   2.962  0.5200 -0.9733  0.4859
11746TIP3   OH256652   5.881   1.646  16.564  0.5911  0.0300 -0.4779
11746TIP3    H156653   5.964   1.687  16.540 -0.0425  1.1316 -0.8322
11746TIP3    H256654   5.890   1.555  16.534  2.6493 -0.6430  1.7802
11747TIP3   OH256655   2.057   0.892   4.073 -0.6404 -0.0283  0.1700
11747TIP3    H156656   1.970   0.858   4.095 -0.9333  0.4348 -0.2487
11747TIP3    H256657   2.073   0.960   4.139 -0.4545 -0.3312  0.4409
11748TIP3   OH256658   2.749   3.733   0.150 -0.7000  0.0635 -0.0102
11748TIP3    H156659   2.743   3.769   0.238  0.5889  0.9141 -0.2394
11748TIP3    H256660   2.660   3.705   0.129 -1.8007  3.0269  0.2731
11749TIP3   OH256661   0.376   4.143   4.557  0.2378  0.3577  0.4346
11749TIP3    H156662   0.425   4.063   4.577 -2.0328 -1.4488 -0.6822
11749TIP3    H256663   0.291   4.131   4.600 -0.0809  2.2994  0.4392
11750TIP3   OH256664   2.842   2.646   5.576  0.0166 -0.2555 -0.0393
11750TIP3    H156665   2.852   2.557   5.542 -1.5949 -0.6046  0.3146
11750TIP3    H256666   2.774   2.638   5.642 -0.3685  1.3030 -0.2255
11751TIP3   OH256667   1.616   6.515   6.252  0.1091 -0.0876  0.0249
11751TIP3    H156668   1.551   6.502   6.321  0.3648 -0.9094  0.1281
11751TIP3    H256669   1.694   6.471   6.286  0.9059  1.3712  0.1644
11752TIP3   OH256670   2.197   4.314  15.239 -0.6502  0.3306 -0.2633
11752TIP3    H156671   2.267   4.250  15.223 -1.8590 -0.6936 -1.7832
11752TIP3    H256672   2.241   4.399  15.233  0.7102 -0.3078  0.1718
11753TIP3   OH256673   5.615   4.644   3.727 -0.3358  0.3512 -0.2076
11753TIP3    H156674   5.680   4.594   3.677  0.4814 -0.1938  1.3139
11753TIP3    H256675   5.532   4.601   3.709  0.4425 -2.2006  1.6860
11754TIP3   OH256676   6.045   0.098   3.700 -0.3242 -0.1788  0.4555
11754TIP3    H156677   6.036   0.193   3.690 -0.6954 -0.2877 -0.3831
11754TIP3    H256678   6.134   0.085   3.734 -0.9757  0.5661  2.5528
11755TIP3   OH256679   4.356   3.079   3.467 -0.2402  0.4677 -0.3869
11755TIP3    H156680   4.366   3.130   3.547 -2.3147  0.2419  0.0598
11755TIP3    H256681   4.370   2.988   3.494 -0.2671  0.4546 -0.4167
11756TIP3   OH256682   0.382   4.502  12.879 -0.4317  0.2371 -0.3128
11756TIP3    H156683   0.371   4.587  12.922  0.3021  0.1950 -0.0303
11756TIP3    H256684   0.426   4.447  12.944 -0.6755 -0.2872 -0.5790
11757TIP3   OH256685   0.965   6.120   0.603  0.5619 -0.3629  0.1406
11757TIP3    H156686   0.926   6.034   0.589  0.6390 -0.6983  1.8044
11757TIP3    H256687   1.047   6.117   0.553  0.4534 -1.1751 -0.0029
11758TIP3   OH256688   4.187   6.276   5.506 -0.6245  0.2393  0.0027
11758TIP3    H156689   4.110   6.269   5.563  0.0969 -0.8214  0.8960
11758TIP3    H256690   4.159   6.236   5.423 -1.3565  0.8207 -0.0387
11759TIP3   OH256691   2.582   5.479  16.338 -0.6046  0.4640  0.2146
11759TIP3    H156692   2.582   5.445  16.428 -1.7660 -0.3216 -0.0537
11759TIP3    H256693   2.598   5.402  16.283 -0.3382  0.8617 -0.2712
11760TIP3   OH256694   2.015   2.183   3.271 -0.1434 -0.6905 -0.5487
11760TIP3    H156695   1.919   2.181   3.275 -0.2023 -0.3509 -1.4773
11760TIP3    H256696   2.036   2.152   3.183  0.5072  1.1736 -1.0820
11761TIP3   OH256697   6.598   4.463   5.986 -0.3900  0.3545 -0.2468
11761TIP3    H156698   6.563   4.481   5.899  0.9455  1.2249 -0.6418
11761TIP3    H256699   6.547   4.518   6.046 -0.5369  0.6396 -0.6322
11762TIP3   OH256700   0.058   2.456   4.161  0.5132 -0.2870  0.1892
11762TIP3    H156701   0.086   2.442   4.251  0.1714 -0.8458  0.2169
11762TIP3    H256702  -0.035   2.430   4.161  0.3053  0.4422 -0.1481
11763TIP3   OH256703   5.596   0.286  15.830  0.1044 -0.3836 -0.7065
11763TIP3    H156704   5.616   0.347  15.901 -1.2033 -1.3675  0.5810
11763TIP3    H256705   5.670   0.225  15.829  0.3600 -0.0804 -0.5099
11764TIP3   OH256706   5.446   5.156   0.271  0.2973  0.1543  0.2683
11764TIP3    H156707   5.464   5.119   0.184  0.7404  1.2840 -0.1422
11764TIP3    H256708   5.532   5.165   0.311  0.1165 -0.0770  0.7133
11765TIP3   OH256709   2.876   5.119  13.974  0.5148  0.1990 -0.1780
11765TIP3    H156710   2.905   5.042  13.926 -0.4825  0.0167 -0.5243
11765TIP3    H256711   2.956   5.159  14.008  0.9943 -1.6741  1.0689
11766TIP3   OH256712   0.451   2.204   4.467 -0.3375  0.5315 -0.0698
11766TIP3    H156713   0.449   2.110   4.488 -1.1332  0.6157  0.2652
11766TIP3    H256714   0.362   2.224   4.439 -0.2562  1.2581  0.1697
11767TIP3   OH256715   6.511   0.574  13.263  0.6299 -0.0801 -0.0251
11767TIP3    H156716   6.518   0.664  13.293 -2.6392  0.2769  0.0940
11767TIP3    H256717   6.486   0.525  13.342  1.0224 -0.8325 -0.3588
11768TIP3   OH256718   1.551   2.532  14.908  0.1328 -0.0210  0.1685
11768TIP3    H156719   1.533   2.536  14.815 -2.3557  0.8009  0.6097
11768TIP3    H256720   1.627   2.589  14.921 -0.6117  1.3416 -1.1507
11769TIP3   OH256721   5.691   2.678   1.088 -0.0695 -0.2403 -0.3040
11769TIP3    H156722   5.767   2.706   1.139 -0.0335  0.4214 -0.7079
11769TIP3    H256723   5.726   2.618   1.022  0.1680  0.3623 -0.7343
11770TIP3   OH256724   4.076   1.010   2.631  0.5355  0.0754  0.0147
11770TIP3    H156725   4.135   0.941   2.601  1.3858  0.0095  1.6771
11770TIP3    H256726   4.127   1.090   2.621  0.4233  0.1780  0.2591
11771TIP3   OH256727   1.195   1.550   4.596  0.0466 -0.6337  0.4006
11771TIP3    H156728   1.187   1.565   4.690 -0.6308 -0.0669  0.2551
11771TIP3    H256729   1.290   1.540   4.582  0.1040 -1.4252  1.2343
11772TIP3   OH256730   3.149   5.811   3.975  0.1467  0.1959 -0.1852
11772TIP3    H156731   3.214   5.819   4.045  0.6945  1.4195 -0.7985
11772TIP3    H256732   3.192   5.762   3.906 -0.7878 -2.0626  0.7313
11773TIP3   OH256733   3.389   1.749  14.325 -0.0751  0.5034 -0.2228
11773TIP3    H156734   3.315   1.688  14.320  0.7895 -0.7484  1.0913
11773TIP3    H256735   3.353   1.834  14.303 -2.0691  0.0380  1.0169
11774TIP3   OH256736   1.384   2.183  16.939  0.0417 -0.5335 -0.0919
11774TIP3    H156737   1.311   2.163  16.998  0.8846  0.6490  1.4208
11774TIP3    H256738   1.445   2.110  16.949 -0.8543 -1.5094 -1.3359
11775TIP3   OH256739   6.289   0.420   5.655 -0.4044  0.1865 -0.1088
11775TIP3    H156740   6.199   0.418   5.622 -0.3132 -0.8990 -0.3302
11775TIP3    H256741   6.279   0.415   5.750 -0.5657 -1.3132 -0.1808
11776TIP3   OH256742   4.433   3.004  11.349 -0.3700 -0.3469 -0.7909
11776TIP3    H156743   4.494   3.077  11.338  0.1814 -0.6758 -0.0024
11776TIP3    H256744   4.486   2.933  11.385 -1.6452  0.2152  2.6964
11777TIP3   OH256745   0.718   3.030   5.602 -0.2116 -0.1551 -0.0181
11777TIP3    H156746   0.669   3.098   5.649 -0.7423  0.3517 -1.2678
11777TIP3    H256747   0.652   2.985   5.549  0.5250 -0.0743 -1.0175
11778TIP3   OH256748   4.052   6.171   2.281  0.5814  0.2433 -0.5262
11778TIP3    H156749   4.037   6.209   2.195 -0.6427  0.4717 -0.2315
11778TIP3    H256750   3.983   6.106   2.292 -0.0569  1.0758  0.7571
11779TIP3   OH256751   5.259   5.419   2.726  0.3652 -0.6131 -0.0629
11779TIP3    H156752   5.241   5.390   2.636 -1.3228  0.8531 -0.2510
11779TIP3    H256753   5.353   5.407   2.737  0.6244 -0.7320 -2.0614
11780TIP3   OH256754   3.229   1.520  14.358  0.5341  0.4528 -0.3723
11780TIP3    H156755   3.276   1.437  14.365 -0.1100 -0.2784 -3.2328
11780TIP3    H256756   3.147   1.506  14.404  0.4422 -0.5011 -0.8092
11781TIP3   OH256757   0.017   5.576  11.536 -0.6811  0.3062 -0.0758
11781TIP3    H156758   0.039   5.650  11.592 -1.4865 -0.2730  1.0481
11781TIP3    H256759  -0.071   5.550  11.564 -0.3155 -1.2334 -0.2752
11782TIP3   OH256760   5.185   1.440   4.517  0.1966  0.0779 -0.0634
11782TIP3    H156761   5.160   1.455   4.608  2.5425 -1.9847  1.0401
11782TIP3    H256762   5.159   1.349   4.500  0.8283  0.0650 -1.0206
11783TIP3   OH256763   1.092   2.011  14.393  0.2025  0.2241  0.6512
11783TIP3    H156764   1.099   1.917  14.380  0.7783  0.5404 -2.1037
11783TIP3    H256765   1.180   2.037  14.423  0.9482  0.1490 -1.2979
11784TIP3   OH256766   4.181   4.743  12.740  0.3211  0.1066 -0.6517
11784TIP3    H156767   4.195   4.821  12.794  0.8543  0.2056 -0.9259
11784TIP3    H256768   4.228   4.762  12.659  0.1949 -0.3781 -0.8380
11785TIP3   OH256769   5.983   3.413   5.158 -0.3956 -0.6625  0.0319
11785TIP3    H156770   6.062   3.454   5.194 -1.4146  1.3048  0.1300
11785TIP3    H256771   6.017   3.340   5.106  1.3840 -0.7995  1.2722
11786TIP3   OH256772   5.496   0.406  14.427 -0.1441  0.1394 -0.1227
11786TIP3    H156773   5.493   0.351  14.348  0.4272 -0.0701 -0.0072
11786TIP3    H256774   5.405   0.410  14.457 -0.0009 -2.1440  0.8012
11787TIP3   OH256775   0.429   3.729   0.912  0.3327  0.1239 -0.3788
11787TIP3    H156776   0.504   3.764   0.959  0.8009  0.6614 -1.4849
11787TIP3    H256777   0.465   3.658   0.859  0.5278  1.6571 -2.4612
11788TIP3   OH256778   0.190   0.157  14.083  0.0823  0.3211  0.0367
11788TIP3    H156779   0.239   0.131  14.005 -0.4072  2.1932 -0.9535
11788TIP3    H256780   0.103   0.117  14.071  0.1188  0.3110 -0.1924
11789TIP3   OH256781   5.892   5.849  14.277  0.6144 -0.0197  0.2253
11789TIP3    H156782   5.911   5.846  14.183  1.0969  3.0350  0.1367
11789TIP3    H256783   5.806   5.889  14.283 -0.0141 -1.4183  1.1079
11790TIP3   OH256784   4.697   0.767   1.164  0.1030  0.0534 -0.1573
11790TIP3    H156785   4.729   0.857   1.152  1.0923 -0.2965 -0.1944
11790TIP3    H256786   4.627   0.758   1.100  0.7014  0.4623 -0.8806
11791TIP3   OH256787   2.433   4.815  13.282  0.8198  0.3534  0.3110
11791TIP3    H156788   2.519   4.858  13.284  1.6979 -1.1586 -1.6016
11791TIP3    H256789   2.447   4.736  13.229 -1.0366 -1.5881  2.5160
11792TIP3   OH256790   2.573   2.598   5.724 -0.4262 -0.1301  0.1351
11792TIP3    H156791   2.556   2.691   5.708 -1.6367 -0.3034  0.3371
11792TIP3    H256792   2.590   2.593   5.818  1.9427  0.1960 -0.2236
11793TIP3   OH256793   0.500   4.492  13.626  0.1927 -0.1174 -0.1404
11793TIP3    H156794   0.555   4.415  13.639 -0.6577 -0.3916  2.5065
11793TIP3    H256795   0.562   4.564  13.614  1.0237 -0.8916 -0.6416
11794TIP3   OH256796   6.687   0.116   4.286 -0.5181 -0.5006  0.0457
11794TIP3    H156797   6.731   0.187   4.239  0.2797 -0.1751  1.2220
11794TIP3    H256798   6.614   0.159   4.331 -2.0198 -1.0100 -1.7635
11795TIP3   OH256799   3.711   3.898   5.947 -0.6149  0.8972 -0.1648
11795TIP3    H156800   3.671   3.848   5.876  0.7676  0.5615 -0.7400
11795TIP3    H256801   3.804   3.898   5.927 -0.1626  0.6569  1.7336
11796TIP3   OH256802   0.782   2.806  11.761 -0.4907  0.0444  0.3567
11796TIP3    H156803   0.738   2.821  11.678  0.1149  1.8221  0.3057
11796TIP3    H256804   0.744   2.871  11.820 -0.4993 -0.8059  1.3253
11797TIP3   OH256805   3.018   4.443   4.333  0.2515 -0.6035  0.2386
11797TIP3    H156806   3.056   4.497   4.263 -3.1565 -0.0609 -1.4124
11797TIP3    H256807   3.015   4.501   4.409  1.1853 -0.1592 -0.0470
11798TIP3   OH256808   6.467   0.582   0.145 -0.2551 -0.1984  0.3037
11798TIP3    H156809   6.425   0.592   0.059 -1.7118  0.3681  1.0525
11798TIP3    H256810   6.406   0.528   0.195  0.4898 -0.3500  1.0638
11799TIP3   OH256811   2.530   1.836  10.350 -0.0736 -0.2808 -0.0208
11799TIP3    H156812   2.614   1.795  10.367 -0.6526 -0.7118  2.0852
11799TIP3    H256813   2.549   1.930  10.349  0.6541 -0.4211 -1.1430
11800TIP3   OH256814   6.419   1.191  12.180  0.5688  0.1716  0.1182
11800TIP3    H156815   6.482   1.236  12.124  0.6123  0.2386  0.2239
11800TIP3    H256816   6.344   1.176  12.122 -0.3491  2.3327  0.6635
11801TIP3   OH256817   3.995   5.862   2.023  0.8444  0.6586 -0.0587
11801TIP3    H156818   4.076   5.889   2.068  1.6360 -1.6152 -0.0102
11801TIP3    H256819   3.958   5.944   1.990  2.1745  1.9830  1.5364
11802TIP3   OH256820   2.915   0.341  13.082  0.5041  0.0069  0.3125
11802TIP3    H156821   2.988   0.288  13.113  0.9641 -0.1316 -0.9533
11802TIP3    H256822   2.949   0.430  13.079  0.3792  0.0606  0.4231
11803TIP3   OH256823   1.637   2.117   6.409 -0.0902 -0.0346  0.5942
11803TIP3    H156824   1.658   2.189   6.350  1.6617 -0.7721  0.2674
11803TIP3    H256825   1.634   2.157   6.496 -1.6367  0.8630  0.1644
11804TIP3   OH256826   0.638   6.318  13.084 -0.1738 -0.5936  0.1001
11804TIP3    H156827   0.675   6.329  13.171 -0.7631 -0.7677  0.3740
11804TIP3    H256828   0.711   6.287  13.031  0.6910  1.3297  0.0765
11805TIP3   OH256829   6.482   1.262   3.561 -0.7402  1.0156 -0.2496
11805TIP3    H156830   6.436   1.178   3.569 -0.0900  0.7069  0.4260
11805TIP3    H256831   6.558   1.242   3.506  0.0635  0.8600  0.8759
11806TIP3   OH256832   3.949   2.241   2.388  0.5020 -0.2999 -0.4663
11806TIP3    H156833   3.889   2.315   2.395 -0.8962 -1.5173  1.5316
11806TIP3    H256834   3.895   2.170   2.354  0.2558 -1.8051  2.6455
11807TIP3   OH256835   6.149   5.851  17.257 -0.1197  0.4001 -0.5636
11807TIP3    H156836   6.104   5.838  17.340  0.2713  1.1967 -0.2158
11807TIP3    H256837   6.085   5.897  17.202 -0.4663 -0.3466 -0.7994
11808TIP3   OH256838   6.221   6.334   4.401 -0.4284 -0.1918 -0.1826
11808TIP3    H156839   6.151   6.272   4.422  0.0766  0.2125  3.2844
11808TIP3    H256840   6.188   6.418   4.429  0.3427  0.5477 -1.3802
11809TIP3   OH256841   0.062   6.341  11.234 -0.1913  0.2439 -0.2643
11809TIP3    H156842   0.052   6.436  11.239 -2.0608  0.1393 -1.2432
11809TIP3    H256843   0.003   6.307  11.302  0.9538 -0.2324  0.5284
11810TIP3   OH256844   4.013   2.138  15.592 -0.2514 -0.1536  0.8260
11810TIP3    H156845   4.078   2.073  15.619 -0.1263 -0.3338  0.1133
11810TIP3    H256846   3.978   2.173  15.674  0.0283 -0.7720  1.2151
11811TIP3   OH256847   5.293   0.252  14.033 -0.2519  0.7204  0.0185
11811TIP3    H156848   5.287   0.262  13.938  1.3266 -0.8469 -0.3016
11811TIP3    H256849   5.278   0.159  14.049 -0.1227  0.8878  1.2666
11812TIP3   OH256850   5.630   2.416   5.095  0.0768 -0.1767  0.4240
11812TIP3    H156851   5.543   2.409   5.057  1.2447  1.1635 -2.8866
11812TIP3    H256852   5.645   2.510   5.103  1.1064 -0.3954  1.2232
11813TIP3   OH256853   1.549   4.670   1.023 -0.1322  0.5313  0.4118
11813TIP3    H156854   1.628   4.714   0.992  0.3606  1.6406  2.9669
11813TIP3    H256855   1.478   4.732   1.008 -0.1501  0.4418  0.1276
11814TIP3   OH256856   0.987   4.981   3.789  0.0401  0.3346 -0.0615
11814TIP3    H156857   1.044   5.057   3.798 -0.5165  0.7875 -0.3524
11814TIP3    H256858   0.919   4.993   3.854 -0.0188  0.0571 -0.0712
11815TIP3   OH256859   3.512   6.076  14.861 -0.2495 -0.0831  0.4608
11815TIP3    H156860   3.584   6.036  14.910  0.9493  0.5218 -0.7488
11815TIP3    H256861   3.504   6.164  14.897  0.4283  0.2578 -0.2099
11816TIP3   OH256862   2.498   2.988  14.565 -0.1685 -0.4561  0.0655
11816TIP3    H156863   2.558   3.055  14.532 -0.9483  0.2682  0.0824
11816TIP3    H256864   2.481   2.932  14.489 -0.1361 -0.1582 -0.1646
11817TIP3   OH256865   6.454   2.906   2.552 -0.1447  0.3252 -0.1547
11817TIP3    H156866   6.421   2.990   2.583  0.9028  0.3865  0.8748
11817TIP3    H256867   6.514   2.877   2.621 -1.1126 -1.6803 -0.0711
11818TIP3   OH256868   6.751   4.771  15.268 -0.5031  0.4180 -0.2762
11818TIP3    H156869   6.696   4.703  15.229 -1.3311 -0.6268  2.4877
11818TIP3    H256870   6.714   4.785  15.355  2.1537  1.4452  0.7909
11819TIP3   OH256871   1.350   1.451  12.019 -0.3675  0.4603  0.6038
11819TIP3    H156872   1.433   1.445  11.972 -0.3119  0.8537  0.6475
11819TIP3    H256873   1.323   1.361  12.032 -0.7917  0.3543 -0.9038
11820TIP3   OH256874   5.349   6.365  11.639  0.1492  0.0075 -0.6739
11820TIP3    H156875   5.432   6.378  11.592 -0.8003  1.3201 -2.0997
11820TIP3    H256876   5.305   6.295  11.592 -0.4198  0.7203 -1.2328
11821TIP3   OH256877   1.724   3.535  14.426  0.0765 -0.1685 -0.1849
11821TIP3    H156878   1.733   3.472  14.498 -0.3230 -0.7230 -0.6046
11821TIP3    H256879   1.729   3.481  14.347  0.3986  0.4197 -0.5725
11822TIP3   OH256880   4.247   2.111  12.195 -0.2103  0.2069  0.3607
11822TIP3    H156881   4.273   2.140  12.282  1.9203 -2.1085  0.6124
11822TIP3    H256882   4.299   2.165  12.135 -1.4697  1.6060  0.4745
11823TIP3   OH256883   0.033   0.406   0.051 -0.1491  0.2227 -0.1788
11823TIP3    H156884  -0.031   0.378   0.116 -0.2973 -0.0851 -0.4553
11823TIP3    H256885   0.097   0.457   0.101 -0.1243 -0.2250  0.2501
11824TIP3   OH256886   2.376   3.060  17.197 -0.0598 -0.3152  0.2864
11824TIP3    H156887   2.327   3.112  17.261 -0.8429 -0.8442  0.1266
11824TIP3    H256888   2.310   3.029  17.136  0.8224  1.3307 -1.6128
11825TIP3   OH256889   4.424   5.726  15.758 -0.2816 -0.1355 -0.1541
11825TIP3    H156890   4.404   5.717  15.664 -1.9595  0.3217  0.1272
11825TIP3    H256891   4.401   5.642  15.795  0.4718 -0.3460 -0.1604
11826TIP3   OH256892   5.833   1.100   2.150  0.1093 -0.2207 -0.4569
11826TIP3    H156893   5.801   1.022   2.196 -0.4326  0.3253  0.0987
11826TIP3    H256894   5.830   1.170   2.215 -0.5869  0.5534 -1.2841
11827TIP3   OH256895   4.587   0.624  14.080 -0.1497 -0.2446 -0.9881
11827TIP3    H156896   4.518   0.638  14.014  0.4192  1.4834 -1.2463
11827TIP3    H256897   4.660   0.588  14.030 -0.5794 -1.4084 -0.8274
11828TIP3   OH256898   1.078   0.263  15.579  0.4800  0.2395  0.1910
11828TIP3    H156899   1.091   0.176  15.616 -2.5057 -0.3343  0.1817
11828TIP3    H256900   1.135   0.266  15.503  0.4334 -1.8329  0.0308
11829TIP3   OH256901   2.070   0.530  14.121 -0.4225  0.2372  0.5964
11829TIP3    H156902   2.070   0.609  14.176 -0.3382 -0.8281  2.1855
11829TIP3    H256903   2.105   0.462  14.178  1.0218 -0.6356 -1.2413
11830TIP3   OH256904   1.484   6.709   0.726  0.6391 -0.0440  0.5669
11830TIP3    H156905   1.546   6.734   0.657  0.3109  2.0043  0.9586
11830TIP3    H256906   1.513   6.756   0.803 -1.2704  0.8320  0.8094
11831TIP3   OH256907   5.743   4.331   1.901 -0.1088 -0.0977 -0.5231
11831TIP3    H156908   5.744   4.369   1.813 -0.7179 -0.8551 -0.8718
11831TIP3    H256909   5.666   4.369   1.943  0.2936  0.4157 -0.2401
11832TIP3   OH256910   1.494   5.317  16.069  0.1126 -0.1336 -1.0103
11832TIP3    H156911   1.446   5.246  16.026  1.4725 -1.1927 -0.8339
11832TIP3    H256912   1.562   5.341  16.007 -0.8219  1.6392 -1.4244
11833TIP3   OH256913   0.483   5.522   5.901 -0.1954 -0.2226  0.3938
11833TIP3    H156914   0.450   5.598   5.853 -1.3440  0.3327  1.9918
11833TIP3    H256915   0.454   5.535   5.991  1.2348 -1.6104  1.1198
11834TIP3   OH256916   5.608   6.548  15.254  0.0758  0.1036  0.1903
11834TIP3    H156917   5.536   6.593  15.208 -0.5648 -0.9369  0.1356
11834TIP3    H256918   5.687   6.584  15.215 -0.3975  1.4834  0.4370
11835TIP3   OH256919   0.797   5.131   3.587  0.4879  0.5788 -0.1646
11835TIP3    H156920   0.875   5.076   3.585 -0.3414 -0.7496  1.7887
11835TIP3    H256921   0.788   5.157   3.678 -1.2942  0.7850 -0.3638
11836TIP3   OH256922   1.943   6.111   0.872  0.1258 -0.0007 -0.4907
11836TIP3    H156923   1.936   6.018   0.891 -0.7896  0.0880 -0.3837
11836TIP3    H256924   1.868   6.151   0.915  0.7464  0.8551 -0.1671
11837TIP3   OH256925   5.749   5.361  10.846  0.5380 -0.2850 -0.1894
11837TIP3    H156926   5.656   5.380  10.856  0.3205 -0.7715 -1.1792
11837TIP3    H256927   5.755   5.266  10.857  0.6937 -0.4559 -1.6164
11838TIP3   OH256928   4.116   6.038   4.858  0.1358 -0.2487 -0.7272
11838TIP3    H156929   4.089   6.092   4.932 -0.0658 -1.8371  0.4138
11838TIP3    H256930   4.211   6.039   4.860  0.1604  0.9446 -1.4179
11839TIP3   OH256931   1.338   5.913  16.660  0.0822 -0.0861  0.4385
11839TIP3    H156932   1.390   5.849  16.612  0.0435  0.1435  0.0844
11839TIP3    H256933   1.383   5.996  16.646 -1.4206  0.4805 -1.5388
11840TIP3   OH256934   0.612   5.282   2.676 -0.6089  0.4125 -0.4056
11840TIP3    H156935   0.625   5.189   2.692 -0.5234  0.5149  0.1472
11840TIP3    H256936   0.572   5.315   2.757  1.0459  1.2127  0.1356
11841TIP3   OH256937   1.755   2.577   1.303 -0.1592  0.2891  0.0838
11841TIP3    H156938   1.686   2.538   1.357 -0.1811 -0.1344 -0.2445
11841TIP3    H256939   1.708   2.624   1.235 -0.1275  0.1984 -0.0011
11842TIP3   OH256940   5.081   2.657  11.572 -0.1666 -0.2052 -0.4378
11842TIP3    H156941   5.097   2.590  11.505 -0.9645  0.0784 -0.9356
11842TIP3    H256942   5.167   2.679  11.605  0.1172 -1.4136 -0.3339
11843TIP3   OH256943   5.706   1.276   6.158  0.3778 -0.3303 -0.4761
11843TIP3    H156944   5.669   1.291   6.072  1.9514  1.8996 -0.8821
11843TIP3    H256945   5.784   1.223   6.142  0.7612  0.2218 -0.4711
11844TIP3   OH256946   3.259   3.624   1.836  0.7188  0.3916  0.6242
11844TIP3    H156947   3.222   3.564   1.900  0.0563 -1.2456 -1.1708
11844TIP3    H256948   3.187   3.684   1.815  1.3735  1.8919  2.4002
11845TIP3   OH256949   5.252   6.659   4.396  0.1512  0.1687  0.4272
11845TIP3    H156950   5.290   6.718   4.331  0.9834  0.9208  1.5507
11845TIP3    H256951   5.271   6.571   4.363  0.5010  0.5385 -0.3685
11846TIP3   OH256952   2.323   2.912   2.149 -0.5037 -0.1616 -0.4852
11846TIP3    H156953   2.344   2.836   2.095  0.3185 -1.8414  1.9990
11846TIP3    H256954   2.228   2.914   2.153 -0.5521 -0.4274 -1.4053
11847TIP3   OH256955   2.473   1.811   0.872  0.5248 -0.1555 -0.2252
11847TIP3    H156956   2.410   1.753   0.914  0.8627  1.0117  2.0394
11847TIP3    H256957   2.540   1.753   0.836 -0.1371 -1.2425  0.2640
11848TIP3   OH256958   6.754   2.299   2.663 -0.0310  0.2212 -0.3594
11848TIP3    H156959   6.684   2.271   2.722  2.2764 -0.2661  2.3512
11848TIP3    H256960   6.756   2.395   2.673 -1.0120  0.3664 -1.3633
11849TIP3   OH256961   1.966   0.640   3.680 -0.0803  0.8878 -0.1032
11849TIP3    H156962   1.995   0.620   3.768 -0.9057 -2.8107 -0.5001
11849TIP3    H256963   1.955   0.735   3.679  1.0621  1.1880  3.3642
11850TIP3   OH256964   4.394   0.319  11.776  0.7361 -0.1867  0.7027
11850TIP3    H156965   4.306   0.356  11.765 -0.6292 -3.3881 -0.4731
11850TIP3    H256966   4.451   0.378  11.728 -1.0628  0.9807 -0.1262
11851TIP3   OH256967   4.944   1.436  12.450 -0.3785 -0.7499  0.1316
11851TIP3    H156968   5.029   1.401  12.426  0.0027  0.0112  0.3323
11851TIP3    H256969   4.881   1.370  12.421  0.3182 -1.6221  0.5878
11852TIP3   OH256970   6.305   5.943  12.894 -0.1534  0.7548  0.1338
11852TIP3    H156971   6.341   5.972  12.811 -2.2659 -0.3981 -1.2653
11852TIP3    H256972   6.228   5.997  12.908 -1.7694 -1.2825 -0.4348
11853TIP3   OH256973   0.920   3.252  11.738 -0.0071 -0.0671  0.2618
11853TIP3    H156974   0.947   3.178  11.792  1.4748  0.1451 -0.1484
11853TIP3    H256975   1.001   3.300  11.721 -0.8719  1.4215  0.1728
11854TIP3   OH256976   4.825   3.409  17.222 -0.3927  0.0217  0.6038
11854TIP3    H156977   4.900   3.468  17.224 -0.4463  0.2016 -1.1622
11854TIP3    H256978   4.808   3.395  17.129 -2.4399 -0.1644  0.9611
11855TIP3   OH256979   5.708   3.872  14.520  0.4462  0.2350  0.1170
11855TIP3    H156980   5.630   3.841  14.475  0.7232  1.2286 -1.0831
11855TIP3    H256981   5.764   3.907  14.451  0.6813  2.2488  1.2471
11856TIP3   OH256982   3.826   4.390  13.299  0.3950 -0.0848  0.0851
11856TIP3    H156983   3.823   4.416  13.391  0.7643 -0.7145  0.2846
11856TIP3    H256984   3.915   4.359  13.286  0.2183 -0.4177 -0.3640
11857TIP3   OH256985   5.379   5.821   0.183  0.2164  0.5651  0.3525
11857TIP3    H156986   5.335   5.745   0.143  0.9069  0.1934  0.2919
11857TIP3    H256987   5.308   5.868   0.228 -0.4128  0.4971 -0.5423
11858TIP3   OH256988   4.703   0.087   3.787 -0.1473  0.1844 -0.5651
11858TIP3    H156989   4.609   0.093   3.771 -0.0975 -0.1612 -1.0157
11858TIP3    H256990   4.713   0.100   3.881 -0.8026 -1.3160 -0.2611
11859TIP3   OH256991   3.643   1.772   3.169  0.0069 -0.1679 -0.0327
11859TIP3    H156992   3.587   1.806   3.239  0.6372  0.6496  0.0801
11859TIP3    H256993   3.692   1.848   3.137  0.2104 -0.6544 -0.9206
11860TIP3   OH256994   4.423   3.470  12.963 -0.1304 -0.1624 -0.0383
11860TIP3    H156995   4.469   3.458  12.880 -0.4240 -0.2264 -0.1968
11860TIP3    H256996   4.340   3.512  12.938 -1.2507 -2.2440 -0.0943
11861TIP3   OH256997   1.446   5.853  17.019  0.0978  0.1126  0.6936
11861TIP3    H156998   1.426   5.778  16.962 -0.6087  0.6996  0.1493
11861TIP3    H256999   1.361   5.880  17.053  0.4986 -0.1401  1.9337
11862TIP3   OH257000   4.019   2.269   3.201  0.1517 -0.0083  0.1346
11862TIP3    H157001   4.103   2.293   3.162 -0.2403 -1.0713 -1.4903
11862TIP3    H257002   4.012   2.322   3.280  0.9343  2.4174 -1.3260
11863TIP3   OH257003   0.897   6.161   5.303  0.1173 -0.5181 -0.0564
11863TIP3    H157004   0.959   6.231   5.282 -0.2491  0.5315  2.1094
11863TIP3    H257005   0.945   6.080   5.283  0.7210  0.2969 -2.1507
11864TIP3   OH257006   2.889   4.166   5.393  0.1956  0.0718 -0.0562
11864TIP3    H157007   2.977   4.127   5.396  0.4508  0.6742  0.4290
11864TIP3    H257008   2.895   4.242   5.451 -0.6299  0.1542 -0.0782
11865TIP3   OH257009   2.730   4.383   4.822  0.4885  0.3870  0.3167
11865TIP3    H157010   2.729   4.373   4.727 -1.0883  1.2249  0.2038
11865TIP3    H257011   2.812   4.343   4.850  1.0154  0.1944 -1.3988
11866TIP3   OH257012   6.122   2.277  16.276  0.1931  0.2798  0.5297
11866TIP3    H157013   6.070   2.203  16.307  0.2106  1.0200  2.4839
11866TIP3    H257014   6.137   2.259  16.183 -1.8026 -0.9591  0.3947
11867TIP3   OH257015   2.660   5.718   1.215  0.5859 -0.3136 -0.2506
11867TIP3    H157016   2.604   5.704   1.292 -0.6945  0.3267 -1.0377
11867TIP3    H257017   2.599   5.719   1.141  1.8927 -1.7610 -1.3852
11868TIP3   OH257018   1.936   2.714   3.843 -0.3031  1.0265 -0.0249
11868TIP3    H157019   1.868   2.728   3.777 -1.6240  2.9672  1.6104
11868TIP3    H257020   1.899   2.647   3.901  0.3595  0.1706 -0.5612
11869TIP3   OH257021   0.908   2.714  13.797 -0.2669  0.0454  0.5687
11869TIP3    H157022   0.933   2.806  13.783  0.7425 -0.4355 -0.9476
11869TIP3    H257023   0.920   2.672  13.712 -0.3035 -1.5995  1.3398
11870TIP3   OH257024   1.238   1.085  11.247  0.1319  0.1375 -0.3731
11870TIP3    H157025   1.250   1.141  11.170  0.5337 -0.0047 -0.4164
11870TIP3    H257026   1.277   1.001  11.223  0.5588  0.1907  0.1009
11871TIP3   OH257027   4.612   2.035  11.039 -0.3676 -0.1954  0.2023
11871TIP3    H157028   4.573   2.089  10.970 -1.3354 -0.5149  0.4823
11871TIP3    H257029   4.587   2.079  11.120 -0.7539 -0.7917  0.4111
11872TIP3   OH257030   3.602   1.485   5.087 -0.0358 -0.1158 -0.2920
11872TIP3    H157031   3.657   1.430   5.143 -3.0378 -0.7167  2.3794
11872TIP3    H257032   3.647   1.569   5.084 -0.0790  0.3192  4.1267
11873TIP3   OH257033   0.764   5.335  15.358  0.3309 -0.2643  0.5835
11873TIP3    H157034   0.718   5.395  15.299  1.8792  0.0396 -0.3713
11873TIP3    H257035   0.770   5.253  15.309 -0.9181 -0.9258  1.4980
11874TIP3   OH257036   2.092   1.667  13.219 -0.7890  0.3554 -0.7141
11874TIP3    H157037   2.138   1.670  13.134  0.8062  1.8368  0.1476
11874TIP3    H257038   2.052   1.753  13.228 -1.0178  0.1788  0.0215
11875TIP3   OH257039   0.765   0.452  16.235 -0.3516 -0.2334  0.5052
11875TIP3    H157040   0.723   0.454  16.149 -0.8729 -2.4897  0.6552
11875TIP3    H257041   0.749   0.540  16.271 -2.0941  0.0291 -0.7826
11876TIP3   OH257042   1.047   5.381   4.207  0.8585 -0.0365 -0.2499
11876TIP3    H157043   1.075   5.332   4.130 -0.1607 -0.8037 -0.1520
11876TIP3    H257044   1.074   5.471   4.190  1.4874 -0.3679 -1.0694
11877TIP3   OH257045   1.359   0.369  11.724 -0.2986 -0.2600  0.2118
11877TIP3    H157046   1.397   0.369  11.635 -0.3659  0.5907  0.1679
11877TIP3    H257047   1.270   0.402  11.712 -1.1568 -2.4169  0.2971
11878TIP3   OH257048   2.320   1.300   6.229  0.3656 -0.6604  0.0246
11878TIP3    H157049   2.330   1.371   6.293 -0.0442 -0.5358 -0.0508
11878TIP3    H257050   2.382   1.322   6.159  0.0315 -0.2218 -0.1383
11879TIP3   OH257051   2.779   2.438   2.072  0.2868 -0.4085 -0.0726
11879TIP3    H157052   2.716   2.413   2.005 -0.6970  1.1969  0.2236
11879TIP3    H257053   2.736   2.506   2.123  1.6962 -0.3163  1.0827
11880TIP3   OH257054   3.655   4.766   0.989  0.7791  0.2037 -0.0787
11880TIP3    H157055   3.661   4.804   0.901 -0.5658  0.9705  0.1456
11880TIP3    H257056   3.579   4.707   0.984 -0.1783  1.3008  0.9299
11881TIP3   OH257057   2.139   3.751   0.477 -0.6987  0.1042 -0.3025
11881TIP3    H157058   2.054   3.794   0.483 -1.8858 -1.7782 -2.0830
11881TIP3    H257059   2.139   3.687   0.549 -1.4431 -0.8565 -1.1247
11882TIP3   OH257060   2.469   3.143  12.881  0.5308  0.7367 -0.4244
11882TIP3    H157061   2.541   3.127  12.942 -0.1678 -1.1118  0.0043
11882TIP3    H257062   2.494   3.097  12.801 -0.4958 -0.6643  0.0148
11883TIP3   OH257063   0.144   2.162   4.469 -0.3084  0.4159 -0.6797
11883TIP3    H157064   0.166   2.130   4.557 -0.5074  2.7654  0.3081
11883TIP3    H257065   0.097   2.089   4.428 -1.8749 -0.1560  1.8764
11884TIP3   OH257066   0.684   4.236  13.185 -0.3997 -0.3839  0.1423
11884TIP3    H157067   0.703   4.151  13.145  1.6550 -0.0164  0.2477
11884TIP3    H257068   0.751   4.247  13.252 -0.4628  1.4341 -0.0373
11885TIP3   OH257069   5.027   0.995  14.415 -0.3336 -0.1691 -0.0663
11885TIP3    H157070   5.062   0.986  14.504  0.3036  2.0400 -0.0345
11885TIP3    H257071   4.943   0.949  14.417 -0.8175  0.7040  1.9869
11886TIP3   OH257072   1.350   2.244  14.096  0.3140  0.3433 -0.1199
11886TIP3    H157073   1.349   2.149  14.106  0.3927  0.3153 -0.3696
11886TIP3    H257074   1.276   2.275  14.148 -0.8038  0.0041 -1.4511
11887TIP3   OH257075   5.107   4.158   5.649  0.0669 -0.3900 -0.3487
11887TIP3    H157076   5.098   4.139   5.556 -1.2766 -0.4322 -0.2235
11887TIP3    H257077   5.195   4.196   5.657 -0.0627  0.2688 -1.7339
11888TIP3   OH257078   3.030   3.122  11.893 -0.2625  0.7474 -0.0607
11888TIP3    H157079   2.989   3.042  11.861 -0.0939  0.1399  1.1473
11888TIP3    H257080   3.040   3.178  11.816  0.0832 -0.6052 -1.0290
11889TIP3   OH257081   3.968   4.354  15.461 -0.0985 -0.5255 -0.1146
11889TIP3    H157082   3.998   4.374  15.549  0.1210  0.4405 -0.3926
11889TIP3    H257083   4.049   4.347  15.409 -0.1967 -1.5596 -0.1647
11890TIP3   OH257084   3.160   2.671   2.918  0.1807 -0.1876 -0.2914
11890TIP3    H157085   3.165   2.654   3.012 -0.0626  2.0038  0.1619
11890TIP3    H257086   3.243   2.715   2.897 -0.6458  1.2685 -0.6393
11891TIP3   OH257087   4.298   1.439   4.551 -0.4912  0.4355  0.0037
11891TIP3    H157088   4.215   1.464   4.592  0.0381  2.0700  0.1719
11891TIP3    H257089   4.365   1.463   4.616  0.0931 -2.0715  0.4363
11892TIP3   OH257090   3.515   2.526   3.584  0.0812 -0.4216  0.3136
11892TIP3    H157091   3.540   2.554   3.496  1.8961  0.9115  1.1825
11892TIP3    H257092   3.533   2.432   3.585  1.1394 -0.2442 -0.4092
11893TIP3   OH257093   2.206   4.423   3.747 -0.1440  0.2114  0.5678
11893TIP3    H157094   2.127   4.392   3.791 -0.7894 -0.4972 -1.0098
11893TIP3    H257095   2.193   4.398   3.656  1.3705  1.1745  0.0646
11894TIP3   OH257096   2.022   6.393   3.697  0.4507 -0.1366  0.3593
11894TIP3    H157097   2.064   6.429   3.619  0.4687 -0.3000  0.2937
11894TIP3    H257098   1.938   6.439   3.703  1.4479  1.6409  1.5911
11895TIP3   OH257099   3.358   1.701  11.431 -0.6165  0.5913 -0.2605
11895TIP3    H157100   3.413   1.754  11.488 -0.5866 -0.0928  0.3555
11895TIP3    H257101   3.312   1.641  11.490 -1.2025  0.4241 -0.8729
11896TIP3   OH257102   3.807   0.838   4.893  0.0538  0.3797 -0.1289
11896TIP3    H157103   3.718   0.805   4.902 -0.1051  0.4427 -1.3737
11896TIP3    H257104   3.826   0.879   4.977 -1.5730  1.5424 -0.2941
11897TIP3   OH257105   5.513   4.829   3.913 -0.0297  0.2626  0.0365
11897TIP3    H157106   5.454   4.756   3.931  1.7346 -0.9333  1.3857
11897TIP3    H257107   5.576   4.795   3.850 -0.0238  1.0944 -0.4219
11898TIP3   OH257108   2.913   1.344   5.268  0.2498 -0.2682 -0.0444
11898TIP3    H157109   2.894   1.397   5.190  1.0494 -1.0838 -0.8072
11898TIP3    H257110   2.993   1.383   5.304  0.7689 -0.8638 -0.5361
11899TIP3   OH257111   4.036   3.318   1.148 -0.2762 -0.0737  0.2302
11899TIP3    H157112   4.121   3.334   1.108 -0.0548 -0.7021  0.4291
11899TIP3    H257113   4.054   3.255   1.218 -0.6136  1.1291  1.4647
11900TIP3   OH257114   4.770   4.373  15.864  0.0903 -0.4145 -0.9302
11900TIP3    H157115   4.712   4.304  15.832  0.9479 -0.8407 -1.5881
11900TIP3    H257116   4.713   4.429  15.917 -0.9880 -0.6815 -1.7690
11901TIP3   OH257117   6.753   1.740   0.555 -0.4055 -0.2048 -0.0899
11901TIP3    H157118   6.794   1.683   0.620 -0.5386 -2.8392 -2.1111
11901TIP3    H257119   6.795   1.715   0.472 -0.6045  2.6133 -1.1446
11902TIP3   OH257120   4.313   3.260  14.298 -0.0118  0.3322  0.0772
11902TIP3    H157121   4.328   3.201  14.224  0.4588  0.6414 -0.0749
11902TIP3    H257122   4.359   3.340  14.276 -1.9575  1.3791 -0.4404
11903TIP3   OH257123   5.241   4.924  16.885 -0.1748  0.1091 -0.1576
11903TIP3    H157124   5.184   4.992  16.848 -0.6706  0.1531  0.6548
11903TIP3    H257125   5.305   4.972  16.937  0.2632  0.0233 -0.6108
11904TIP3   OH257126   3.693   3.535  14.289  0.1530 -0.0822 -0.2197
11904TIP3    H157127   3.767   3.596  14.284 -0.3249  0.6928  1.3389
11904TIP3    H257128   3.732   3.451  14.313  0.7527 -0.2481 -1.7319
11905TIP3   OH257129   2.080   6.645  14.457 -0.1807 -0.2827  0.5829
11905TIP3    H157130   2.104   6.563  14.499  1.2506 -0.3471 -0.3283
11905TIP3    H257131   2.148   6.707  14.483  0.2329 -0.0889 -0.8944
11906TIP3   OH257132   5.376   5.914   5.566 -0.7236  0.0570 -0.5100
11906TIP3    H157133   5.452   5.932   5.510 -0.1401 -1.0758 -0.1212
11906TIP3    H257134   5.326   5.848   5.517 -0.0152 -1.2194  0.4163
11907TIP3   OH257135   1.154   5.569  12.050 -0.0800  0.2163 -0.1275
11907TIP3    H157136   1.140   5.520  12.131  0.9117 -0.6703 -0.4714
11907TIP3    H257137   1.111   5.653  12.066  3.5892  1.8333  3.0234
11908TIP3   OH257138   4.032   0.228  13.881 -0.5728 -0.1859 -0.0039
11908TIP3    H157139   3.985   0.268  13.808 -0.5261 -0.2941 -0.0931
11908TIP3    H257140   4.093   0.296  13.910 -0.5236 -0.1758 -0.1278
11909TIP3   OH257141   6.753   4.378  11.046  0.0580 -0.8557 -0.6995
11909TIP3    H157142   6.812   4.431  11.099 -1.9944  1.8356 -0.8709
11909TIP3    H257143   6.681   4.355  11.105 -1.3780  0.6758 -1.7279
11910TIP3   OH257144   6.283   4.211  17.106  0.0085 -0.1628  0.3486
11910TIP3    H157145   6.209   4.176  17.055  0.0323 -2.0050  1.4801
11910TIP3    H257146   6.361   4.176  17.063  0.1933  0.7598 -0.0992
11911TIP3   OH257147   1.020   3.132  16.321 -0.3915  0.3273  0.2830
11911TIP3    H157148   1.005   3.164  16.410  2.1072  3.1622 -0.1387
11911TIP3    H257149   1.096   3.074  16.329 -1.6617 -1.4173  0.2627
11912TIP3   OH257150   5.083   0.880   5.742 -0.1509 -0.0119  0.9159
11912TIP3    H157151   5.081   0.970   5.773 -1.6285  0.0497  0.6921
11912TIP3    H257152   4.992   0.859   5.722  0.1968 -1.4911  0.7678
11913TIP3   OH257153   5.787   4.074   0.974 -0.0069 -0.1630  0.2150
11913TIP3    H157154   5.867   4.117   1.005 -0.4783  1.6956 -0.9925
11913TIP3    H257155   5.784   4.094   0.881 -1.3460 -1.0980  0.0353
11914TIP3   OH257156   3.759   4.536  12.852  0.0900 -0.0082  0.5285
11914TIP3    H157157   3.854   4.534  12.864 -0.1511 -1.8905  3.0849
11914TIP3    H257158   3.730   4.610  12.906 -0.0389 -1.1936  2.1826
11915TIP3   OH257159   1.522   6.624  16.382  0.3069 -0.5488  0.0769
11915TIP3    H157160   1.471   6.544  16.370  0.2339 -0.6051  0.7220
11915TIP3    H257161   1.600   6.595  16.430 -0.6592  0.0563  2.1464
11916TIP3   OH257162   4.427   1.853   0.526  0.0039  0.2137 -0.3059
11916TIP3    H157163   4.458   1.856   0.436  0.1754 -0.6650 -0.2832
11916TIP3    H257164   4.401   1.762   0.540 -1.6606  0.7020 -0.0124
11917TIP3   OH257165   4.875   6.470  15.267  0.6887  0.0081  0.2436
11917TIP3    H157166   4.866   6.375  15.276 -0.9688  0.0604 -0.5138
11917TIP3    H257167   4.906   6.499  15.352  1.8407 -1.2607  0.2977
11918TIP3   OH257168   6.456   4.595   0.010  0.1288  0.1148 -0.0144
11918TIP3    H157169   6.515   4.550  -0.050  0.5752 -0.3951  0.7919
11918TIP3    H257170   6.510   4.662   0.052 -1.0154  3.0518 -2.8080
11919TIP3   OH257171   6.555   4.741  15.473  0.1704  0.0019  0.0189
11919TIP3    H157172   6.466   4.722  15.444  1.1545 -2.3722 -1.7781
11919TIP3    H257173   6.565   4.689  15.553 -0.5655  1.6939  1.2675
11920TIP3   OH257174   3.952   2.205  15.898  0.2911  0.1456 -0.1408
11920TIP3    H157175   3.940   2.113  15.921  0.8271  0.0475 -0.2381
11920TIP3    H257176   3.880   2.250  15.941  0.6837 -0.1679  0.8746
11921TIP3   OH257177   3.893   6.010   3.556 -0.2919  0.1109 -0.2005
11921TIP3    H157178   3.803   6.013   3.588  0.1241 -2.8462  1.5899
11921TIP3    H257179   3.939   6.075   3.609 -1.1990  1.3355 -0.8371
11922TIP3   OH257180   3.635   3.859  13.057  0.2907  0.4340  0.0059
11922TIP3    H157181   3.611   3.952  13.063 -3.9062 -0.4937  0.1615
11922TIP3    H257182   3.601   3.820  13.137 -1.0006 -1.7602 -1.5023
11923TIP3   OH257183   6.033   4.278  13.572  0.5277 -0.1323 -0.2261
11923TIP3    H157184   6.095   4.231  13.516  0.1553  0.6111 -1.3058
11923TIP3    H257185   5.947   4.248  13.543  0.3235  0.4172 -0.1929
11924TIP3   OH257186   3.607   2.022   5.750 -0.3748 -0.3853 -0.2945
11924TIP3    H157187   3.568   2.082   5.687  0.6736 -0.2396 -0.8379
11924TIP3    H257188   3.663   2.077   5.804  0.7218 -0.8662 -0.9014
11925TIP3   OH257189   0.795   5.301   5.664 -0.0247 -0.0374  0.4156
11925TIP3    H157190   0.775   5.356   5.740  0.4092  0.6063  0.0718
11925TIP3    H257191   0.749   5.219   5.681 -2.6422  1.2275 -0.1684
11926TIP3   OH257192   6.240   0.356  16.215 -0.0202 -0.3669 -0.7642
11926TIP3    H157193   6.279   0.405  16.287 -0.8454 -1.6431  0.6221
11926TIP3    H257194   6.304   0.361  16.144 -0.1075  2.7363 -0.7504
11927TIP3   OH257195   4.076   5.522   2.073 -0.1804  1.3038 -0.0798
11927TIP3    H157196   4.131   5.553   2.001  1.0341  0.8637  0.6300
11927TIP3    H257197   4.064   5.599   2.129 -0.2614  1.3966 -0.2254
11928TIP3   OH257198   3.762   0.449   0.047  0.1939  0.4742 -0.2945
11928TIP3    H157199   3.750   0.381  -0.018  3.1693 -0.2667 -0.2145
11928TIP3    H257200   3.743   0.531   0.001 -3.5061 -0.2795 -0.3591
11929TIP3   OH257201   4.911   5.549   2.212 -0.0524  0.2249 -0.3766
11929TIP3    H157202   4.921   5.614   2.142  1.4523  0.9426  0.4674
11929TIP3    H257203   4.820   5.558   2.240  0.4199  2.8950  0.5747
11930TIP3   OH257204   1.678   3.651  15.624  0.3338 -0.3831 -0.5158
11930TIP3    H157205   1.715   3.739  15.628  0.5232 -0.5150  1.1856
11930TIP3    H257206   1.619   3.645  15.699  1.7652 -2.3145  0.5732
11931TIP3   OH257207   3.175   2.858  13.725  0.4178 -0.3420 -0.3218
11931TIP3    H157208   3.257   2.875  13.772  0.9120 -0.5669 -1.0889
11931TIP3    H257209   3.116   2.822  13.792 -0.2768  3.0271  1.1537
11932TIP3   OH257210   3.039   0.855  12.221  0.4132  0.0065 -0.2761
11932TIP3    H157211   3.133   0.859  12.204  0.1415  0.3625 -1.8857
11932TIP3    H257212   2.999   0.846  12.134 -1.0821  0.6055  0.3041
11933TIP3   OH257213   6.478   4.249  13.565  0.3662  0.2312 -0.0667
11933TIP3    H157214   6.389   4.250  13.601  0.0665  1.6928 -0.7433
11933TIP3    H257215   6.499   4.157  13.555 -1.1311 -0.1469 -0.0021
11934TIP3   OH257216   6.496   2.692   1.156  0.0783  0.3197  0.2681
11934TIP3    H157217   6.452   2.776   1.166 -0.3620  0.4080 -1.8853
11934TIP3    H257218   6.562   2.691   1.225 -0.9751  1.7065  1.3507
11935TIP3   OH257219   1.328   3.886  14.761 -0.1074  0.5046  0.0497
11935TIP3    H157220   1.235   3.881  14.739  0.1140  0.4490 -0.8730
11935TIP3    H257221   1.341   3.815  14.824 -0.3177 -0.6320 -1.1542
11936TIP3   OH257222   2.801   5.662  17.132 -1.0530  0.1828  0.3408
11936TIP3    H157223   2.728   5.633  17.185 -2.4178  1.4436 -0.7692
11936TIP3    H257224   2.795   5.610  17.052 -1.2283  0.8261 -0.0763
11937TIP3   OH257225   1.735   2.733  14.903 -0.6880  0.1073 -0.1606
11937TIP3    H157226   1.808   2.709  14.846 -1.4427 -1.7983 -0.3914
11937TIP3    H257227   1.689   2.803  14.855 -0.2825 -0.2056 -1.0300
11938TIP3   OH257228   2.457   4.603   0.099 -0.1246  0.1226  0.3502
11938TIP3    H157229   2.403   4.683   0.103  1.7538  1.4231  1.2593
11938TIP3    H257230   2.428   4.559   0.019  1.1096  3.5396 -2.2637
11939TIP3   OH257231   3.609   6.678   4.264 -0.6292 -0.1431  0.4529
11939TIP3    H157232   3.680   6.726   4.308 -1.5746  0.6458  1.1683
11939TIP3    H257233   3.592   6.727   4.184  0.1539 -0.7908 -0.1282
11940TIP3   OH257234   5.307   3.715  15.023 -0.5927 -0.0206  0.5585
11940TIP3    H157235   5.256   3.785  15.064 -1.1580 -0.2816  0.3042
11940TIP3    H257236   5.396   3.728  15.056 -0.4794  1.4034 -0.2229
11941TIP3   OH257237   5.057   6.102   5.839 -0.0597 -0.4569 -0.5709
11941TIP3    H157238   4.975   6.098   5.791  0.8286  0.9772 -2.3281
11941TIP3    H257239   5.033   6.131   5.927 -1.4256 -0.2233 -1.0079
11942TIP3   OH257240   4.737   1.852  16.666  0.0561 -0.1091  0.0860
11942TIP3    H157241   4.744   1.939  16.627 -0.4494  0.6208  1.5713
11942TIP3    H257242   4.826   1.817  16.663 -0.3637 -1.5172 -4.7404
11943TIP3   OH257243   1.823   3.097   6.060 -0.2716  0.1800 -0.3770
11943TIP3    H157244   1.871   3.099   5.978 -0.3888  0.0621 -0.4497
11943TIP3    H257245   1.891   3.101   6.128  0.1669 -3.3455 -0.4022
11944TIP3   OH257246   3.445   5.734  12.603  0.1196  0.1182 -0.1146
11944TIP3    H157247   3.403   5.665  12.654 -1.3297 -0.4139 -1.9005
11944TIP3    H257248   3.393   5.812  12.621  0.5045  0.2802  0.3213
11945TIP3   OH257249   3.870   2.850  14.611  0.1929  0.0874  0.2534
11945TIP3    H157250   3.825   2.882  14.689 -0.0628  0.4836 -0.0529
11945TIP3    H257251   3.936   2.917  14.592 -0.1832  0.3243 -0.2470
11946TIP3   OH257252   0.686   5.596  15.979 -0.6626  0.0667  0.0493
11946TIP3    H157253   0.657   5.527  16.038 -0.0092 -0.5710 -0.3515
11946TIP3    H257254   0.606   5.637  15.947 -1.0996 -1.2292 -0.5553
11947TIP3   OH257255   0.445   3.067  17.172 -0.3085  0.7647 -0.1269
11947TIP3    H157256   0.468   3.034  17.259 -0.2453  1.9183  0.3141
11947TIP3    H257257   0.467   3.160  17.175 -0.4798  0.8608 -1.3216
11948TIP3   OH257258   3.661   5.444  11.493 -0.3144  0.1665 -0.5849
11948TIP3    H157259   3.589   5.504  11.509 -0.4724 -0.1028 -0.2487
11948TIP3    H257260   3.728   5.496  11.450 -0.4657  0.5699 -0.3343
11949TIP3   OH257261   1.583   5.381   1.385 -0.5758  0.0805  0.4239
11949TIP3    H157262   1.556   5.299   1.344  0.7422 -0.6865  1.0262
11949TIP3    H257263   1.554   5.449   1.325 -2.2054 -0.7754  0.1825
11950TIP3   OH257264   1.006   3.771  13.424  0.0545  0.2984 -0.1590
11950TIP3    H157265   1.096   3.768  13.458  0.4244  0.8447 -1.0593
11950TIP3    H257266   0.966   3.847  13.466 -0.0320  0.0009  0.3141
11951TIP3   OH257267   1.996   0.309  11.137 -0.5173 -0.4414 -0.3111
11951TIP3    H157268   1.942   0.286  11.061 -1.5468 -1.7404  0.7621
11951TIP3    H257269   2.017   0.225  11.177 -1.2094  0.2774  1.6503
11952TIP3   OH257270   0.609   3.223   4.819  0.2702  0.0677  0.0972
11952TIP3    H157271   0.552   3.146   4.817  0.6997 -0.3259  1.5618
11952TIP3    H257272   0.581   3.275   4.744 -0.9755 -0.8470 -0.1158
11953TIP3   OH257273   6.134   0.542   2.866 -0.1924 -0.5777  0.2336
11953TIP3    H157274   6.067   0.531   2.799 -1.0119  0.0961  0.9197
11953TIP3    H257275   6.086   0.546   2.949  0.7358 -0.6338  0.8012
11954TIP3   OH257276   3.839   1.462   3.671  0.3343 -0.3490 -0.1291
11954TIP3    H157277   3.897   1.396   3.710  0.9808  0.2648 -0.0223
11954TIP3    H257278   3.893   1.503   3.603 -0.0064  0.1812 -0.0787
11955TIP3   OH257279   5.502   0.752  14.528 -0.4068  0.0640  0.0894
11955TIP3    H157280   5.568   0.750  14.459 -1.4222 -1.2033 -0.9099
11955TIP3    H257281   5.544   0.797  14.600  1.1354  0.3244 -0.9214
11956TIP3   OH257282   6.698   6.003   4.099 -0.1541 -0.4034 -0.6656
11956TIP3    H157283   6.751   5.925   4.090  0.1298 -0.0984 -1.8567
11956TIP3    H257284   6.756   6.068   4.139 -0.8568 -1.2166  1.8770
11957TIP3   OH257285   6.665   2.279  13.727  0.1264 -0.1383  0.2500
11957TIP3    H157286   6.635   2.364  13.696  2.1415 -0.1379 -2.0444
11957TIP3    H257287   6.597   2.218  13.699  0.5419  0.2546 -1.8068
11958TIP3   OH257288   3.988   1.484  11.903  0.7884 -0.1355 -0.2560
11958TIP3    H157289   3.958   1.425  11.834 -0.3875 -0.2295  0.3173
11958TIP3    H257290   4.069   1.521  11.869  0.1760 -0.0969 -1.7250
11959TIP3   OH257291   6.116   2.009   5.293  1.0747  0.1785 -0.2467
11959TIP3    H157292   6.133   2.094   5.253  1.0302  0.7641  0.9328
11959TIP3    H257293   6.172   1.948   5.245  0.1664  0.6310 -1.9533
11960TIP3   OH257294   3.586   3.639   3.570 -0.4255  0.1060  0.6497
11960TIP3    H157295   3.516   3.617   3.631  0.7153 -1.5070  1.4407
11960TIP3    H257296   3.640   3.703   3.617 -0.9858  0.8954  0.2631
11961TIP3   OH257297   1.481   1.286  13.513  0.7990 -0.2531  0.0273
11961TIP3    H157298   1.562   1.309  13.468  1.9486 -0.7468  1.7673
11961TIP3    H257299   1.507   1.221  13.578 -0.9078 -0.0781  0.9383
11962TIP3   OH257300   5.595   3.226   2.267 -0.4090 -0.1648  0.6349
11962TIP3    H157301   5.666   3.187   2.216  0.1787 -0.2222  1.4895
11962TIP3    H257302   5.522   3.233   2.205  0.5464  0.5144 -0.4427
11963TIP3   OH257303   6.086   5.005  12.928  0.3477 -0.1736  0.1563
11963TIP3    H157304   6.124   4.935  12.981  0.7215  0.6252  0.9633
11963TIP3    H257305   5.993   4.983  12.923  0.5795 -1.1316 -0.2569
11964TIP3   OH257306   6.190   6.278   1.265 -0.1470 -0.1781 -0.2805
11964TIP3    H157307   6.222   6.275   1.175  0.6473  2.1774 -0.1666
11964TIP3    H257308   6.149   6.365   1.273  0.5390  0.0277  1.8239
11965TIP3   OH257309   6.018   2.034  15.035  0.2425 -0.0694  0.2163
11965TIP3    H157310   6.071   2.036  14.955  0.2578  0.6331  0.2360
11965TIP3    H257311   5.933   2.002  15.006  0.6535 -1.1809  0.1799
11966TIP3   OH257312   6.735   1.290   5.789 -0.1040  0.4295  0.3022
11966TIP3    H157313   6.797   1.220   5.807  0.4580  0.9646  0.4867
11966TIP3    H257314   6.649   1.252   5.809  0.2815  0.1611  1.5539
11967TIP3   OH257315   5.335   1.571   0.939 -0.6533 -0.7627  0.0796
11967TIP3    H157316   5.422   1.582   0.901 -0.8906 -2.8861 -1.2322
11967TIP3    H257317   5.315   1.657   0.977  1.6465  0.0208 -0.2899
11968TIP3   OH257318   0.505   0.984   1.583  0.2963  0.1330  0.1483
11968TIP3    H157319   0.416   0.949   1.574  1.3177 -2.6674 -0.2592
11968TIP3    H257320   0.539   0.984   1.493  0.1881  2.9892  0.0130
11969TIP3   OH257321   5.871   4.874  11.111  0.2913 -0.2121  0.0333
11969TIP3    H157322   5.966   4.871  11.117  0.2294 -0.9683  0.8777
11969TIP3    H257323   5.847   4.787  11.077 -0.1066 -0.1190  0.0747
11970TIP3   OH257324   0.006   0.864  11.530 -0.3867 -0.4119 -0.1479
11970TIP3    H157325  -0.074   0.872  11.582 -0.2846  0.8563 -0.1581
11970TIP3    H257326   0.075   0.896  11.587 -0.1884  0.4492 -0.8606
11971TIP3   OH257327   2.915   1.091   4.258  0.1309 -0.6156  0.1318
11971TIP3    H157328   2.975   1.016   4.268  0.2281 -0.5436  0.0867
11971TIP3    H257329   2.900   1.097   4.164 -1.7087 -2.0234  0.2847
11972TIP3   OH257330   6.049   6.205   1.975 -0.2339 -0.5554 -0.3408
11972TIP3    H157331   6.083   6.269   2.038 -1.4581 -1.5064  1.3917
11972TIP3    H257332   5.970   6.245   1.940 -0.6145 -0.8179  0.2097
11973TIP3   OH257333   3.013   4.514  15.317 -0.0374 -0.2633  0.2188
11973TIP3    H157334   3.072   4.440  15.302  0.1943  0.0648 -0.5677
11973TIP3    H257335   2.937   4.476  15.361  1.1697 -0.5242  2.1991
11974TIP3   OH257336   2.098   4.387  11.190  0.0472  0.2461  0.0869
11974TIP3    H157337   2.099   4.482  11.197  1.5045  0.3550 -1.1157
11974TIP3    H257338   2.047   4.368  11.111  1.0778  0.1363 -0.5714
11975TIP3   OH257339   5.221   1.646  15.452  0.8386 -0.0755 -0.3387
11975TIP3    H157340   5.204   1.737  15.430  0.3380  0.5351  2.2055
11975TIP3    H257341   5.152   1.597  15.407 -0.4378  1.1153  0.2360
11976TIP3   OH257342   4.811   0.752  15.863  0.0634  0.0539  0.1934
11976TIP3    H157343   4.825   0.665  15.900  4.4129  0.2911 -0.4389
11976TIP3    H257344   4.879   0.806  15.901 -0.2151  2.2802 -2.1843
11977TIP3   OH257345   6.021   5.260   4.220 -0.5447 -0.0867 -0.1935
11977TIP3    H157346   5.934   5.220   4.225 -0.1149 -0.8456  1.9301
11977TIP3    H257347   6.039   5.292   4.308  1.4456 -0.1621 -0.5201
11978TIP3   OH257348   4.271   1.069  11.477 -0.3394 -0.1836  0.2439
11978TIP3    H157349   4.367   1.066  11.473 -0.0643 -0.0318  3.6043
11978TIP3    H257350   4.245   0.978  11.489 -0.3514 -0.0047  1.7942
11979TIP3   OH257351   4.762   2.089   6.243 -0.1841 -0.0643 -0.6492
11979TIP3    H157352   4.853   2.060   6.238  0.4497  1.7013 -0.3773
11979TIP3    H257353   4.753   2.125   6.331 -1.3145 -0.6530 -0.4960
11980TIP3   OH257354   1.530   1.971   0.626  0.0023  0.1784 -0.2188
11980TIP3    H157355   1.446   1.929   0.609  0.4946 -0.6998 -0.5157
11980TIP3    H257356   1.524   2.000   0.717 -1.1856  1.4758 -0.6748
11981TIP3   OH257357   3.472   5.544   1.429 -0.0964 -0.1644 -0.2730
11981TIP3    H157358   3.532   5.575   1.497  0.8003  2.2557 -2.0174
11981TIP3    H257359   3.392   5.594   1.443  0.0299  0.2103 -0.8522
11982TIP3   OH257360   6.350   4.961   5.431 -0.6545  0.1087  0.2956
11982TIP3    H157361   6.308   5.044   5.408  1.4008  0.9665 -0.6682
11982TIP3    H257362   6.361   4.916   5.347  0.7302  0.1400  0.4360
11983TIP3   OH257363   5.578   1.151   4.494 -0.3861 -0.1728 -0.1677
11983TIP3    H157364   5.585   1.196   4.410 -0.1481  0.6013  0.2587
11983TIP3    H257365   5.496   1.182   4.531 -1.2050 -1.5794 -0.7134
11984TIP3   OH257366   3.522   2.047  17.242  0.0736 -0.3294 -0.2168
11984TIP3    H157367   3.497   1.978  17.304  0.7561  0.2058  0.6805
11984TIP3    H257368   3.602   2.014  17.201 -0.0838 -0.4521 -0.4253
11985TIP3   OH257369   3.572   3.006   2.514  0.0643  0.7981  0.5270
11985TIP3    H157370   3.521   3.086   2.523  0.2114  1.0109 -0.4384
11985TIP3    H257371   3.508   2.935   2.520 -0.7145  1.0862 -2.5371
11986TIP3   OH257372   0.435   5.219  17.224  0.1005 -0.1132 -0.6483
11986TIP3    H157373   0.477   5.153  17.169  1.1185 -0.9508  1.0318
11986TIP3    H257374   0.461   5.195  17.313 -1.7691  0.9699  0.2443
11987TIP3   OH257375   2.236   6.261  15.667  0.0857 -0.1151 -0.0825
11987TIP3    H157376   2.295   6.273  15.592 -0.0135  1.7913  0.0981
11987TIP3    H257377   2.210   6.350  15.692 -1.1518 -0.7990  1.2201
11988TIP3   OH257378   6.514   5.711   3.252 -0.7821 -0.4757  0.1584
11988TIP3    H157379   6.480   5.792   3.215  0.3919  0.8161  1.7906
11988TIP3    H257380   6.472   5.642   3.200  0.2260  1.1456 -3.0939
11989TIP3   OH257381   4.587   4.009  15.582 -0.5131 -0.0624  0.3917
11989TIP3    H157382   4.627   3.927  15.609 -0.2725  0.0480  0.3680
11989TIP3    H257383   4.523   3.983  15.515 -1.9920 -0.4761  1.8982
11990TIP3   OH257384   1.042   1.105   0.533 -0.6247 -0.0964  0.0440
11990TIP3    H157385   1.005   1.193   0.544 -0.2884 -0.0352  0.8093
11990TIP3    H257386   1.120   1.118   0.479  0.8301  0.4862  2.1546
11991TIP3   OH257387   5.258   5.046  10.840 -0.0918 -0.3171  0.6236
11991TIP3    H157388   5.182   5.085  10.884  0.1731 -0.1612  0.9497
11991TIP3    H257389   5.221   4.978  10.783 -0.3664 -1.3418  1.9722
11992TIP3   OH257390   6.759   4.923   2.628  0.5199 -0.2923 -0.5113
11992TIP3    H157391   6.712   4.906   2.710  0.9175  0.5748 -0.0815
11992TIP3    H257392   6.852   4.909   2.650  1.2829  4.6687  0.7109
11993TIP3   OH257393   3.704   5.590   3.519  0.6249  0.2876 -0.1646
11993TIP3    H157394   3.621   5.559   3.555 -0.1006  1.4714 -0.7427
11993TIP3    H257395   3.771   5.559   3.580 -0.5201  1.8697  2.0008
11994TIP3   OH257396   5.419   3.647   0.717  0.5130 -0.9099  0.1038
11994TIP3    H157397   5.483   3.696   0.665  0.2808 -0.2508  0.4237
11994TIP3    H257398   5.335   3.669   0.677  0.5059 -2.1341 -0.6022
11995TIP3   OH257399   5.044   3.902   4.348 -0.4011  0.7053  0.1302
11995TIP3    H157400   5.001   3.987   4.335 -0.7686  0.4559 -0.3252
11995TIP3    H257401   5.002   3.844   4.284 -0.4115  0.0866  0.6867
11996TIP3   OH257402   6.382   5.164  14.120 -0.4837 -0.7619  0.0717
11996TIP3    H157403   6.400   5.249  14.081  0.3034  0.1203  2.1677
11996TIP3    H257404   6.320   5.122  14.061  0.9921  0.2363 -2.3002
11997TIP3   OH257405   6.070   1.158   0.151  0.3874  0.2841  0.3342
11997TIP3    H157406   6.068   1.106   0.071  0.2933  2.2501 -1.0249
11997TIP3    H257407   6.157   1.197   0.152 -0.4527  2.2972 -0.2344
11998TIP3   OH257408   6.316   0.344  15.620  0.2714 -0.2964 -0.3747
11998TIP3    H157409   6.354   0.386  15.542 -0.8095  2.2031  0.3503
11998TIP3    H257410   6.239   0.298  15.587 -0.4950  1.1986 -0.7546
11999TIP3   OH257411   6.767   6.440  12.656 -0.6046 -0.6634  0.5485
11999TIP3    H157412   6.841   6.381  12.642 -0.2250  0.1589 -1.1796
11999TIP3    H257413   6.690   6.386  12.642 -0.2704 -0.9485 -0.2387
12000TIP3   OH257414   0.625   5.007   1.640  0.1896  0.3765  0.2972
12000TIP3    H157415   0.635   5.088   1.590 -0.6929  0.2886 -0.0445
12000TIP3    H257416   0.600   4.941   1.575 -1.0431  0.2741  0.8391
12001TIP3   OH257417   3.875   3.784  12.952  0.0798 -0.4700  0.3305
12001TIP3    H157418   3.933   3.803  13.026  0.2638  0.7748 -0.1038
12001TIP3    H257419   3.787   3.805  12.984  0.2577  1.0050 -0.0723
12002TIP3   OH257420   4.857   1.991   5.820 -0.0274  0.3028 -0.6964
12002TIP3    H157421   4.831   1.932   5.749 -1.8261 -0.3218  0.4001
12002TIP3    H257422   4.823   1.949   5.899  1.1519  1.4113  0.4461
12003TIP3   OH257423   6.210   1.315  16.916 -0.2969 -0.3021  0.2428
12003TIP3    H157424   6.144   1.273  16.972 -1.9545  1.1616 -0.4955
12003TIP3    H257425   6.292   1.307  16.965 -1.5934  0.6035  2.7759
12004TIP3   OH257426   2.459   5.098  11.017 -0.2763 -0.1189  0.1864
12004TIP3    H157427   2.446   5.080  10.924 -1.5874  0.4245  0.2488
12004TIP3    H257428   2.554   5.092  11.030  0.1330  1.6930 -1.5848
12005TIP3   OH257429   1.387   6.170  11.691  0.3733  0.0468 -0.0859
12005TIP3    H157430   1.383   6.235  11.621 -1.3213 -1.1390 -1.1628
12005TIP3    H257431   1.304   6.181  11.738  0.5018 -0.6999  0.3234
12006TIP3   OH257432   5.635   1.775  15.392 -0.3373 -0.3682  0.2621
12006TIP3    H157433   5.568   1.819  15.444  1.0249 -0.2208  1.9907
12006TIP3    H257434   5.631   1.684  15.420  0.5397 -0.2494  0.8223
12007TIP3   OH257435   1.653   3.730  12.803  0.1767  0.4116 -0.3728
12007TIP3    H157436   1.611   3.721  12.717  0.9044  1.5041 -0.8625
12007TIP3    H257437   1.609   3.805  12.843 -0.0077  0.0413  0.1265
12008TIP3   OH257438   5.077   3.684   5.555 -0.4443 -0.0516  0.0153
12008TIP3    H157439   5.166   3.656   5.576 -1.2345 -1.1658  2.2288
12008TIP3    H257440   5.041   3.711   5.639 -2.2636  0.1943 -0.8044
12009TIP3   OH257441   2.234   2.378  17.044  0.0401  0.4457 -0.2482
12009TIP3    H157442   2.149   2.361  17.003 -0.3507  0.7166  0.4286
12009TIP3    H257443   2.288   2.415  16.973 -1.2324  2.8086 -0.0860
12010TIP3   OH257444   1.353   2.812   5.535  0.1762 -0.0679  0.3826
12010TIP3    H157445   1.445   2.837   5.523 -0.1601  0.1903 -2.1225
12010TIP3    H257446   1.357   2.729   5.581  1.6464  0.1792  0.7608
12011TIP3   OH257447   0.579   4.874   0.096 -0.0235 -0.0042  0.2003
12011TIP3    H157448   0.558   4.943   0.158  1.0428 -0.1972  0.8025
12011TIP3    H257449   0.672   4.855   0.111  0.5537  0.6342 -2.1147
12012TIP3   OH257450   5.302   3.266   6.366 -0.2720 -0.7823  0.2816
12012TIP3    H157451   5.255   3.336   6.320 -1.8672 -1.9522  0.0197
12012TIP3    H257452   5.233   3.204   6.391  0.7803 -1.1465  2.5598
12013TIP3   OH257453   6.097   2.885  12.731 -0.3344 -0.1235 -0.4105
12013TIP3    H157454   6.086   2.860  12.823 -0.7607 -3.7978 -1.2932
12013TIP3    H257455   6.177   2.840  12.703  1.8432  3.7395 -1.1144
12014TIP3   OH257456   5.645   4.573  11.919  0.7773 -0.2640 -0.6930
12014TIP3    H157457   5.556   4.569  11.955  0.6695  0.2173 -0.8951
12014TIP3    H257458   5.690   4.497  11.957  0.7186  0.3058  0.5597
12015TIP3   OH257459   3.040   1.018  13.234 -0.6950  0.3905  0.1774
12015TIP3    H157460   2.970   1.033  13.170  0.7464  3.3667 -0.9151
12015TIP3    H257461   3.106   0.968  13.187 -0.6613  0.5194  0.0859
12016TIP3   OH257462   2.850   6.764  15.850  0.4801  0.0508 -0.1800
12016TIP3    H157463   2.918   6.703  15.822 -0.1043 -0.7250  0.0631
12016TIP3    H257464   2.891   6.815  15.919  1.5336  1.1359 -1.5452
12017TIP3   OH257465   4.103   1.228  15.449 -0.1225 -0.3510  0.1306
12017TIP3    H157466   4.100   1.154  15.389 -0.1563 -1.2868  1.2508
12017TIP3    H257467   4.020   1.274  15.435  0.3435  0.0924 -1.3032
12018TIP3   OH257468   6.510   6.094   2.476 -0.6565 -0.3468 -0.6339
12018TIP3    H157469   6.538   6.015   2.431 -1.8150 -0.2152 -1.6438
12018TIP3    H257470   6.578   6.159   2.455 -0.4367 -0.6887 -0.9925
12019TIP3   OH257471   1.317   2.568   5.312 -0.2339 -0.5800 -0.0155
12019TIP3    H157472   1.241   2.574   5.369 -0.0124  0.9418  0.1585
12019TIP3    H257473   1.343   2.476   5.316 -0.8210 -0.7047  1.5611
12020TIP3   OH257474   3.615   3.512  16.502 -0.4952 -0.0511 -0.1246
12020TIP3    H157475   3.612   3.488  16.410  0.6620  0.4251 -0.3028
12020TIP3    H257476   3.593   3.605  16.504 -0.2894 -0.0031  0.0485
12021TIP3   OH257477   2.723   1.822  16.940  0.3200 -0.3966 -0.2687
12021TIP3    H157478   2.786   1.804  16.869 -0.9030  0.9720 -1.7759
12021TIP3    H257479   2.660   1.883  16.901 -1.7620 -1.4444  1.2889
12022TIP3   OH257480   3.179   4.176   5.266  0.7322  0.1119  0.7703
12022TIP3    H157481   3.221   4.091   5.276  2.6523  1.0837  1.5834
12022TIP3    H257482   3.206   4.206   5.179 -1.6841 -0.9533 -0.4188
12023TIP3   OH257483   1.982   6.773   0.031 -0.2245 -0.4516 -0.0247
12023TIP3    H157484   1.974   6.678   0.030  1.3302 -0.6033  0.3889
12023TIP3    H257485   1.895   6.804   0.005 -0.5875 -1.9797 -0.7674
12024TIP3   OH257486   3.399   2.556   5.371  0.8271  0.2461 -0.4057
12024TIP3    H157487   3.401   2.606   5.289  1.3515  0.9324  0.0213
12024TIP3    H257488   3.459   2.602   5.429 -0.8208  0.7954  0.9686
12025TIP3   OH257489   4.177   3.510  12.818  0.1356 -0.2022  0.0683
12025TIP3    H157490   4.090   3.536  12.788  0.2951  0.9869  0.5659
12025TIP3    H257491   4.164   3.424  12.858 -0.3793 -1.0709 -1.8720
12026TIP3   OH257492   0.507   0.119  15.409  0.1274 -0.1456 -0.0903
12026TIP3    H157493   0.578   0.055  15.404  0.3754  0.0999  0.2260
12026TIP3    H257494   0.464   0.101  15.492 -0.0803 -0.1890 -0.2066
12027TIP3   OH257495   6.030   0.659  12.295 -0.2458 -0.4294  0.3760
12027TIP3    H157496   5.984   0.606  12.229  0.5433 -0.6762  0.0155
12027TIP3    H257497   6.104   0.605  12.322  0.7753  0.6232 -0.2579
12028TIP3   OH257498   3.917   0.435  13.016 -0.0788 -0.3570 -0.8386
12028TIP3    H157499   3.995   0.460  12.967  1.1758 -0.0670  1.2074
12028TIP3    H257500   3.951   0.396  13.096 -1.9516  2.4328  1.5114
12029TIP3   OH257501   3.974   0.568   2.756 -0.1478 -0.0925  0.0252
12029TIP3    H157502   3.974   0.517   2.675  1.5053  0.5094 -0.3979
12029TIP3    H257503   4.046   0.530   2.808 -0.3354  0.3825  0.6475
12030TIP3   OH257504   6.305   5.608  14.716  0.2819  0.2899  0.0887
12030TIP3    H157505   6.234   5.545  14.705  0.0047  0.2389  1.8512
12030TIP3    H257506   6.381   5.566  14.675  0.0193 -1.0681  0.9097
12031TIP3   OH257507   2.858   4.867  12.087  0.6789  0.3757  0.0066
12031TIP3    H157508   2.829   4.778  12.071  1.5010  0.1682 -0.3660
12031TIP3    H257509   2.899   4.894  12.004 -1.4060  1.8415 -0.6243
12032TIP3   OH257510   5.579   0.609   0.221  0.2352  0.2969 -0.3273
12032TIP3    H157511   5.487   0.634   0.215  0.3791  0.7986 -0.4834
12032TIP3    H257512   5.627   0.681   0.180  0.6491 -0.3317 -0.9703
12033TIP3   OH257513   3.936   0.047   4.825  0.3242  0.0810  0.1478
12033TIP3    H157514   3.858   0.013   4.782 -0.3037  0.8199  0.6646
12033TIP3    H257515   3.909   0.132   4.860  0.7939 -0.4659  1.9671
12034TIP3   OH257516   3.462   0.991  15.674  0.1354  0.5416 -0.3364
12034TIP3    H157517   3.477   0.938  15.596 -1.9505 -0.1669 -0.3078
12034TIP3    H257518   3.372   1.020  15.667  0.0588  0.9111  1.5528
12035TIP3   OH257519   1.314   2.182   5.795  0.1341 -0.0872  0.1938
12035TIP3    H157520   1.282   2.116   5.735 -1.4957  0.5322  0.3451
12035TIP3    H257521   1.372   2.134   5.854  1.1185 -0.8467 -1.3331
12036TIP3   OH257522   1.127   5.791  13.150  0.1569  0.8360  0.3114
12036TIP3    H157523   1.099   5.832  13.232 -2.0358  1.1068 -0.5027
12036TIP3    H257524   1.092   5.702  13.155 -0.3456  0.9800 -0.4729
12037TIP3   OH257525   0.368   1.158  17.124 -0.0037  0.3157 -0.3571
12037TIP3    H157526   0.374   1.219  17.197  0.2819  0.7264 -0.7201
12037TIP3    H257527   0.281   1.118  17.133  0.6684 -0.9041  1.1946
12038TIP3   OH257528   1.034   2.060   0.742 -0.0267 -0.3026 -0.6092
12038TIP3    H157529   1.051   2.034   0.651 -0.9067 -2.9902 -0.0768
12038TIP3    H257530   0.955   2.012   0.766  0.3012  0.2202  1.6610
12039TIP3   OH257531   5.093   0.916   1.065 -0.1935  0.4304  0.0779
12039TIP3    H157532   5.000   0.937   1.080 -1.0629  0.3248 -4.0308
12039TIP3    H257533   5.091   0.836   1.014  2.1629  0.6058 -0.3817
12040TIP3   OH257534   2.556   3.392  11.289 -0.0012  0.1984 -0.1781
12040TIP3    H157535   2.588   3.416  11.202 -0.1662 -1.3954 -0.7194
12040TIP3    H257536   2.628   3.413  11.349  0.3262  0.7917 -0.7702
12041TIP3   OH257537   2.172   3.295   6.516  0.9257  0.0365  0.0674
12041TIP3    H157538   2.222   3.258   6.588  1.4798  0.2246 -0.2160
12041TIP3    H257539   2.193   3.388   6.517 -0.2048  0.2988  0.5703
12042TIP3   OH257540   1.222   2.154   3.679  0.0711 -0.5134  0.0884
12042TIP3    H157541   1.289   2.216   3.708  0.5360 -1.0845  0.2455
12042TIP3    H257542   1.166   2.141   3.756  1.0046 -1.6357  0.5935
12043TIP3   OH257543   4.902   5.840  14.129  0.4217 -0.5121 -0.0134
12043TIP3    H157544   4.943   5.815  14.212 -2.7068 -0.2963  1.7433
12043TIP3    H257545   4.940   5.926  14.108 -1.4684  1.3432  3.3963
12044TIP3   OH257546   4.508   6.205  12.655  1.2540 -0.0024 -0.4044
12044TIP3    H157547   4.491   6.228  12.747 -0.1625 -0.5510 -0.4956
12044TIP3    H257548   4.581   6.261  12.629  1.6751  0.1553  1.0610
12045TIP3   OH257549   1.210   6.058  16.092  0.0687  0.0910 -0.1607
12045TIP3    H157550   1.196   6.150  16.115  0.2105  0.4572 -1.4451
12045TIP3    H257551   1.123   6.018  16.101  0.1639  0.1352  1.2094
12046TIP3   OH257552   0.189   3.449  11.920 -0.2849 -0.0387 -0.6491
12046TIP3    H157553   0.124   3.512  11.953  0.4725  0.8835 -0.8597
12046TIP3    H257554   0.178   3.372  11.975 -0.7969  0.5135  0.0513
12047TIP3   OH257555   2.513   5.058  11.667  0.5180  0.2027 -0.3306
12047TIP3    H157556   2.538   5.150  11.678 -4.0998  1.7285 -0.4857
12047TIP3    H257557   2.446   5.044  11.733  1.7628 -3.5281  0.3574
12048TIP3   OH257558   5.078   0.890   1.831  0.3899  0.2270  0.4810
12048TIP3    H157559   5.053   0.937   1.911  0.2657  1.9639 -0.5187
12048TIP3    H257560   5.145   0.945   1.792  2.4625 -1.9870  0.7249
12049TIP3   OH257561   0.415   0.391   4.793 -0.9380 -0.4435 -0.1593
12049TIP3    H157562   0.472   0.372   4.718  0.6178 -0.3366  0.9483
12049TIP3    H257563   0.343   0.442   4.755  0.2418  0.3367 -1.4580
12050TIP3   OH257564   2.641   6.189   3.623 -0.5607 -0.0073  0.4363
12050TIP3    H157565   2.691   6.267   3.600 -1.8224  1.1283  1.3206
12050TIP3    H257566   2.705   6.118   3.627  0.4893  0.8011 -1.2268
12051TIP3   OH257567   1.598   5.545  15.249 -0.8281 -0.0060 -0.1110
12051TIP3    H157568   1.522   5.521  15.196 -0.4107  0.3796 -0.8970
12051TIP3    H257569   1.607   5.472  15.311 -1.5417 -0.2909 -0.3252
12052TIP3   OH257570   3.269   1.935  11.806  0.6555  0.4465  0.2415
12052TIP3    H157571   3.223   1.962  11.727  2.1649 -0.8680 -1.1514
12052TIP3    H257572   3.335   2.003  11.819  1.0970  0.1324 -0.2819
12053TIP3   OH257573   1.146   6.479   1.115  0.3310  0.3006  0.0367
12053TIP3    H157574   1.117   6.421   1.044  0.8613  0.4884 -0.3323
12053TIP3    H257575   1.186   6.420   1.179 -1.0801 -0.0050  0.6902
12054TIP3   OH257576   0.192   3.884  14.798 -0.5379 -0.1598 -0.3785
12054TIP3    H157577   0.180   3.790  14.789 -2.5694 -0.1724  1.5203
12054TIP3    H257578   0.259   3.894  14.865 -1.7867 -0.3143  0.9256
12055TIP3   OH257579   5.691   1.414  12.375  0.1452 -0.0928 -0.8557
12055TIP3    H157580   5.677   1.436  12.467 -0.2588 -0.7830 -0.7469
12055TIP3    H257581   5.651   1.486  12.327  0.0870  0.1185 -0.4953
12056TIP3   OH257582   4.160   6.348   0.184  0.0577  0.1631 -0.3731
12056TIP3    H157583   4.129   6.398   0.109 -0.1035 -0.4176 -0.6972
12056TIP3    H257584   4.086   6.291   0.207  0.4249 -0.3093 -0.3457
12057TIP3   OH257585   2.701   2.162  16.901 -0.3297 -0.2459 -0.0870
12057TIP3    H157586   2.761   2.182  16.973 -0.1103  0.2233 -0.3988
12057TIP3    H257587   2.625   2.122  16.944  0.8577 -2.3630  0.1826
12058TIP3   OH257588   2.678   0.727   2.840 -0.2510  0.4043  0.2868
12058TIP3    H157589   2.602   0.733   2.782 -0.3001  1.5992  0.4568
12058TIP3    H257590   2.670   0.640   2.880 -0.4128 -0.2971 -1.1885
12059TIP3   OH257591   6.471   4.369  12.763  0.0586 -0.3119 -0.7025
12059TIP3    H157592   6.406   4.380  12.832  0.6394 -2.6841  0.3101
12059TIP3    H257593   6.552   4.405  12.799 -0.3104  1.3561 -1.4308
12060TIP3   OH257594   5.057   5.255   0.553  0.1655  0.1760 -0.3661
12060TIP3    H157595   5.026   5.226   0.468  1.6497 -3.6002  0.1794
12060TIP3    H257596   4.977   5.263   0.606 -0.5867  0.0579 -1.4531
12061TIP3   OH257597   1.795   2.244   1.741 -0.6915  0.5282 -0.3272
12061TIP3    H157598   1.830   2.172   1.794  1.5752  1.3151 -0.6217
12061TIP3    H257599   1.854   2.317   1.759 -1.3901  1.5583 -1.9857
12062TIP3   OH257600   5.181   0.457  12.690 -0.3474 -0.8163 -0.8058
12062TIP3    H157601   5.124   0.530  12.716  0.0905  0.2240 -2.6020
12062TIP3    H257602   5.191   0.405  12.770  0.5110  1.8697  0.9914
12063TIP3   OH257603   3.520   4.437  16.440 -0.2018 -0.6256 -0.0171
12063TIP3    H157604   3.607   4.400  16.453  1.1848  2.2587 -0.1407
12063TIP3    H257605   3.516   4.454  16.346 -1.5186 -1.9855 -0.2428
12064TIP3   OH257606   3.726   5.947  13.890 -0.4598 -0.2997 -0.2258
12064TIP3    H157607   3.792   6.002  13.847 -1.1159  2.1605  1.6799
12064TIP3    H257608   3.772   5.865  13.909  2.2744  1.4241  1.3332
12065TIP3   OH257609   1.805   0.200  16.848 -0.7968 -0.6085  0.6634
12065TIP3    H157610   1.810   0.112  16.886 -1.8686 -2.4740 -2.9919
12065TIP3    H257611   1.712   0.222  16.851 -0.3764  1.1771  2.8765
12066TIP3   OH257612   6.582   1.999  14.809 -0.0012  0.2259 -0.2151
12066TIP3    H157613   6.531   2.054  14.869  0.1467 -2.8082  3.0868
12066TIP3    H257614   6.665   2.045  14.797 -1.3429  2.5596 -1.0287
12067TIP3   OH257615   1.940   0.336   1.002  0.5013  1.0692  0.2439
12067TIP3    H157616   1.983   0.251   1.010  1.1942  1.4162  0.2425
12067TIP3    H257617   1.850   0.319   1.029  0.4317  0.1697 -0.5196
12068TIP3   OH257618   3.371   3.148   3.481  0.4217  0.1796  0.0278
12068TIP3    H157619   3.456   3.192   3.480 -1.1619  3.6250  1.2636
12068TIP3    H257620   3.351   3.134   3.388  1.5823  0.9447 -0.3715
12069TIP3   OH257621   0.275   5.226  12.536 -0.3051 -0.4856  0.0670
12069TIP3    H157622   0.305   5.281  12.464 -0.7190 -0.5389 -0.1511
12069TIP3    H257623   0.267   5.138  12.497 -1.5235 -0.3183 -0.1049
12070TIP3   OH257624   6.678   3.623   5.802  0.4054  0.3363 -0.1056
12070TIP3    H157625   6.752   3.612   5.863  0.6747  0.8199 -0.3392
12070TIP3    H257626   6.665   3.718   5.797 -0.9922  0.2139  0.8270
12071TIP3   OH257627   4.455   1.747   3.609 -0.9657 -0.5894  0.0047
12071TIP3    H157628   4.374   1.751   3.558  0.4265  3.9235 -2.4684
12071TIP3    H257629   4.441   1.808   3.681  0.2081  0.3758 -0.5489
12072TIP3   OH257630   0.154   1.042   2.806 -0.2100 -0.1289 -0.0395
12072TIP3    H157631   0.079   0.985   2.822 -1.0644  0.7428 -0.7895
12072TIP3    H257632   0.117   1.117   2.759  1.1007  0.4145 -0.2408
12073TIP3   OH257633   3.824   1.361  17.213  0.3825  0.9857 -0.1032
12073TIP3    H157634   3.915   1.389  17.210  0.6036  0.3558  0.4399
12073TIP3    H257635   3.779   1.431  17.260  1.4483 -0.7264  3.9380
12074TIP3   OH257636   2.379   3.706   4.940 -0.0328 -0.4634  0.0094
12074TIP3    H157637   2.448   3.749   4.890 -1.2216  0.8757 -0.5401
12074TIP3    H257638   2.404   3.613   4.939  0.5590 -0.3436 -2.1304
12075TIP3   OH257639   6.339   4.436   0.202 -0.0013 -0.0046 -0.1933
12075TIP3    H157640   6.367   4.345   0.195 -0.6825 -0.1875 -0.6460
12075TIP3    H257641   6.374   4.478   0.123  1.3959  0.4369  0.6319
12076TIP3   OH257642   2.089   1.184   1.200  0.3521  0.1543  0.1231
12076TIP3    H157643   2.038   1.110   1.167 -0.1340  0.4180  0.2712
12076TIP3    H257644   2.077   1.181   1.295  1.5233 -0.4354  0.2610
12077TIP3   OH257645   2.686   5.517  13.375 -0.1815 -0.0822  0.2152
12077TIP3    H157646   2.610   5.458  13.374 -0.8426  0.7660 -0.5546
12077TIP3    H257647   2.762   5.458  13.379 -0.8671 -0.9373  1.6594
12078TIP3   OH257648   3.674   5.591  15.718  0.0509  0.0506  0.4518
12078TIP3    H157649   3.672   5.686  15.713  1.2318  0.0923  0.4995
12078TIP3    H257650   3.759   5.571  15.755  0.2084 -1.0603 -0.4498
12079TIP3   OH257651   2.251   0.066   3.005  0.0465 -0.0844  0.6649
12079TIP3    H157652   2.268   0.072   3.099  4.0003 -1.5606  0.2438
12079TIP3    H257653   2.225  -0.025   2.990 -1.0735  0.2708  0.3403
12080TIP3   OH257654   5.632   3.108   4.189  0.0115  0.1059 -0.1145
12080TIP3    H157655   5.672   3.179   4.140  0.4987  0.1622  0.3592
12080TIP3    H257656   5.629   3.035   4.127  2.6522 -0.5192  0.3726
12081TIP3   OH257657   2.087   0.745   0.738 -0.0322 -0.4991 -1.0691
12081TIP3    H157658   2.062   0.733   0.830 -1.2883  0.7549 -1.2252
12081TIP3    H257659   2.080   0.657   0.700 -1.3530 -0.7088 -0.4001
12082TIP3   OH257660   4.259   1.255   5.775 -0.8194  0.0279  0.4070
12082TIP3    H157661   4.249   1.191   5.845  0.4160  0.1411  0.7232
12082TIP3    H257662   4.173   1.259   5.733 -0.3699 -3.7991 -1.3265
12083TIP3   OH257663   3.294   1.774   0.585  0.0997  0.3323  0.0385
12083TIP3    H157664   3.286   1.852   0.529  0.8174 -0.0178 -0.5725
12083TIP3    H257665   3.376   1.788   0.633 -0.2702  0.4031  0.6593
12084TIP3   OH257666   5.053   5.120   3.890 -0.0711 -0.1332  0.1856
12084TIP3    H157667   5.140   5.120   3.851 -0.8515  1.6925 -1.7906
12084TIP3    H257668   5.060   5.179   3.965  0.1716  0.9082 -0.6325
12085TIP3   OH257669   3.180   3.976   2.517  0.5701 -0.2881 -0.0215
12085TIP3    H157670   3.224   4.049   2.561  1.4451 -0.1397 -1.0988
12085TIP3    H257671   3.206   3.984   2.425 -1.1690 -0.6170 -0.5747
12086TIP3   OH257672   3.030   1.820  13.993 -0.3306  0.1991 -0.6185
12086TIP3    H157673   2.988   1.906  13.996  0.0039  0.3314  1.3599
12086TIP3    H257674   2.964   1.760  14.031  0.2169 -0.0414 -0.0215
12087TIP3   OH257675   3.391   1.735  14.623 -0.1822  0.5528 -0.3368
12087TIP3    H157676   3.418   1.644  14.618 -2.5319 -0.1696 -1.8908
12087TIP3    H257677   3.417   1.773  14.539 -1.1093  0.6716 -0.5902
12088TIP3   OH257678   1.987   3.140  16.849 -0.3213 -0.1444  0.0417
12088TIP3    H157679   1.928   3.073  16.816  0.1677 -0.7191  0.3238
12088TIP3    H257680   2.033   3.099  16.922  0.2335  0.3813  0.0024
12089TIP3   OH257681   5.608   2.411  11.518  0.0871  0.1060 -0.1904
12089TIP3    H157682   5.701   2.422  11.500  0.5891 -0.6518  1.6882
12089TIP3    H257683   5.585   2.485  11.575 -0.2176 -0.2182  0.1140
12090TIP3   OH257684   5.497   2.478  16.962  0.0399  0.0416 -0.1754
12090TIP3    H157685   5.424   2.508  17.017 -2.0895 -1.7583 -1.8378
12090TIP3    H257686   5.524   2.556  16.914  0.4181  1.1215  1.6891
12091TIP3   OH257687   4.926   2.124   1.605 -0.8633 -0.4213 -0.1782
12091TIP3    H157688   4.896   2.068   1.677  1.2159 -0.2055  0.9359
12091TIP3    H257689   4.898   2.212   1.630 -1.8001 -0.5813 -0.6110
12092TIP3   OH257690   1.721   2.246   6.179 -0.8046 -0.3272  0.3076
12092TIP3    H157691   1.780   2.197   6.122 -1.4523 -0.3337 -0.3852
12092TIP3    H257692   1.751   2.337   6.171 -1.3819 -0.2056 -0.7058
12093TIP3   OH257693   4.363   3.492   2.439 -0.2191 -0.4123  0.1360
12093TIP3    H157694   4.301   3.514   2.509  0.4004  1.8788  0.0190
12093TIP3    H257695   4.321   3.522   2.359  0.8406  0.7797  0.0074
12094TIP3   OH257696   0.002   6.780   3.232 -1.0464  0.6546  0.5563
12094TIP3    H157697  -0.056   6.830   3.290 -1.7565  0.1991  0.2444
12094TIP3    H257698  -0.009   6.820   3.146  0.1259  1.4315  0.7389
12095TIP3   OH257699   0.514   2.181  14.046  0.3758 -0.1477  0.0166
12095TIP3    H157700   0.599   2.215  14.074  0.9298 -1.3444 -0.1611
12095TIP3    H257701   0.469   2.159  14.127  0.5618 -0.2607  0.0907
12096TIP3   OH257702   1.377   4.381  14.705 -0.1103  0.4646  0.7826
12096TIP3    H157703   1.340   4.301  14.742 -0.5109  0.3453  0.1265
12096TIP3    H257704   1.468   4.382  14.736 -0.2440  0.0130  1.1959
12097TIP3   OH257705   6.479   4.865  15.134  0.3079  0.9015  0.0459
12097TIP3    H157706   6.439   4.952  15.139  0.2811  1.0158 -1.5540
12097TIP3    H257707   6.564   4.875  15.176 -0.8303  0.9287  2.5394
12098TIP3   OH257708   1.480   1.137  17.074 -0.3778 -0.2176  0.6353
12098TIP3    H157709   1.420   1.184  17.133 -0.9384 -0.5541  0.3460
12098TIP3    H257710   1.563   1.183  17.083 -0.8485  0.6724  0.5534
12099TIP3   OH257711   0.122   1.745  17.243 -0.0018  0.1604  0.0613
12099TIP3    H157712   0.084   1.783  17.164 -2.3056 -2.2534 -0.1293
12099TIP3    H257713   0.065   1.775  17.314 -0.1061 -0.5547  0.2904
12100TIP3   OH257714   1.812   6.625   4.454 -0.6179 -0.4082 -0.1283
12100TIP3    H157715   1.878   6.656   4.391 -1.9526 -1.3780 -2.1119
12100TIP3    H257716   1.859   6.562   4.508  0.0041 -1.5850 -1.9296
12101TIP3   OH257717   4.866   0.514  14.570 -0.3194  0.0085 -0.4537
12101TIP3    H157718   4.839   0.445  14.631 -1.8345  0.1002 -0.9906
12101TIP3    H257719   4.786   0.537  14.523  0.3988  1.3805 -1.0455
12102TIP3   OH257720   3.521   2.034   6.183  0.1864  0.8231  0.5967
12102TIP3    H157721   3.565   1.950   6.183 -0.6275  0.3179 -1.8544
12102TIP3    H257722   3.436   2.017   6.225  0.1711  0.5216  0.4423
12103TIP3   OH257723   0.937   3.432  12.881 -0.3540  0.1833  0.1622
12103TIP3    H157724   0.892   3.504  12.925  0.7401  1.6223 -0.9928
12103TIP3    H257725   0.880   3.408  12.809  0.9215  2.5390 -1.7910
12104TIP3   OH257726   4.690   3.663  12.560 -0.0158 -1.0053  0.2430
12104TIP3    H157727   4.764   3.723  12.568  0.4796 -1.7325  1.3634
12104TIP3    H257728   4.725   3.588  12.513 -0.7125 -0.3254 -1.4245
12105TIP3   OH257729   1.642   4.957   2.429  0.0948 -0.4827  0.2954
12105TIP3    H157730   1.622   5.013   2.504 -0.6636  0.5036 -0.6035
12105TIP3    H257731   1.737   4.956   2.423  0.1307  0.1462  0.7447
12106TIP3   OH257732   3.960   1.060  14.081 -0.3365 -0.1463 -0.2527
12106TIP3    H157733   3.957   1.140  14.133 -1.9871 -0.6821  0.5176
12106TIP3    H257734   4.011   0.998  14.134  1.8941  0.6683 -1.3282
12107TIP3   OH257735   4.794   2.610  15.648  0.4338 -0.3433 -0.1213
12107TIP3    H157736   4.829   2.524  15.670 -0.5805 -0.9146 -0.6808
12107TIP3    H257737   4.765   2.602  15.557  1.3563  0.9336 -0.5683
12108TIP3   OH257738   4.568   6.429  15.736  0.1239 -0.1081  0.1441
12108TIP3    H157739   4.592   6.340  15.760  1.2238  0.1181 -0.0359
12108TIP3    H257740   4.633   6.484  15.780 -0.4402  0.5982  0.1206
12109TIP3   OH257741   0.082   1.921   0.740 -0.1294 -0.1166 -0.2443
12109TIP3    H157742   0.010   1.917   0.803  0.0241  0.2905 -0.0474
12109TIP3    H257743   0.056   1.859   0.671 -0.9995  0.5282 -0.5130
12110TIP3   OH257744   3.320   0.747  13.353 -0.1513  0.6345  0.2657
12110TIP3    H157745   3.355   0.706  13.432 -0.8397  0.7489  0.6394
12110TIP3    H257746   3.285   0.831  13.383 -0.2935  0.7386 -0.1868
12111TIP3   OH257747   1.636   1.691  13.696  0.0603  0.6092  0.5044
12111TIP3    H157748   1.561   1.632  13.691  1.0411 -0.8970  2.2377
12111TIP3    H257749   1.600   1.775  13.724 -1.0598  0.1167  0.5614
12112TIP3   OH257750   5.919   4.498  15.866  0.2488  0.8200 -0.5425
12112TIP3    H157751   5.926   4.481  15.772  1.2805  0.5306 -0.4202
12112TIP3    H257752   5.886   4.588  15.872  1.1807  1.2174 -1.1875
12113TIP3   OH257753   1.111   2.490  13.600 -0.4079 -0.4104 -0.0106
12113TIP3    H157754   1.058   2.430  13.652  1.2671  1.1899  3.9542
12113TIP3    H257755   1.194   2.444  13.588  0.2158  0.3214  1.3631
12114TIP3   OH257756   1.043   4.529  12.324  1.1174  0.0277  0.5219
12114TIP3    H157757   1.105   4.552  12.256  1.4454 -2.2803 -0.0453
12114TIP3    H257758   1.087   4.462  12.376 -0.2243 -0.3873  1.1987
12115TIP3   OH257759   4.634   6.607   4.595 -0.0785  0.7238 -0.1054
12115TIP3    H157760   4.562   6.581   4.537  1.6970 -0.6290 -1.7983
12115TIP3    H257761   4.668   6.688   4.556  0.6356  0.2231 -0.5361
12116TIP3   OH257762   2.358   2.430  16.803  0.2370  0.4164  0.1098
12116TIP3    H157763   2.312   2.418  16.720 -0.2309  1.9347  0.1250
12116TIP3    H257764   2.435   2.482  16.780 -0.2816  1.4779  0.7353
12117TIP3   OH257765   5.018   0.621  12.833  0.0192 -0.1353  0.6848
12117TIP3    H157766   4.924   0.633  12.822  0.0716 -1.0620 -1.3403
12117TIP3    H257767   5.053   0.709  12.843 -0.8180  0.4673 -1.2609
12118TIP3   OH257768   2.120   1.476  12.370  0.2600  0.2286 -0.0542
12118TIP3    H157769   2.148   1.505  12.284  2.4082 -2.8125 -0.5506
12118TIP3    H257770   2.196   1.491  12.426 -0.5322  0.6412  0.9392
12119TIP3   OH257771   0.049   4.453   2.014 -0.1550  0.6233  0.2660
12119TIP3    H157772  -0.046   4.441   2.003 -0.3508  1.4291  0.9790
12119TIP3    H257773   0.076   4.503   1.937 -0.3298  0.5165  0.1342
12120TIP3   OH257774   6.618   2.590  14.582 -0.5466 -0.3953 -0.5719
12120TIP3    H157775   6.690   2.643  14.549  1.2476 -0.9678  2.1099
12120TIP3    H257776   6.544   2.651  14.586  0.5174  0.9615 -0.7944
12121TIP3   OH257777   5.994   1.059   2.423  0.1790 -0.1962  0.1243
12121TIP3    H157778   5.970   1.049   2.515 -1.0877 -1.5180 -0.3063
12121TIP3    H257779   5.959   1.145   2.398  0.5211  0.1604  0.8666
12122TIP3   OH257780   1.067   1.143  11.453  0.3888 -0.0268  0.0939
12122TIP3    H157781   1.075   1.087  11.530  1.3655  0.7211  0.5523
12122TIP3    H257782   1.127   1.105  11.389  0.9031  0.3745  0.3346
12123TIP3   OH257783   3.016   5.397   3.874  0.5597 -0.2869 -0.5085
12123TIP3    H157784   3.011   5.444   3.957  0.5821 -0.2820 -0.5101
12123TIP3    H257785   2.932   5.415   3.831  0.5147 -0.3577 -0.4505
12124TIP3   OH257786   5.480   5.393  14.593 -0.1460  0.0295  0.1646
12124TIP3    H157787   5.386   5.388  14.579 -0.1799 -0.3265  0.5062
12124TIP3    H257788   5.512   5.447  14.521 -0.4516 -0.8564 -0.6527
12125TIP3   OH257789   1.695   5.792   1.143 -0.3017 -0.1953  0.6818
12125TIP3    H157790   1.690   5.791   1.239  1.5387  0.0560  0.8318
12125TIP3    H257791   1.718   5.702   1.120 -0.2084 -0.1326  0.5288
12126TIP3   OH257792   2.467   2.504  13.402  0.0385  0.6563  0.6043
12126TIP3    H157793   2.401   2.551  13.453 -0.3252 -0.6144  1.3289
12126TIP3    H257794   2.537   2.486  13.464  0.6413  1.0932  0.0804
12127TIP3   OH257795   5.140   3.986  13.124 -0.3484  0.0997  0.4330
12127TIP3    H157796   5.201   3.957  13.192 -0.3678  2.6674  1.6708
12127TIP3    H257797   5.164   4.077  13.107 -0.9524 -0.1776 -2.3932
12128TIP3   OH257798   0.686   0.578  12.788 -0.3959  0.1019  0.2134
12128TIP3    H157799   0.720   0.534  12.710 -1.4350  0.2781 -0.3581
12128TIP3    H257800   0.676   0.508  12.852 -1.6695 -0.4584 -0.5614
12129TIP3   OH257801   5.062   1.611  16.647  0.1292  0.1045  0.5063
12129TIP3    H157802   5.131   1.591  16.585 -0.7860 -1.0312 -0.1889
12129TIP3    H257803   5.052   1.706  16.643  1.7125  0.3123  0.7320
12130TIP3   OH257804   5.668   0.294  12.314 -0.7421 -0.5781  0.0878
12130TIP3    H157805   5.738   0.230  12.332  0.6454  1.0580  0.7931
12130TIP3    H257806   5.668   0.303  12.219  0.0799 -0.5472  0.0838
12131TIP3   OH257807   1.061   0.587  12.111  0.1867  0.1284  0.9956
12131TIP3    H157808   1.006   0.554  12.182  0.3860 -2.1350  0.1805
12131TIP3    H257809   1.028   0.675  12.094 -2.2946 -0.6270  1.4503
12132TIP3   OH257810   6.735   1.516  12.205  0.3526 -0.3930  0.0853
12132TIP3    H157811   6.684   1.588  12.242 -0.4929 -1.1484  0.4439
12132TIP3    H257812   6.790   1.556  12.138 -0.6680  0.4593 -0.2635
12133TIP3   OH257813   2.817   3.130  15.253 -0.4137  0.2004  0.4050
12133TIP3    H157814   2.884   3.108  15.189 -0.2042  1.7548  0.0331
12133TIP3    H257815   2.854   3.106  15.337 -0.1216 -0.5743  0.0615
12134TIP3   OH257816   0.400   4.383   2.003  0.6384  0.1656 -0.2648
12134TIP3    H157817   0.363   4.470   1.984  0.8475  0.3445  0.1296
12134TIP3    H257818   0.401   4.338   1.919  0.3825  0.4930 -0.4448
12135TIP3   OH257819   4.673   4.753  15.416 -0.3678 -0.3547 -0.1120
12135TIP3    H157820   4.651   4.800  15.336 -1.4836 -0.1488  0.2850
12135TIP3    H257821   4.764   4.727  15.406 -0.9066 -1.6361 -2.0852
12136TIP3   OH257822   2.277   5.230   1.550 -0.3456  0.1622 -0.0576
12136TIP3    H157823   2.224   5.151   1.544  0.1484 -0.0931 -1.5287
12136TIP3    H257824   2.367   5.199   1.556 -0.3071  0.5839  2.9666
12137TIP3   OH257825   1.900   2.322  15.572  0.1205  0.8059 -0.3260
12137TIP3    H157826   1.923   2.264  15.645  2.9012  2.4014  0.2165
12137TIP3    H257827   1.911   2.267  15.494  3.2841  0.6200  0.1282
12138TIP3   OH257828   4.556   3.309  12.255 -0.2036  0.4716  0.1071
12138TIP3    H157829   4.537   3.402  12.249  0.3443  0.6450  0.9638
12138TIP3    H257830   4.471   3.269  12.274 -0.5921  0.6902 -1.0618
12139TIP3   OH257831   3.849   1.858   2.629 -0.0737 -0.4949  0.2635
12139TIP3    H157832   3.897   1.936   2.659  2.5089 -1.7239 -0.3946
12139TIP3    H257833   3.869   1.853   2.535  0.3081 -2.2377  0.4126
12140TIP3   OH257834   4.766   3.738  12.122  0.3073 -0.3285 -0.2594
12140TIP3    H157835   4.767   3.642  12.127 -1.1445 -0.3149  0.9471
12140TIP3    H257836   4.812   3.758  12.040  0.7573 -2.0401 -0.4636
12141TIP3   OH257837   0.525   5.335  13.772 -0.1061  0.5642 -0.6309
12141TIP3    H157838   0.493   5.270  13.710 -2.2157  2.4858 -1.7083
12141TIP3    H257839   0.459   5.338  13.841 -0.6700  2.3045 -1.1933
12142TIP3   OH257840   5.482   6.785  13.855  0.2393  0.0430 -0.3855
12142TIP3    H157841   5.518   6.765  13.769  0.8813 -0.1121 -0.0782
12142TIP3    H257842   5.412   6.848  13.837 -0.0834 -0.5039 -1.0848
12143TIP3   OH257843   4.129   6.670  15.175 -0.0351 -0.3030  0.1047
12143TIP3    H157844   4.121   6.597  15.236 -0.2584  0.5231  1.0982
12143TIP3    H257845   4.216   6.706  15.191 -0.5061  0.5896  0.7395
12144TIP3   OH257846   2.024   2.549   0.739 -0.0358  0.4976  0.0214
12144TIP3    H157847   2.059   2.465   0.769  0.9263  1.9543  3.5197
12144TIP3    H257848   1.941   2.558   0.787 -1.6028  0.4093 -2.4830
12145TIP3   OH257849   0.868   0.349  14.464  0.0995  0.5231 -0.0801
12145TIP3    H157850   0.775   0.337  14.445 -0.6911  0.9840  2.9720
12145TIP3    H257851   0.878   0.443  14.478  1.1232  0.5187 -0.6510
12146TIP3   OH257852   6.667   0.134  13.705 -0.3404  0.0600  0.2336
12146TIP3    H157853   6.677   0.194  13.631  0.0760  0.4617  0.6095
12146TIP3    H257854   6.715   0.176  13.777 -4.6192  2.1277  2.2099
12147TIP3   OH257855   2.318   5.049  12.674  0.2957 -0.1879 -0.1833
12147TIP3    H157856   2.394   5.019  12.724 -0.1620 -3.5021 -1.2103
12147TIP3    H257857   2.345   5.044  12.583 -0.3880  1.1520 -0.4950
12148TIP3   OH257858   6.168   2.795  13.983  0.2150 -0.1917 -0.2977
12148TIP3    H157859   6.145   2.725  14.044 -0.2847  0.1099 -0.1271
12148TIP3    H257860   6.204   2.864  14.039  1.5740 -0.6666 -0.5673
12149TIP3   OH257861   4.702   6.061   2.943  0.1916 -0.2147  0.3256
12149TIP3    H157862   4.763   5.992   2.916 -0.8854 -0.4779 -1.5765
12149TIP3    H257863   4.616   6.020   2.939 -0.5087  1.2810 -1.1990
12150TIP3   OH257864   5.817   1.413  11.550  0.0090 -0.6619  0.5478
12150TIP3    H157865   5.845   1.497  11.589 -0.3800 -0.3636  0.1838
12150TIP3    H257866   5.751   1.437  11.486  0.6115 -1.1624 -0.2776
12151TIP3   OH257867   2.458   6.656  12.259  0.1027 -0.0999 -0.5959
12151TIP3    H157868   2.409   6.679  12.181 -0.1289  0.7047 -0.2300
12151TIP3    H257869   2.456   6.735  12.313  0.5167 -0.5383  0.0894
12152TIP3   OH257870   3.503   1.017   0.682  0.0359 -0.2871 -0.4864
12152TIP3    H157871   3.445   1.029   0.607 -1.0486 -1.3763  0.1492
12152TIP3    H257872   3.487   1.094   0.736 -0.4607 -0.3472 -0.5450
12153TIP3   OH257873   4.292   0.144   1.018  0.0684  0.7068 -0.3016
12153TIP3    H157874   4.205   0.160   1.055 -0.9203 -2.4292 -0.9711
12153TIP3    H257875   4.339   0.094   1.086  0.4994  0.3656 -0.8406
12154TIP3   OH257876   3.180   2.026  11.535  0.5859  0.4824  0.6830
12154TIP3    H157877   3.257   2.044  11.480  1.0452  0.2948  1.2610
12154TIP3    H257878   3.116   1.989  11.474  0.8178  0.9812  0.1226
12155TIP3   OH257879   3.992   5.811   6.024  0.0782 -0.1823  0.0819
12155TIP3    H157880   3.911   5.856   6.049  0.7154  0.8213  0.3833
12155TIP3    H257881   3.965   5.751   5.954 -1.1529 -0.7712  1.0166
12156TIP3   OH257882   4.626   5.451   0.378 -0.1199  0.2550  0.3876
12156TIP3    H157883   4.566   5.387   0.339 -0.7002  1.0955 -0.1195
12156TIP3    H257884   4.617   5.529   0.325  1.7402  0.2944  0.0463
12157TIP3   OH257885   2.749   3.777  15.271 -0.0899  0.4095  0.3509
12157TIP3    H157886   2.755   3.694  15.224 -0.2496  0.8679 -0.4911
12157TIP3    H257887   2.655   3.789  15.284 -0.0605  0.4185  0.5605
12158TIP3   OH257888   2.535   0.684  16.125 -0.7467  0.0344  1.0792
12158TIP3    H157889   2.572   0.595  16.120 -1.7561 -0.3335 -0.6936
12158TIP3    H257890   2.554   0.722  16.039 -3.3330  0.2640  0.5359
12159TIP3   OH257891   4.056   2.458   6.049 -0.1243  0.0626  0.2698
12159TIP3    H157892   4.011   2.375   6.059  0.0913 -0.0802  0.0622
12159TIP3    H257893   4.089   2.478   6.137 -0.7972  0.2900  0.4750
12160TIP3   OH257894   4.703   4.303  16.510  0.4818  0.1781  0.2259
12160TIP3    H157895   4.688   4.253  16.590 -1.1664  0.2565  0.0146
12160TIP3    H257896   4.733   4.389  16.540  0.4038  0.0283  0.7393
12161TIP3   OH257897   0.210   0.280   3.170 -0.6380 -0.3545 -0.4686
12161TIP3    H157898   0.122   0.303   3.199 -0.3511 -0.1233  0.2381
12161TIP3    H257899   0.238   0.353   3.115 -0.5321  0.0128  0.0688
12162TIP3   OH257900   3.952   6.051  15.419 -0.1180  0.2533 -0.4132
12162TIP3    H157901   3.881   6.113  15.436 -1.1902 -1.7106  3.2433
12162TIP3    H257902   3.914   5.986  15.360 -1.3173 -0.6163  1.2760
12163TIP3   OH257903   3.196   3.595   0.204 -0.5732  0.6625  0.3134
12163TIP3    H157904   3.264   3.637   0.257 -1.4404  1.4970  0.7856
12163TIP3    H257905   3.130   3.566   0.267 -1.8950  2.1775 -0.3206
12164TIP3   OH257906   1.313   0.470  12.026  0.7090  0.0243 -0.0473
12164TIP3    H157907   1.241   0.527  12.052  0.1734 -1.1578  1.1918
12164TIP3    H257908   1.296   0.450  11.934 -1.0305 -0.8643  0.4243
12165TIP3   OH257909   5.509   3.997   4.046  0.1079  1.2263  0.0810
12165TIP3    H157910   5.500   4.080   4.092 -1.9269  0.0260  2.0506
12165TIP3    H257911   5.482   3.931   4.110  0.4512 -0.8488 -1.7996
12166TIP3   OH257912   3.187   0.880   4.056  0.2686 -0.0954  0.2427
12166TIP3    H157913   3.200   0.894   4.150  1.4971 -1.7925  0.3769
12166TIP3    H257914   3.251   0.812   4.033 -0.1069  0.1788 -1.7982
12167TIP3   OH257915   3.635   1.816  16.837 -0.1611  0.2664 -0.1916
12167TIP3    H157916   3.571   1.824  16.907 -0.7217  1.1626 -0.7864
12167TIP3    H257917   3.720   1.824  16.880 -0.4880  0.4893  0.4218
12168TIP3   OH257918   4.369   4.111  14.796 -0.4345  0.1690  0.2440
12168TIP3    H157919   4.433   4.041  14.796 -1.3567 -0.8153 -2.4456
12168TIP3    H257920   4.396   4.168  14.724 -1.0890  1.1952  0.7949
12169TIP3   OH257921   2.015   2.885   2.176  0.4795  0.2857  0.3212
12169TIP3    H157922   1.937   2.828   2.171  2.2786 -2.4760  1.1621
12169TIP3    H257923   2.023   2.906   2.269  1.1766 -0.1376  0.3614
12170TIP3   OH257924   1.415   4.354   0.296 -0.1974 -0.4055 -0.4142
12170TIP3    H157925   1.393   4.419   0.229  0.0953 -0.9264 -1.0200
12170TIP3    H257926   1.472   4.401   0.357  2.1119 -0.7246 -2.1803
12171TIP3   OH257927   1.235   1.458  16.550 -0.2771  0.2164  0.2086
12171TIP3    H157928   1.165   1.418  16.498  0.9206  0.6134 -1.8272
12171TIP3    H257929   1.200   1.544  16.574 -0.9732 -0.0899  0.3349
12172TIP3   OH257930   1.058   3.178  14.113  0.1761  0.9700  0.5552
12172TIP3    H157931   1.031   3.259  14.070 -1.8301  0.2745  0.3633
12172TIP3    H257932   1.038   3.192  14.205 -0.2245  0.6910  0.5144
12173TIP3   OH257933   2.311   5.184  14.563  0.5563  0.1020  0.4307
12173TIP3    H157934   2.240   5.177  14.626  0.2631  4.2262  0.7971
12173TIP3    H257935   2.388   5.204  14.616  0.3939  3.1699 -0.2967
12174TIP3   OH257936   4.400   6.088   5.473 -0.4398 -0.5172 -0.4452
12174TIP3    H157937   4.346   6.032   5.417 -1.8132  0.3825 -0.0838
12174TIP3    H257938   4.340   6.158   5.500  1.1977  1.1121 -0.8595
12175TIP3   OH257939   6.057   0.810   1.567  0.2513 -0.2679 -0.2791
12175TIP3    H157940   6.052   0.803   1.471  0.6449  0.3164 -0.3452
12175TIP3    H257941   5.998   0.882   1.589  1.5620  0.8178 -0.2582
12176TIP3   OH257942   2.151   0.365  13.603  0.0756 -0.4401  0.0837
12176TIP3    H157943   2.137   0.396  13.692 -1.5463 -0.7797 -0.0254
12176TIP3    H257944   2.142   0.444  13.549  1.0465 -0.2363  0.2068
12177TIP3   OH257945   0.506   6.435  11.912 -0.3340  0.7966  0.2727
12177TIP3    H157946   0.533   6.343  11.909  1.1431  1.1790  0.8977
12177TIP3    H257947   0.460   6.449  11.829  2.0184  0.2559 -1.2244
12178TIP3   OH257948   5.782   5.797  17.171  0.1872  0.3586 -0.0432
12178TIP3    H157949   5.857   5.855  17.182  0.2305  0.0715  1.2284
12178TIP3    H257950   5.709   5.856  17.150  0.4663  0.7635  0.1064
12179TIP3   OH257951   1.511   0.646   4.055 -0.3087 -0.3133  0.1260
12179TIP3    H157952   1.597   0.675   4.084 -0.1999 -0.6494  0.1422
12179TIP3    H257953   1.450   0.706   4.098 -0.0565  0.3503 -0.4147
12180TIP3   OH257954   6.294   1.152   1.373 -0.0448 -0.1554 -0.0458
12180TIP3    H157955   6.241   1.227   1.346  0.9574  0.4610 -0.3549
12180TIP3    H257956   6.349   1.187   1.444  1.5846 -0.1253 -1.2699
12181TIP3   OH257957   3.679   5.476  16.311  0.4003 -0.7144 -0.1560
12181TIP3    H157958   3.626   5.489  16.390  0.4307 -3.1641  0.3522
12181TIP3    H257959   3.622   5.427  16.252  1.5516 -2.1195 -0.1716
12182TIP3   OH257960   4.573   6.602   6.308  0.1220 -0.3972 -0.3484
12182TIP3    H157961   4.621   6.653   6.374 -1.6789  1.1645 -0.1138
12182TIP3    H257962   4.505   6.558   6.359 -0.2313 -0.5439 -0.9481
12183TIP3   OH257963   6.104   3.112  13.464  0.0964 -0.1522 -0.8765
12183TIP3    H157964   6.026   3.058  13.457 -0.7037  0.9901 -1.0341
12183TIP3    H257965   6.084   3.191  13.413  0.3113  1.3241  1.1849
12184TIP3   OH257966   0.328   0.533  16.116 -0.1768 -0.1171 -0.1276
12184TIP3    H157967   0.375   0.599  16.166  0.7601 -0.2843 -0.7554
12184TIP3    H257968   0.308   0.576  16.033 -1.2440 -0.0136  0.1736
12185TIP3   OH257969   6.364   0.209  16.945  0.7426 -0.0004  0.1977
12185TIP3    H157970   6.276   0.171  16.954  0.5312  0.6837  1.0903
12185TIP3    H257971   6.364   0.284  17.004  0.9897  1.7207 -1.8825
12186TIP3   OH257972   0.486   5.747   4.036  0.1271  0.0603  0.3338
12186TIP3    H157973   0.502   5.667   4.086 -1.2947 -0.2616  0.3016
12186TIP3    H257974   0.430   5.801   4.092  2.1929  1.6959  0.9567
12187TIP3   OH257975   3.377   6.205  11.596  0.2092  0.1785  0.2446
12187TIP3    H157976   3.340   6.285  11.559  1.0373  0.5736  0.2536
12187TIP3    H257977   3.398   6.229  11.687 -0.7578 -0.4486  0.6555
12188TIP3   OH257978   5.997   4.449   1.198  0.5295 -0.2798 -0.2579
12188TIP3    H157979   6.008   4.535   1.159  1.4666 -0.5435 -0.6110
12188TIP3    H257980   6.071   4.439   1.258  0.4970 -0.8765 -0.3026
12189TIP3   OH257981   4.804   0.095   2.793  0.0201  0.2300 -0.2488
12189TIP3    H157982   4.752   0.087   2.873 -0.3480 -0.5170 -0.5607
12189TIP3    H257983   4.872   0.028   2.801 -0.1541  0.0017 -0.6654
12190TIP3   OH257984   3.109   5.189  13.720 -0.7169  0.0236  0.4343
12190TIP3    H157985   3.159   5.263  13.686 -0.3813 -1.5085 -2.6775
12190TIP3    H257986   3.018   5.217  13.715 -0.6180  0.1101 -1.1081
12191TIP3   OH257987   4.172   2.196   0.995  0.2300 -0.6674  0.2357
12191TIP3    H157988   4.193   2.289   0.986 -0.3718 -0.4153  1.2640
12191TIP3    H257989   4.100   2.193   1.057  0.9228 -1.8973  1.0423
12192TIP3   OH257990   0.670   0.016  14.460 -0.1974  0.1741 -0.0559
12192TIP3    H157991   0.641   0.090  14.514 -1.8744 -0.4139 -0.0977
12192TIP3    H257992   0.607   0.012  14.389  1.8551  0.8066 -2.0391
12193TIP3   OH257993   6.600   3.374   0.250 -0.4956  1.0277  0.5127
12193TIP3    H157994   6.634   3.413   0.169 -0.8334 -0.3976 -0.3614
12193TIP3    H257995   6.507   3.395   0.250 -0.8168 -0.2313 -0.2985
12194TIP3   OH257996   5.230   6.048  15.201  0.5485  0.0937 -0.2248
12194TIP3    H157997   5.185   5.968  15.176 -1.2068  0.6873  0.8359
12194TIP3    H257998   5.259   6.086  15.118  0.4785 -1.1049 -0.8126
12195TIP3   OH257999   4.493   1.407   0.029  0.1299  0.0942  0.6466
12195TIP3    H158000   4.427   1.474   0.015 -0.0016 -0.1504  0.0535
12195TIP3    H258001   4.505   1.404   0.123  1.0306  1.8060  0.6217
12196TIP3   OH258002   1.529   0.511  14.246 -0.2521  0.7049  0.0688
12196TIP3    H158003   1.483   0.505  14.162  0.7769  2.8942 -0.7155
12196TIP3    H258004   1.610   0.463  14.232 -1.5768 -1.9984  1.0254
12197TIP3   OH258005   6.705   2.381  14.398 -0.6226  0.3283 -0.0047
12197TIP3    H158006   6.659   2.428  14.468  0.6450  2.0133 -0.2234
12197TIP3    H258007   6.745   2.450  14.345  0.3888 -0.9890 -1.0393
12198TIP3   OH258008   4.142   6.501  11.592 -0.2131 -0.1438 -0.7124
12198TIP3    H158009   4.224   6.538  11.627  0.9935 -2.5123 -0.8394
12198TIP3    H258010   4.155   6.500  11.497  0.7263 -2.7462 -0.6321
12199TIP3   OH258011   3.310   6.181  16.036  0.0847 -0.0837 -0.1610
12199TIP3    H158012   3.232   6.233  16.016  0.8813  0.7525 -1.2710
12199TIP3    H258013   3.375   6.211  15.972  1.9992  0.7693  2.0233
12200TIP3   OH258014   1.318   2.736   5.018 -0.7035 -0.2501  0.1759
12200TIP3    H158015   1.313   2.640   5.017 -1.7343 -0.2537  2.1315
12200TIP3    H258016   1.346   2.758   5.107 -1.7362  1.3093  0.1552
12201TIP3   OH258017   1.160   1.924   3.067  0.2964  0.4919 -0.6896
12201TIP3    H158018   1.181   1.885   3.152  0.2876  0.0879 -0.8710
12201TIP3    H258019   1.108   1.857   3.022  0.5442  0.5919 -1.1282
12202TIP3   OH258020   6.743   4.966   4.664 -0.0274 -0.4319  0.1528
12202TIP3    H158021   6.710   5.038   4.718 -0.8536 -1.8219  1.5971
12202TIP3    H258022   6.718   4.887   4.712  1.5962 -1.6740 -0.9421
12203TIP3   OH258023   2.837   3.606  13.916 -0.2970 -0.5800  0.2636
12203TIP3    H158024   2.751   3.618  13.875  0.4811  0.8813 -1.0536
12203TIP3    H258025   2.885   3.551  13.854  0.0734 -0.4918  0.4708
12204TIP3   OH258026   4.152   1.788  17.030  0.3572  0.1549  0.6886
12204TIP3    H158027   4.197   1.732  16.966  0.6401  0.5880  0.5072
12204TIP3    H258028   4.059   1.770  17.016  0.4114  0.3247  0.0825
12205TIP3   OH258029   3.669   1.951  15.963  0.3154  0.8444 -0.9657
12205TIP3    H158030   3.582   1.989  15.950 -1.1899 -1.6108  1.0890
12205TIP3    H258031   3.714   2.014  16.021 -0.9222  1.0879 -0.2309
12206TIP3   OH258032   5.572   1.093   0.979 -0.4014 -0.0271  0.6089
12206TIP3    H158033   5.515   1.170   0.982 -1.9104 -1.0721  0.2079
12206TIP3    H258034   5.511   1.018   0.975  0.9399 -1.1215 -2.0350
12207TIP3   OH258035   0.079   5.614  14.849  0.3397 -0.8013 -0.0100
12207TIP3    H158036   0.092   5.622  14.754 -0.3354  1.4895  0.0192
12207TIP3    H258037   0.101   5.701  14.884 -4.3607  0.2364  1.2248
12208TIP3   OH258038   2.692   5.398   1.324  0.1622  0.2997 -0.3232
12208TIP3    H158039   2.780   5.361   1.322  0.5415  0.8943  1.9791
12208TIP3    H258040   2.677   5.419   1.417 -1.8445  1.5193 -0.8565
12209TIP3   OH258041   0.210   3.759  16.035 -0.7133  0.1950 -0.2989
12209TIP3    H158042   0.174   3.684  16.082 -0.7879  1.1361  1.2045
12209TIP3    H258043   0.138   3.790  15.980 -1.2490  0.2483  0.4240
12210TIP3   OH258044   5.937   0.846  15.216 -0.0943  0.2274 -0.9535
12210TIP3    H158045   6.022   0.835  15.259  0.3921  1.8494 -1.4228
12210TIP3    H258046   5.952   0.821  15.125 -0.2700 -0.0276 -0.9134
12211TIP3   OH258047   2.265   1.378  13.228 -0.2370 -0.0478 -0.8979
12211TIP3    H158048   2.328   1.448  13.210  0.4910 -1.1578 -2.8145
12211TIP3    H258049   2.314   1.314  13.279 -0.2749 -0.1813 -1.0300
12212TIP3   OH258050   3.531   0.928   2.099 -0.4847 -0.9149 -0.2247
12212TIP3    H158051   3.576   0.926   2.183 -0.4366  2.0539 -0.0721
12212TIP3    H258052   3.439   0.910   2.120 -0.3076 -1.1836  0.3158
12213TIP3   OH258053   0.590   5.278  13.382 -0.0775  0.5613 -0.4310
12213TIP3    H158054   0.526   5.349  13.379 -1.4946 -0.6934 -1.5519
12213TIP3    H258055   0.559   5.222  13.453 -0.1684  0.0036 -0.9066
12214TIP3   OH258056   0.468   5.363   3.923 -0.0511  0.5138 -0.3225
12214TIP3    H158057   0.534   5.358   3.854  1.7826  2.3799  1.1589
12214TIP3    H258058   0.427   5.448   3.910  0.9817  1.3184  1.3623
12215TIP3   OH258059   6.767   0.444  16.813  0.2532 -0.1663 -0.5778
12215TIP3    H158060   6.754   0.526  16.765  1.4199 -0.0797 -0.7761
12215TIP3    H258061   6.716   0.456  16.894 -0.5020  0.2911 -1.1019
12216TIP3   OH258062   5.720   6.353  16.759 -0.3453  0.5350  0.3377
12216TIP3    H158063   5.627   6.346  16.736  0.0032  1.1840 -1.4049
12216TIP3    H258064   5.757   6.267  16.738 -0.1641  0.9151 -0.9585
12217TIP3   OH258065   3.732   3.743  16.687  0.5804  0.2900 -0.3889
12217TIP3    H158066   3.795   3.673  16.704 -1.0514 -0.8596  1.2952
12217TIP3    H258067   3.729   3.750  16.592 -0.2431 -2.9599 -0.7080
12218TIP3   OH258068   2.393   1.743  12.055  0.7331 -0.0629 -0.4999
12218TIP3    H158069   2.452   1.724  11.982 -1.2264  0.7014 -2.4082
12218TIP3    H258070   2.313   1.776  12.013  0.1388  2.1325  2.0897
12219TIP3   OH258071   6.532   6.523   5.737  0.1013 -0.3038 -0.3583
12219TIP3    H158072   6.625   6.499   5.735  0.7027  1.7227  0.4601
12219TIP3    H258073   6.513   6.541   5.829 -1.1178 -0.6809 -0.5135
12220TIP3   OH258074   6.534   5.010  14.350 -0.2374 -0.6236  0.4409
12220TIP3    H158075   6.551   4.917  14.338  0.6454 -0.2044 -1.9770
12220TIP3    H258076   6.471   5.033  14.281  0.0732  0.7122  0.5655
12221TIP3   OH258077   3.633   3.174   0.711 -0.6120 -0.1877 -0.2258
12221TIP3    H158078   3.666   3.113   0.777 -2.0251  0.1845  0.8910
12221TIP3    H258079   3.577   3.120   0.655 -0.5059 -0.2369 -0.2851
12222TIP3   OH258080   3.193   2.908   0.266 -0.0486  0.0309  0.6808
12222TIP3    H158081   3.258   2.897   0.335  1.3399  0.3228 -0.5195
12222TIP3    H258082   3.108   2.897   0.309  0.8267 -2.2697  1.9624
12223TIP3   OH258083   4.041   2.279   1.463  0.4564  0.3167 -0.2389
12223TIP3    H158084   4.024   2.336   1.538  0.5678  1.0789 -0.7824
12223TIP3    H258085   4.083   2.201   1.501  1.1559  0.9988  0.4181
12224TIP3   OH258086   1.964   6.009  13.084 -0.7933  0.3873  0.4072
12224TIP3    H158087   1.995   5.925  13.051 -1.3918  0.8050 -1.3014
12224TIP3    H258088   2.024   6.030  13.156  0.7254 -0.4717 -0.5523
12225TIP3   OH258089   0.860   3.414   6.698 -0.1361 -0.2752  0.0340
12225TIP3    H158090   0.876   3.455   6.783 -0.6303 -0.4541  0.2182
12225TIP3    H258091   0.772   3.442   6.674 -0.0937 -0.4280 -0.3007
12226TIP3   OH258092   2.961   3.228   6.379 -0.0764  0.1688 -0.1022
12226TIP3    H158093   3.012   3.223   6.459 -0.0202 -0.7485 -0.1794
12226TIP3    H258094   3.026   3.245   6.310 -0.2645  2.2244  0.1705
12227TIP3   OH258095   3.672   6.403  14.355  0.0522  0.1926 -0.1888
12227TIP3    H158096   3.749   6.458  14.351 -0.8520  1.6010  0.8219
12227TIP3    H258097   3.673   6.366  14.444 -1.5567  2.0284  0.6776
12228TIP3   OH258098   5.350   4.588   3.686  0.1187  0.4437  0.5403
12228TIP3    H158099   5.304   4.662   3.646 -2.2534 -1.1379  0.0702
12228TIP3    H258100   5.332   4.596   3.779 -0.9383  0.0139  0.3931
12229TIP3   OH258101   3.539   0.355  11.309 -0.4328  0.2580  0.3672
12229TIP3    H158102   3.563   0.426  11.248 -0.7671  0.2633  0.2384
12229TIP3    H258103   3.622   0.313  11.330 -0.3571 -0.0067 -0.4175
12230TIP3   OH258104   6.303   6.739  15.645 -0.4462  0.5088 -0.8661
12230TIP3    H158105   6.343   6.748  15.559  0.8787  0.4637 -0.2823
12230TIP3    H258106   6.352   6.800  15.701 -2.0951  1.4575 -0.3998
12231TIP3   OH258107   5.187   4.924   3.191  0.1993 -0.0497 -0.3189
12231TIP3    H158108   5.206   4.987   3.261 -1.4490 -0.7061  0.7816
12231TIP3    H258109   5.237   4.846   3.214  0.7700  0.2088 -0.6624
12232TIP3   OH258110   1.329   4.237  16.988  0.0238  0.8114  0.2758
12232TIP3    H158111   1.342   4.257  16.895  1.6124  1.2574  0.5649
12232TIP3    H258112   1.281   4.312  17.022 -1.1695  0.3329 -0.3113
12233TIP3   OH258113   6.361   0.162  15.963  0.1933  0.0591 -0.1540
12233TIP3    H158114   6.398   0.084  15.922 -1.5182 -0.5080 -0.7138
12233TIP3    H258115   6.427   0.190  16.026  2.1366 -0.0927 -2.0154
12234TIP3   OH258116   2.347   6.391  11.442  0.4455  0.9582 -0.6098
12234TIP3    H158117   2.383   6.321  11.495 -0.7858 -0.1370 -1.1750
12234TIP3    H258118   2.397   6.386  11.360 -0.5015 -0.1294 -1.1431
12235TIP3   OH258119   0.834   0.522   0.989 -0.0673 -0.1382  0.7326
12235TIP3    H158120   0.865   0.535   0.900  1.3671  0.3583  1.2678
12235TIP3    H258121   0.913   0.496   1.038 -0.7465 -0.0120  1.9255
12236TIP3   OH258122   5.445   0.445  11.624 -0.1515  0.2292  0.1235
12236TIP3    H158123   5.487   0.361  11.605  0.3028  0.6409 -0.7723
12236TIP3    H258124   5.517   0.504  11.645 -0.2167  0.9711 -1.5346
12237TIP3   OH258125   3.064   4.884  15.098  0.2917  0.2801  0.3178
12237TIP3    H158126   3.059   4.919  15.186 -1.6498  0.8858  0.0150
12237TIP3    H258127   3.031   4.954  15.042 -1.9943 -1.2967 -0.4811
12238TIP3   OH258128   2.533   5.131  12.209  0.0499 -0.9919  0.3858
12238TIP3    H158129   2.505   5.118  12.299  0.1532 -0.7535  0.4531
12238TIP3    H258130   2.533   5.226  12.197 -1.4274 -1.0588 -0.3299
12239TIP3   OH258131   3.041   4.497  17.133  0.1613  0.5599  0.3922
12239TIP3    H158132   3.048   4.472  17.225  1.3305 -0.9973 -0.0844
12239TIP3    H258133   2.953   4.468  17.107 -0.1113  0.8561  0.9563
12240TIP3   OH258134   3.756   1.888   1.582 -0.5518  0.2896  0.2442
12240TIP3    H158135   3.830   1.831   1.599  0.4201  1.1354 -0.9451
12240TIP3    H258136   3.779   1.970   1.626 -1.6096  0.0137  1.3512
12241TIP3   OH258137   0.606   5.209  16.544 -0.5282  0.1429 -0.4107
12241TIP3    H158138   0.650   5.255  16.616 -1.9366 -0.0235  0.5972
12241TIP3    H258139   0.539   5.270  16.514 -0.9923 -0.4100 -0.5150
12242TIP3   OH258140   6.417   5.246   0.796  0.1518  0.4874 -0.3570
12242TIP3    H158141   6.413   5.321   0.856  0.0827 -0.9682  1.5661
12242TIP3    H258142   6.502   5.205   0.815  1.0988  1.1441 -2.8182
12243TIP3   OH258143   4.999   5.418   5.253 -0.6545 -0.0036  0.0711
12243TIP3    H158144   4.934   5.485   5.277  0.6452  0.2767  3.3501
12243TIP3    H258145   4.948   5.338   5.243 -1.9372  0.9405 -1.5577
12244TIP3   OH258146   4.848   3.244   6.184 -0.3888 -0.0111  0.1162
12244TIP3    H158147   4.916   3.208   6.241 -0.5102  1.4929  1.2451
12244TIP3    H258148   4.796   3.300   6.240 -0.9530  0.9662 -1.3153
12245TIP3   OH258149   2.945   4.231   4.869  0.0851  0.1680  0.8692
12245TIP3    H158150   2.941   4.210   4.962  0.8589 -0.0852  0.8587
12245TIP3    H258151   2.955   4.146   4.826  0.7619  0.3519  0.6412
12246TIP3   OH258152   5.302   5.944  13.337 -0.2786 -0.6434 -0.8102
12246TIP3    H158153   5.313   6.034  13.369 -0.4137 -1.0624  0.4500
12246TIP3    H258154   5.391   5.915  13.317 -0.2355 -0.2288 -1.2495
12247TIP3   OH258155   4.283   4.209   3.550  0.5257  0.4404  0.4273
12247TIP3    H158156   4.221   4.254   3.492 -0.7292 -0.5625  0.9335
12247TIP3    H258157   4.347   4.170   3.491 -1.9303 -2.4240 -0.5953
12248TIP3   OH258158   2.701   2.977   3.407 -0.0978  0.2694 -0.2827
12248TIP3    H158159   2.652   2.910   3.359  0.7951 -1.0450  0.5892
12248TIP3    H258160   2.786   2.937   3.423  1.1186  2.3017 -1.3018
12249TIP3   OH258161   2.829   5.352   0.228  0.1171 -0.4329  0.1406
12249TIP3    H158162   2.847   5.362   0.322  0.6014  0.5387 -0.0384
12249TIP3    H258163   2.738   5.379   0.219  0.2895  0.2186  0.2374
12250TIP3   OH258164   6.305   2.108   0.386 -0.1912 -0.5281  0.0023
12250TIP3    H158165   6.237   2.150   0.439 -0.0376  0.4023 -0.5211
12250TIP3    H258166   6.360   2.180   0.357  0.2048 -1.1263 -0.7521
12251TIP3   OH258167   6.697   5.397   4.638 -0.3217 -0.6118  0.0402
12251TIP3    H158168   6.669   5.326   4.580 -1.9103 -0.0282  0.0299
12251TIP3    H258169   6.733   5.463   4.579 -0.2477 -0.7797 -0.1022
12252TIP3   OH258170   6.118   6.580  16.977  0.2665  0.5458  0.0200
12252TIP3    H158171   6.128   6.617  16.889 -1.1707  2.3568  0.5810
12252TIP3    H258172   6.205   6.591  17.017  0.4777  1.2214 -0.6059
12253TIP3   OH258173   6.631   3.496  14.411 -0.3900 -0.2880 -0.4287
12253TIP3    H158174   6.543   3.525  14.436 -0.9916 -2.6553  0.5477
12253TIP3    H258175   6.687   3.525  14.483 -0.2795  1.4812 -1.1925
12254TIP3   OH258176   3.789   4.397  13.598 -0.0693 -0.2002 -0.0518
12254TIP3    H158177   3.728   4.373  13.667 -1.1038 -0.4147 -1.0121
12254TIP3    H258178   3.871   4.415  13.643 -0.7258 -0.3282  1.2219
12255TIP3   OH258179   4.607   3.236   3.290  0.3989  0.0930  0.4918
12255TIP3    H158180   4.630   3.180   3.363 -0.7598  0.4965  1.2009
12255TIP3    H258181   4.551   3.182   3.234  0.5148  0.0749  0.3929
12256TIP3   OH258182   4.953   6.765   1.115  0.3799  0.3552 -0.3981
12256TIP3    H158183   4.962   6.819   1.037  0.8030 -0.6805 -1.0979
12256TIP3    H258184   4.871   6.718   1.103 -0.8601  2.0198  1.0030
12257TIP3   OH258185   3.284   4.322  11.668 -0.1676 -0.4212  0.3619
12257TIP3    H158186   3.289   4.229  11.689 -0.5198 -1.1199 -2.2186
12257TIP3    H258187   3.375   4.349  11.657 -0.0980 -0.8204 -0.1089
12258TIP3   OH258188   2.515   1.570   0.718 -0.4298  0.2574 -0.4283
12258TIP3    H158189   2.448   1.618   0.670 -0.3400 -1.2470 -2.1872
12258TIP3    H258190   2.466   1.502   0.765 -0.2609 -0.0538 -0.6990
12259TIP3   OH258191   0.891   0.730   0.455  0.1066 -0.1242 -0.5229
12259TIP3    H158192   0.886   0.758   0.363  0.0894 -0.9698 -0.7815
12259TIP3    H258193   0.827   0.660   0.463  1.5511 -1.4761 -0.3969
12260TIP3   OH258194   1.338   1.990  15.707 -0.2821  0.1626  0.2954
12260TIP3    H158195   1.310   1.945  15.787  1.1611  0.5764  1.0795
12260TIP3    H258196   1.259   1.998  15.654 -0.9400 -1.7048  0.9028
12261TIP3   OH258197   4.693   4.197  12.630 -0.5075 -0.0391  0.2341
12261TIP3    H158198   4.784   4.168  12.624 -1.0714 -1.9232 -0.2087
12261TIP3    H258199   4.675   4.202  12.724 -0.0445 -0.0475  0.3244
12262TIP3   OH258200   4.419   4.938   0.987  0.0123 -0.1551 -0.4177
12262TIP3    H158201   4.342   4.975   1.032 -1.5457 -1.0402 -2.2280
12262TIP3    H258202   4.448   4.867   1.044 -1.8260 -1.1650 -0.6576
12263TIP3   OH258203   4.046   4.868  16.644 -0.3482 -0.4919  0.5896
12263TIP3    H158204   3.984   4.913  16.586 -0.8099 -3.1173 -1.1267
12263TIP3    H258205   3.991   4.805  16.692  0.6974 -1.5498  0.4304
12264TIP3   OH258206   6.777   3.369   0.659 -0.2600  0.1005 -0.4763
12264TIP3    H158207   6.731   3.318   0.726  1.2104 -0.6368  0.0374
12264TIP3    H258208   6.728   3.450   0.652 -1.9758 -0.8842 -0.4223
12265TIP3   OH258209   1.792   0.895  13.054 -0.4162 -0.1816  0.0049
12265TIP3    H158210   1.736   0.847  12.993 -0.5874 -0.5568  0.4493
12265TIP3    H258211   1.735   0.913  13.129 -0.4482  1.0189 -0.2993
12266TIP3   OH258212   6.071   3.861  12.627  0.3087 -0.4952 -0.1200
12266TIP3    H158213   6.063   3.850  12.722  0.7725 -2.8998 -0.2975
12266TIP3    H258214   5.989   3.902  12.601  0.4706  0.8870  1.3840
12267TIP3   OH258215   4.540   3.098  16.114 -0.5349  0.2078  0.3338
12267TIP3    H158216   4.550   3.113  16.208 -0.1816  1.4181  0.1210
12267TIP3    H258217   4.498   3.012  16.107 -0.4936  0.0758  1.5904
12268TIP3   OH258218   5.223   4.784  15.573  0.2505  0.3485  0.5475
12268TIP3    H158219   5.284   4.730  15.523 -0.0159 -1.4990  2.1076
12268TIP3    H258220   5.273   4.812  15.650 -0.5082 -0.3067  1.3032
12269TIP3   OH258221   3.649   6.438   5.386  0.1089 -0.1927 -0.3651
12269TIP3    H158222   3.559   6.470   5.373  0.3928  1.3647  1.2002
12269TIP3    H258223   3.639   6.360   5.440 -0.3285 -0.0022 -0.1634
12270TIP3   OH258224   4.302   5.699   0.021  0.0247 -0.2483 -0.2708
12270TIP3    H158225   4.239   5.628   0.033 -0.2984  0.3936  3.0184
12270TIP3    H258226   4.324   5.697  -0.072 -2.2753 -2.6494 -0.8887
12271TIP3   OH258227   3.717   5.427   3.251  0.8145 -0.0009 -0.0549
12271TIP3    H158228   3.741   5.442   3.343  0.6888  0.1165 -0.0407
12271TIP3    H258229   3.702   5.333   3.245 -1.0810  0.2164  0.5125
12272TIP3   OH258230   0.828   1.924   4.976  0.1490 -0.3026  0.3821
12272TIP3    H158231   0.887   1.871   4.922 -1.2510 -1.1375 -0.4005
12272TIP3    H258232   0.755   1.865   4.995 -0.2476  0.5723  1.6692
12273TIP3   OH258233   6.105   3.528   0.376 -0.2994  0.3043 -0.4012
12273TIP3    H158234   6.036   3.461   0.370  0.0309 -0.1049  0.2614
12273TIP3    H258235   6.151   3.508   0.457  1.8851 -0.6733 -1.7796
12274TIP3   OH258236   5.791   3.013   1.490  0.1042 -0.0984  0.2590
12274TIP3    H158237   5.708   3.031   1.444  0.0960 -0.4797  0.1216
12274TIP3    H258238   5.835   3.098   1.492 -0.5925  0.2565  0.9460
12275TIP3   OH258239   3.987   4.439   5.068  0.2967  0.2323 -0.3086
12275TIP3    H158240   4.057   4.375   5.083 -0.3083 -0.5407 -0.7211
12275TIP3    H258241   4.008   4.479   4.984  0.6519  0.5582 -0.0700
12276TIP3   OH258242   2.543   5.183   0.406 -0.2692 -0.3729  0.0754
12276TIP3    H158243   2.615   5.160   0.465 -1.3562 -1.7016  0.9585
12276TIP3    H258244   2.552   5.277   0.393  3.5407 -0.8708 -2.5206
12277TIP3   OH258245   1.882   0.553   1.902 -0.4642 -0.0481  0.2104
12277TIP3    H158246   1.938   0.573   1.977 -1.5196  0.1690  0.9476
12277TIP3    H258247   1.827   0.631   1.891 -0.7915 -0.3524 -0.3590
12278TIP3   OH258248   4.903   1.562  17.149 -0.0251  0.3450  0.3329
12278TIP3    H158249   4.953   1.549  17.068  0.9500 -1.0585  1.1256
12278TIP3    H258250   4.814   1.533  17.126 -0.5770  2.8102 -1.0674
12279TIP3   OH258251   3.129   6.752  16.075 -0.0135 -0.1677 -0.1816
12279TIP3    H158252   3.144   6.667  16.033  0.9437 -0.1463  0.0885
12279TIP3    H258253   3.131   6.815  16.003 -1.2672 -0.4186 -0.4536
12280TIP3   OH258254   1.921   4.105   3.729 -0.6023 -0.0359  0.0964
12280TIP3    H158255   1.841   4.115   3.780 -1.1777  3.2019 -1.2254
12280TIP3    H258256   1.990   4.092   3.794 -1.6077  1.7354  1.6140
12281TIP3   OH258257   6.118   0.941   1.313 -0.0339 -0.2430 -0.0338
12281TIP3    H158258   6.138   0.920   1.222 -0.3618 -2.3017  0.3311
12281TIP3    H258259   6.159   1.026   1.327  1.5138 -0.6761 -1.5976
12282TIP3   OH258260   6.480   2.514  13.641  0.2938 -0.0168 -0.7312
12282TIP3    H158261   6.466   2.535  13.548 -0.3245 -1.4025 -0.9698
12282TIP3    H258262   6.431   2.433  13.655 -1.8045  1.4988  1.4493
12283TIP3   OH258263   0.480   4.796   1.914 -0.3320 -0.2766  0.0657
12283TIP3    H158264   0.477   4.817   2.008 -0.1668 -2.9874  0.7407
12283TIP3    H258265   0.414   4.728   1.902  1.0478 -1.4475 -1.3657
12284TIP3   OH258266   0.620   3.965   1.358 -0.0809 -0.1995  0.2129
12284TIP3    H158267   0.709   3.973   1.325  0.0264  3.1662  1.0017
12284TIP3    H258268   0.573   4.038   1.319 -1.7724 -0.2866  1.9374
12285TIP3   OH258269   0.282   3.307   1.382 -0.0246 -0.5388  0.2588
12285TIP3    H158270   0.286   3.217   1.348 -1.4943  0.0208 -1.5332
12285TIP3    H258271   0.214   3.303   1.450 -1.0759 -0.5353 -0.7615
12286TIP3   OH258272   6.290   2.432   4.118 -0.1424 -0.1572 -0.9471
12286TIP3    H158273   6.321   2.463   4.033 -0.4457  1.1744 -0.5972
12286TIP3    H258274   6.238   2.505   4.153  0.2453 -0.5422  0.5175
12287TIP3   OH258275   0.940   4.844   3.331 -0.0201  0.3165 -0.0141
12287TIP3    H158276   0.916   4.793   3.408  0.8488 -1.1187 -0.6299
12287TIP3    H258277   0.861   4.845   3.277 -0.2077  0.0804  0.2519
12288TIP3   OH258278   1.487   3.710   0.479  0.1163  0.6598 -0.1714
12288TIP3    H158279   1.496   3.708   0.384  2.0584 -0.7632 -0.0138
12288TIP3    H258280   1.498   3.619   0.506 -1.2816  0.9086  1.3697
12289TIP3   OH258281   2.269   5.267   2.349 -0.6412  0.1669  0.0141
12289TIP3    H158282   2.299   5.353   2.319  0.6526  0.2964  1.5573
12289TIP3    H258283   2.283   5.209   2.274  0.1224  0.9685 -0.4818
12290TIP3   OH258284   0.880   4.849   4.457  0.5318 -0.1142  0.0321
12290TIP3    H158285   0.873   4.943   4.443 -1.1748 -0.0476  0.9618
12290TIP3    H258286   0.953   4.838   4.518 -1.5589  1.0563  3.0009
12291TIP3   OH258287   5.496   5.904  12.005 -0.3536 -0.2047  0.2962
12291TIP3    H158288   5.585   5.904  12.042 -0.0292 -1.6396 -0.3921
12291TIP3    H258289   5.510   5.895  11.910 -1.2347 -0.2899  0.1714
12292TIP3   OH258290   4.905   6.671   5.668  0.1131 -0.2799  0.0454
12292TIP3    H158291   4.917   6.762   5.694  0.1788  0.0328 -1.0020
12292TIP3    H258292   4.994   6.635   5.664 -0.0010 -0.9415  2.2084
12293TIP3   OH258293   2.083   1.208   0.063  0.3223 -0.1347  0.4899
12293TIP3    H158294   2.053   1.259   0.138  0.0247 -1.8602  1.6062
12293TIP3    H258295   2.118   1.273   0.002 -1.3244  1.5204  1.2077
12294TIP3   OH258296   2.784   0.442   5.385 -0.1793 -0.1322  0.5904
12294TIP3    H158297   2.826   0.517   5.426  3.2208 -0.6656 -1.5533
12294TIP3    H258298   2.796   0.370   5.446 -0.9649  0.4163  1.4158
12295TIP3   OH258299   3.285   6.329   2.282  0.4535  0.5240 -0.0175
12295TIP3    H158300   3.276   6.374   2.366 -1.4231  1.6141 -0.7450
12295TIP3    H258301   3.306   6.398   2.219  0.1340 -0.0069 -0.7258
12296TIP3   OH258302   0.325   6.514  11.660 -0.3064 -0.0151  0.2798
12296TIP3    H158303   0.320   6.467  11.577  0.1723 -1.1578  0.8734
12296TIP3    H258304   0.367   6.597  11.638  0.0814 -0.4265 -0.5746
12297TIP3   OH258305   5.846   1.515   2.222  0.2170  0.4942  0.4676
12297TIP3    H158306   5.763   1.496   2.265 -0.8613  1.3845 -1.1223
12297TIP3    H258307   5.865   1.606   2.246  1.1078  0.0969  1.3570
12298TIP3   OH258308   2.923   5.267  15.232 -0.3329  0.1484 -0.3698
12298TIP3    H158309   2.893   5.358  15.229 -2.1677 -0.3941  0.3098
12298TIP3    H258310   2.883   5.231  15.311 -0.5164 -1.5354 -1.1896
12299TIP3   OH258311   1.252   4.371  13.741  0.1987 -0.1756  0.2886
12299TIP3    H158312   1.251   4.354  13.647  0.6715 -0.8089  0.3902
12299TIP3    H258313   1.317   4.309  13.776 -1.9192 -1.8869  1.3923
12300TIP3   OH258314   2.324   1.966  10.995 -0.4400  0.1782  0.5036
12300TIP3    H158315   2.362   1.879  10.997  0.7188  0.5806 -1.4376
12300TIP3    H258316   2.399   2.026  10.999 -1.1527  1.0774  0.8661
12301TIP3   OH258317   6.005   1.665   2.907 -0.7213 -0.3434 -0.3003
12301TIP3    H158318   6.057   1.610   2.966  2.0575  1.1739 -1.1491
12301TIP3    H258319   5.930   1.611   2.884  0.1303 -2.4605  1.5295
12302TIP3   OH258320   6.703   6.553  11.442 -0.0059  0.2320 -0.5287
12302TIP3    H158321   6.747   6.571  11.526 -1.4266  2.0261 -0.1043
12302TIP3    H258322   6.669   6.464  11.452 -0.5687  0.5922  1.0085
12303TIP3   OH258323   1.146   6.475  15.618 -0.3677 -0.7058  0.0428
12303TIP3    H158324   1.084   6.417  15.573 -0.4318 -2.0491  1.7580
12303TIP3    H258325   1.096   6.511  15.691 -0.1898  1.2084 -0.7388
12304TIP3   OH258326   3.864   6.396   1.150 -0.1860 -0.0087 -0.0797
12304TIP3    H158327   3.894   6.370   1.063  1.3955  0.1754  0.3755
12304TIP3    H258328   3.834   6.486   1.140 -1.6348 -0.5502 -0.7721
12305TIP3   OH258329   2.009   5.701   3.122  0.2189 -0.5617  0.0282
12305TIP3    H158330   2.009   5.607   3.139  1.3874 -0.4808  0.5552
12305TIP3    H258331   2.100   5.722   3.103  0.0351  0.5386  0.2896
12306TIP3   OH258332   0.616   0.973  13.047 -0.4343  0.2139  0.2339
12306TIP3    H158333   0.562   1.031  13.100  0.7981  1.9761 -0.3428
12306TIP3    H258334   0.690   1.028  13.019  0.1154 -1.2704 -1.4150
12307TIP3   OH258335   6.659   3.851  16.832  0.1869 -0.5720  0.3023
12307TIP3    H158336   6.754   3.860  16.821  0.2945 -1.3105  0.5438
12307TIP3    H258337   6.641   3.886  16.919  0.1253  0.2331 -0.0233
12308TIP3   OH258338   6.031   2.845   4.458  0.1871 -0.1039  0.1991
12308TIP3    H158339   5.950   2.874   4.416 -1.0956 -1.2924  1.7158
12308TIP3    H258340   6.071   2.925   4.493 -1.6886  0.2604  1.6642
12309TIP3   OH258341   5.582   4.947   2.551  0.5630  0.1948  0.2125
12309TIP3    H158342   5.613   4.976   2.466  0.4960  2.2605  0.8484
12309TIP3    H258343   5.651   4.973   2.612 -0.6353  1.3224  1.1398
12310TIP3   OH258344   0.315   5.693  12.692  0.1536  0.1908 -0.4644
12310TIP3    H158345   0.324   5.653  12.605  2.7989 -1.1238  0.2889
12310TIP3    H258346   0.399   5.737  12.706 -0.1739  0.2723  1.4530
12311TIP3   OH258347   1.299   3.955  16.555  0.3698 -0.1781  0.2735
12311TIP3    H158348   1.219   3.993  16.590 -0.1756  0.9045 -1.9858
12311TIP3    H258349   1.368   4.017  16.580  0.1621  0.0144  0.3702
12312TIP3   OH258350   0.844   4.782   3.591 -0.3801  0.4021  0.0630
12312TIP3    H158351   0.867   4.841   3.662 -0.2952  0.7084 -0.2134
12312TIP3    H258352   0.759   4.746   3.615  0.6253 -1.2103  1.3989
12313TIP3   OH258353   1.940   5.923  13.829  0.0783  0.5629  0.2512
12313TIP3    H158354   1.971   5.884  13.748 -0.4410  1.5902 -0.4562
12313TIP3    H258355   1.848   5.943  13.813  0.2890  1.9603  0.6239
12314TIP3   OH258356   6.765   0.148   2.183 -0.3888  0.3667 -0.2831
12314TIP3    H158357   6.760   0.079   2.249  0.4449  1.0571  0.5389
12314TIP3    H258358   6.842   0.199   2.208 -0.6096  1.2073 -1.2493
12315TIP3   OH258359   3.118   6.452  11.726  0.3633  0.8434 -0.0571
12315TIP3    H158360   3.151   6.444  11.637  0.3064  1.6762 -0.1644
12315TIP3    H258361   3.023   6.458  11.715  0.3908  1.5103  0.0032
12316TIP3   OH258362   4.903   0.840  11.414  0.1381  0.4276 -0.4178
12316TIP3    H158363   4.991   0.874  11.397  0.4234  0.3647  0.8228
12316TIP3    H258364   4.845   0.899  11.366  0.8126  0.8654 -0.7147
12317TIP3   OH258365   3.136   5.501   3.446 -0.2058 -0.3684 -0.4657
12317TIP3    H158366   3.098   5.460   3.368 -0.0499 -3.2931  0.8500
12317TIP3    H258367   3.230   5.502   3.429 -0.2912  0.4840 -0.9327
12318TIP3   OH258368   0.369   3.065  14.379  0.4276  0.4934 -0.5520
12318TIP3    H158369   0.348   3.082  14.471  0.2795 -3.2450  0.2685
12318TIP3    H258370   0.284   3.067  14.335 -0.4680 -3.0620  0.5944
12319TIP3   OH258371   3.736   2.965   2.305 -0.2504  0.1822  0.0586
12319TIP3    H158372   3.748   2.871   2.309 -1.2286 -0.1079 -2.2150
12319TIP3    H258373   3.669   2.985   2.371 -1.7264 -1.0830 -0.9977
12320TIP3   OH258374   2.612   3.774   3.696  0.2082  0.4133 -0.3544
12320TIP3    H158375   2.582   3.834   3.763 -0.4034  0.0808 -0.3206
12320TIP3    H258376   2.587   3.687   3.728  0.1874  0.2260 -0.8617
12321TIP3   OH258377   0.564   6.477   2.733  0.0989 -0.3016  0.0861
12321TIP3    H158378   0.491   6.415   2.724  1.2586 -1.5020 -1.9021
12321TIP3    H258379   0.642   6.422   2.733  1.0892  1.0443  0.6829
12322TIP3   OH258380   4.750   4.314   2.892  0.7163 -0.0249 -0.2541
12322TIP3    H158381   4.761   4.388   2.952 -0.7117 -0.1427  0.1729
12322TIP3    H258382   4.700   4.349   2.819 -1.7794 -0.9893  0.8845
12323TIP3   OH258383   6.489   2.230   0.581 -0.0603  0.2340 -0.0871
12323TIP3    H158384   6.456   2.310   0.539 -0.5027 -0.6139 -1.4198
12323TIP3    H258385   6.433   2.160   0.547 -0.3748 -0.5336  1.8747
12324TIP3   OH258386   2.060   6.364   2.683  0.2377 -0.3512 -0.5634
12324TIP3    H158387   2.135   6.411   2.719  2.0399 -1.6778 -2.3430
12324TIP3    H258388   2.080   6.271   2.698 -0.9370 -0.7543 -1.2985
12325TIP3   OH258389   2.992   2.212  13.217  0.1121  0.1926 -0.5327
12325TIP3    H158390   2.938   2.214  13.138  0.1519 -0.2027 -0.5707
12325TIP3    H258391   2.984   2.301  13.253 -2.6723 -0.5242  0.9090
12326TIP3   OH258392   3.224   3.774  12.815 -0.4859  0.8363  0.2112
12326TIP3    H158393   3.307   3.779  12.768 -1.4961  1.0850 -1.6494
12326TIP3    H258394   3.210   3.680  12.826 -1.0396  0.6636 -1.5973
12327TIP3   OH258395   0.939   4.628   2.794 -0.2294  0.1561 -0.7033
12327TIP3    H158396   1.012   4.604   2.736 -0.6719 -0.4885 -1.0090
12327TIP3    H258397   0.873   4.562   2.777  0.0400 -0.7209  1.3593
12328TIP3   OH258398   0.828   4.129  15.018  0.8160  0.4761  0.5089
12328TIP3    H158399   0.882   4.051  15.031  0.0961 -0.4606 -1.6296
12328TIP3    H258400   0.753   4.116  15.076  1.1463  0.0306  0.8446
12329TIP3   OH258401   2.125   0.256  16.105 -0.0507  0.0082 -0.6971
12329TIP3    H158402   2.046   0.233  16.154  1.3949 -1.0745  1.2929
12329TIP3    H258403   2.164   0.172  16.082  1.1927  0.4898 -0.4365
12330TIP3   OH258404   3.511   3.322  12.344 -0.3131 -0.6087 -0.6155
12330TIP3    H158405   3.523   3.383  12.271  1.3583  1.2437  1.0609
12330TIP3    H258406   3.489   3.379  12.419  1.9764 -1.8922  1.1882
12331TIP3   OH258407   3.324   3.909  12.556  0.0501 -0.0551 -0.0287
12331TIP3    H158408   3.262   3.854  12.508 -0.5065 -0.1655  0.8060
12331TIP3    H258409   3.410   3.882  12.523 -0.3125 -0.1835 -0.9018
12332TIP3   OH258410   4.613   2.484   1.439  0.1937  0.0533  0.4116
12332TIP3    H158411   4.623   2.566   1.488  0.0546  1.1228 -1.2543
12332TIP3    H258412   4.520   2.480   1.419 -0.0550 -1.2774  1.6713
12333TIP3   OH258413   1.829   4.211  14.478 -0.0863 -0.0336 -0.6129
12333TIP3    H158414   1.775   4.139  14.511 -2.0010  1.1384 -0.9825
12333TIP3    H258415   1.919   4.180  14.487 -0.8246 -2.4815 -0.8334
12334TIP3   OH258416   1.016   2.333  12.315  0.0155  0.0662  0.8142
12334TIP3    H158417   1.017   2.393  12.240  1.2255 -0.4891  0.3650
12334TIP3    H258418   0.928   2.295  12.314 -0.3041  0.8070  0.2774
12335TIP3   OH258419   6.513   1.116   1.750  0.3932  0.1433  0.5712
12335TIP3    H158420   6.561   1.191   1.784 -1.2972  1.4429  0.2304
12335TIP3    H258421   6.425   1.124   1.787 -0.8361  0.2835 -2.0926
12336TIP3   OH258422   1.127   6.157  15.688 -0.0633 -0.3383 -0.4203
12336TIP3    H158423   1.061   6.093  15.716 -2.8236  1.7729 -1.6202
12336TIP3    H258424   1.115   6.231  15.748  0.3515  0.5547 -1.4173
12337TIP3   OH258425   3.104   4.606   0.774 -0.0506 -0.5459  0.2270
12337TIP3    H158426   3.084   4.588   0.865 -1.1698 -2.2539 -0.3287
12337TIP3    H258427   3.081   4.698   0.762  2.4758  0.4601  2.2558
12338TIP3   OH258428   5.749   0.194   3.625  0.0388  0.1317 -0.0482
12338TIP3    H158429   5.754   0.147   3.708 -0.3558  1.9319  1.0728
12338TIP3    H258430   5.775   0.130   3.558  1.1332 -1.1511  1.5312
12339TIP3   OH258431   4.940   4.384  16.253 -0.4980  0.6687 -0.1194
12339TIP3    H158432   4.969   4.336  16.175 -0.1116  1.9907 -0.8346
12339TIP3    H258433   4.847   4.362  16.261 -0.4472  0.1876 -0.7087
12340TIP3   OH258434   4.066   4.056  11.482 -0.2712 -0.5818 -0.5189
12340TIP3    H158435   3.991   4.060  11.423 -0.3520  1.3305 -0.3378
12340TIP3    H258436   4.139   4.028  11.426 -0.8504 -1.2840 -0.9478
12341TIP3   OH258437   0.932   4.821  12.298 -0.1322 -0.1359 -0.8868
12341TIP3    H158438   0.867   4.799  12.364  0.7501 -0.1860 -0.0009
12341TIP3    H258439   0.953   4.737  12.256  0.4910 -0.3921 -0.0917
12342TIP3   OH258440   6.271   3.525   0.622 -0.6857 -0.5408  0.1816
12342TIP3    H158441   6.322   3.447   0.646  2.7595  1.3647 -0.4507
12342TIP3    H258442   6.256   3.570   0.706 -1.3941 -1.0709  0.3578
12343TIP3   OH258443   1.967   3.174   1.787  0.3751  0.3951  0.1382
12343TIP3    H158444   1.936   3.099   1.736  1.5489 -0.4046  0.5553
12343TIP3    H258445   2.061   3.177   1.772  0.5128  1.0906  1.0201
12344TIP3   OH258446   2.171   1.548   1.893  0.5321  0.0673  0.5188
12344TIP3    H158447   2.251   1.550   1.945  1.5268  1.8669 -0.9310
12344TIP3    H258448   2.183   1.619   1.829 -1.8763 -0.1501 -0.2611
12345TIP3   OH258449   2.338   2.407   0.622  0.0053  0.0547  0.6115
12345TIP3    H158450   2.328   2.502   0.615  0.5525  0.0601 -0.2382
12345TIP3    H258451   2.249   2.373   0.621 -0.1569  0.4922 -0.2058
12346TIP3   OH258452   2.165   1.120  15.003  0.0298  0.2216  0.0654
12346TIP3    H158453   2.107   1.195  15.012  0.3115  0.2167  2.5349
12346TIP3    H258454   2.117   1.047  15.043  1.4597  0.1050  1.6858
12347TIP3   OH258455   3.696   5.151   3.550  0.1940 -0.2992 -0.0225
12347TIP3    H158456   3.640   5.219   3.588 -1.6280 -2.5430  1.6057
12347TIP3    H258457   3.785   5.184   3.560 -0.4321  0.8022  3.0682
12348TIP3   OH258458   4.292   1.154  13.162 -0.8713  0.2548  0.9414
12348TIP3    H158459   4.272   1.231  13.109  0.1328  1.2815  1.9978
12348TIP3    H258460   4.284   1.080  13.101  0.6369  1.4068 -0.7440
12349TIP3   OH258461   4.102   4.732   4.210 -0.5630  0.1248  0.0935
12349TIP3    H158462   4.126   4.673   4.282  2.1255  2.0631  0.9773
12349TIP3    H258463   4.075   4.674   4.139  1.4091 -2.1511  1.0660
12350TIP3   OH258464   6.133   6.382  14.173 -0.0564 -0.3059 -0.3348
12350TIP3    H158465   6.118   6.477  14.165 -1.2194 -0.5724 -1.8364
12350TIP3    H258466   6.053   6.349  14.212  0.3421 -0.6925  0.1691
12351TIP3   OH258467   5.211   5.014   6.159 -0.2958  0.3882  0.2356
12351TIP3    H158468   5.252   4.933   6.129  0.6308 -0.0026  2.3762
12351TIP3    H258469   5.220   5.074   6.085  1.2356 -0.6963 -0.5237
12352TIP3   OH258470   5.349   2.313   3.898 -0.3251 -0.0422 -0.2126
12352TIP3    H158471   5.281   2.379   3.881 -0.0716 -0.0380 -1.2848
12352TIP3    H258472   5.301   2.230   3.901 -0.9281  0.3037  3.0378
12353TIP3   OH258473   0.930   1.302   5.021 -0.6620  0.0473  0.4274
12353TIP3    H158474   0.908   1.214   4.988 -0.5719  0.0787  0.2806
12353TIP3    H258475   0.961   1.287   5.110  0.6454 -0.2322 -0.0563
12354TIP3   OH258476   1.420   2.159  16.297  0.1938  0.1604  0.3103
12354TIP3    H158477   1.407   2.073  16.337  0.1082 -0.2520 -0.5752
12354TIP3    H258478   1.390   2.148  16.207  2.8689  0.2818 -0.6830
12355TIP3   OH258479   6.408   5.186  15.898  0.1958 -0.1919 -0.2622
12355TIP3    H158480   6.385   5.266  15.851 -0.0778 -0.4345 -0.5500
12355TIP3    H258481   6.503   5.192  15.911  0.0899  0.4493  0.2392
12356TIP3   OH258482   5.551   1.557   6.171 -0.0646  0.3545  0.1536
12356TIP3    H158483   5.464   1.567   6.210  0.3352  0.6843  0.9946
12356TIP3    H258484   5.547   1.473   6.126 -0.4979 -0.1400  1.0660
12357TIP3   OH258485   2.441   4.762  16.444  0.0002  0.6693 -0.3931
12357TIP3    H158486   2.536   4.750  16.449  0.0082  0.4326 -0.9788
12357TIP3    H258487   2.421   4.828  16.510  0.3987 -0.2206  0.6540
12358TIP3   OH258488   3.001   1.420  10.803 -0.1564 -0.1076 -0.2635
12358TIP3    H158489   2.947   1.408  10.725  1.0097  1.7216 -1.4329
12358TIP3    H258490   3.050   1.338  10.811  1.0530  0.3236 -2.5799
12359TIP3   OH258491   1.238   2.370   1.790 -0.3231  0.1545  0.1321
12359TIP3    H158492   1.240   2.447   1.847  2.2433 -1.2092  2.1283
12359TIP3    H258493   1.284   2.398   1.711 -0.4766  1.0081  0.3343
12360TIP3   OH258494   6.559   3.783   3.809 -0.2833 -0.1243  0.6523
12360TIP3    H158495   6.548   3.817   3.898  0.4444 -2.0991  1.5492
12360TIP3    H258496   6.471   3.755   3.782 -0.5395  0.6651  0.6499
12361TIP3   OH258497   3.199   2.497  13.655 -0.2131 -0.2097  0.4878
12361TIP3    H158498   3.289   2.530  13.663 -0.6189  2.0015 -2.4740
12361TIP3    H258499   3.145   2.565  13.696 -0.6786 -0.1657 -0.1782
12362TIP3   OH258500   0.453   1.133  10.486  0.3354  0.3242 -0.4396
12362TIP3    H158501   0.447   1.058  10.427 -0.4832  0.4534 -0.5256
12362TIP3    H258502   0.526   1.185  10.452  1.6310 -0.9564  0.2498
12363TIP3   OH258503   4.320   4.766  14.879  0.0987  0.4581  0.3606
12363TIP3    H158504   4.388   4.722  14.830  0.3033  1.9111 -0.7429
12363TIP3    H258505   4.351   4.766  14.970  1.8543  1.5377 -0.1902
12364TIP3   OH258506   3.899   4.300   3.195  0.1633  0.7472 -0.6069
12364TIP3    H158507   3.981   4.338   3.226  0.5226  0.8463 -1.6349
12364TIP3    H258508   3.857   4.265   3.274  0.7696  1.4865  0.0638
12365TIP3   OH258509   2.663   0.098  16.634  0.7450 -0.4243  0.3249
12365TIP3    H158510   2.709   0.060  16.559 -0.3077 -0.0836 -0.5266
12365TIP3    H258511   2.722   0.084  16.708  1.1023 -2.2714 -0.2451
12366TIP3   OH258512   5.580   5.242  11.072  0.6223  0.4266  0.0443
12366TIP3    H158513   5.640   5.172  11.048  0.2881 -0.5472  1.8550
12366TIP3    H258514   5.529   5.259  10.993  1.5549 -0.5016 -0.7790
12367TIP3   OH258515   4.995   2.092  14.035  0.3767 -0.4468  0.1761
12367TIP3    H158516   4.978   2.036  14.111  1.0771 -1.4348 -0.3823
12367TIP3    H258517   5.081   2.065  14.004  0.4401  0.4903 -0.5097
12368TIP3   OH258518   0.845   1.698   3.339 -0.1816 -0.0035 -0.1621
12368TIP3    H158519   0.886   1.784   3.327  0.9582 -0.4295  0.4748
12368TIP3    H258520   0.844   1.659   3.252 -1.7380  1.0649 -0.6702
12369TIP3   OH258521   3.898   6.393   6.480 -0.3498  0.0139 -0.2272
12369TIP3    H158522   3.851   6.318   6.514  0.0039 -0.0399  0.1529
12369TIP3    H258523   3.838   6.467   6.493 -1.8040 -0.5421 -2.9953
12370TIP3   OH258524   4.573   3.398  14.248  0.0315  0.1137  0.3421
12370TIP3    H158525   4.649   3.426  14.300  0.8802 -1.2096 -0.1469
12370TIP3    H258526   4.573   3.303  14.256 -1.0926  0.0427 -0.3683
12371TIP3   OH258527   0.054   4.446   0.827 -0.1019 -0.2513  0.1105
12371TIP3    H158528   0.054   4.390   0.905  0.1253 -0.5915 -0.1296
12371TIP3    H258529   0.127   4.414   0.775 -1.7306 -1.6832 -1.4182
12372TIP3   OH258530   6.337   4.800  14.062 -0.0580 -0.0141  0.3756
12372TIP3    H158531   6.380   4.717  14.044 -0.4007 -0.2543  0.6269
12372TIP3    H258532   6.294   4.786  14.147 -0.7993  0.1378  0.0358
12373TIP3   OH258533   2.322   4.760   1.308 -0.3205 -0.2755 -0.0835
12373TIP3    H158534   2.291   4.718   1.229 -1.7665  0.6053 -0.0383
12373TIP3    H258535   2.373   4.835   1.277  0.5620 -0.8918 -0.1593
12374TIP3   OH258536   6.644   2.731  16.263 -0.0810 -0.2480 -0.0404
12374TIP3    H158537   6.699   2.798  16.222 -0.7338  0.0301 -0.4815
12374TIP3    H258538   6.643   2.659  16.200  2.6278 -1.7679  1.4644
12375TIP3   OH258539   3.155   3.611  13.375 -0.0764  0.5232 -0.5869
12375TIP3    H158540   3.211   3.571  13.309  0.0359  0.7119 -0.6061
12375TIP3    H258541   3.109   3.681  13.329 -1.1452 -0.3200 -0.8428
12376TIP3   OH258542   6.325   5.315   2.702 -0.1484 -0.1691  0.1851
12376TIP3    H158543   6.402   5.372   2.696  0.4669 -0.9507  0.5811
12376TIP3    H258544   6.292   5.311   2.612  0.2373  0.2216  0.0202
12377TIP3   OH258545   5.036   0.070   3.069 -0.7132 -0.0038  0.4182
12377TIP3    H158546   5.064   0.160   3.057 -4.2774  1.1987 -0.3047
12377TIP3    H258547   5.065   0.025   2.990  0.4430  0.6798  0.4341
12378TIP3   OH258548   2.513   1.225  15.545  0.6602 -0.4079 -0.4462
12378TIP3    H158549   2.603   1.213  15.513  0.3299 -0.8209 -1.2529
12378TIP3    H258550   2.507   1.318  15.565  1.8875 -0.6923  1.5659
12379TIP3   OH258551   3.415   2.582  11.385 -0.1812 -0.3549 -0.0426
12379TIP3    H158552   3.498   2.622  11.409 -0.0773 -1.0265  0.7803
12379TIP3    H258553   3.436   2.490  11.369 -0.6004 -0.3271 -0.7975
12380TIP3   OH258554   6.559   1.550   0.413 -0.2473 -0.1739  0.1492
12380TIP3    H158555   6.597   1.595   0.488  1.2180 -1.7121  0.3934
12380TIP3    H258556   6.630   1.544   0.349 -0.3472 -2.0685  0.1404
12381TIP3   OH258557   3.882   2.606   2.263  0.3957 -0.0630  0.1170
12381TIP3    H158558   3.975   2.592   2.283  0.2291  0.1794  1.1166
12381TIP3    H258559   3.838   2.531   2.303  0.2046 -0.5054 -0.8888
12382TIP3   OH258560   1.793   2.204  14.404  0.0491 -0.2780 -0.2545
12382TIP3    H158561   1.827   2.134  14.348  1.3974  1.2444 -1.4345
12382TIP3    H258562   1.746   2.262  14.344  1.3411  1.2849  0.1602
12383TIP3   OH258563   1.337   5.346   3.054  0.3210  0.3028 -0.0976
12383TIP3    H158564   1.311   5.426   3.009 -1.2936 -0.8876 -1.4345
12383TIP3    H258565   1.423   5.366   3.091 -0.3319  2.8534  0.2236
12384TIP3   OH258566   3.438   5.287   1.794  0.0624 -0.5027  0.5383
12384TIP3    H158567   3.421   5.203   1.751  0.7819  0.1245 -1.0472
12384TIP3    H258568   3.523   5.315   1.759 -0.3652  1.0926  0.6801
12385TIP3   OH258569   5.553   5.631  12.714  0.4008  0.2354 -0.7936
12385TIP3    H158570   5.647   5.641  12.728  0.1733  1.5539 -0.0320
12385TIP3    H258571   5.544   5.544  12.675  1.6763 -1.1880  1.7659
12386TIP3   OH258572   6.020   1.015   5.309  0.1209  0.1850  0.5173
12386TIP3    H158573   5.941   0.970   5.280 -1.0840  1.9078  0.9236
12386TIP3    H258574   6.091   0.977   5.257 -1.2188 -0.2469 -1.0689
12387TIP3   OH258575   6.430   4.339  11.850 -0.2870  0.0939 -0.1218
12387TIP3    H158576   6.375   4.417  11.843  1.3165  2.0999  4.9218
12387TIP3    H258577   6.498   4.352  11.783 -2.1509  0.8971 -1.9875
12388TIP3   OH258578   6.780   0.118  12.021 -0.3367  0.1210  0.0960
12388TIP3    H158579   6.807   0.072  12.101 -1.2624 -0.8649 -0.1336
12388TIP3    H258580   6.850   0.181  12.005  0.6524 -0.7622  0.7973
12389TIP3   OH258581   3.819   3.337  13.594 -0.3157  0.2213  0.1865
12389TIP3    H158582   3.770   3.257  13.613 -1.0849 -0.5102 -3.8991
12389TIP3    H258583   3.801   3.355  13.502  2.0170  3.6196  0.2053
12390TIP3   OH258584   0.050   6.546  15.014  0.2981  0.5065 -0.3890
12390TIP3    H158585   0.142   6.564  14.994  0.9220 -1.6764  0.2535
12390TIP3    H258586   0.035   6.591  15.098  0.8589  0.6570 -0.3609
12391TIP3   OH258587   1.291   5.442  15.158  0.1608  0.9053  0.2393
12391TIP3    H158588   1.270   5.535  15.150  1.1199  1.0988 -0.1210
12391TIP3    H258589   1.348   5.423  15.083 -0.5399 -0.1277 -0.0505
12392TIP3   OH258590   4.883   2.739  14.603  0.2294 -0.4678  0.0047
12392TIP3    H158591   4.958   2.711  14.551  0.6577 -1.8092  1.2848
12392TIP3    H258592   4.807   2.711  14.552  0.5982  0.1292 -0.8904
12393TIP3   OH258593   0.933   5.321   4.945 -0.0041 -0.0183  0.6257
12393TIP3    H158594   0.999   5.264   4.905  2.0193  0.4476  3.0339
12393TIP3    H258595   0.853   5.269   4.944  0.9243 -1.5226 -0.3512
12394TIP3   OH258596   3.435   6.427   5.220  0.7800 -0.4075  0.3253
12394TIP3    H158597   3.380   6.349   5.216 -0.5203  0.5268 -2.5242
12394TIP3    H258598   3.373   6.500   5.232  1.5855  0.4717 -0.6592
12395TIP3   OH258599   4.129   1.888  15.601  0.1300 -1.0020  0.2844
12395TIP3    H158600   4.151   1.809  15.551 -1.9517 -0.6993 -1.2513
12395TIP3    H258601   4.038   1.874  15.629 -0.0707  0.5694  0.5068
12396TIP3   OH258602   2.165   3.853  12.724 -0.4210  0.0492 -0.0342
12396TIP3    H158603   2.126   3.936  12.698 -2.7828 -0.5141  1.4181
12396TIP3    H258604   2.091   3.799  12.752  1.3046 -1.5392  1.7903
12397TIP3   OH258605   3.627   4.672   3.973 -0.1145 -0.1122  0.6914
12397TIP3    H158606   3.560   4.646   3.910 -0.0948  0.2599  0.5170
12397TIP3    H258607   3.657   4.757   3.943 -1.7537  1.1755  2.4788
12398TIP3   OH258608   0.775   1.808  14.282 -0.1646  0.2431  0.1759
12398TIP3    H158609   0.684   1.825  14.261 -0.3177  0.8349  1.3062
12398TIP3    H258610   0.791   1.853  14.364  1.0916 -0.0306  0.1107
12399TIP3   OH258611   2.703   4.343   4.543  0.1347  0.4245  0.4730
12399TIP3    H158612   2.663   4.429   4.526 -0.4476  0.1520  0.4293
12399TIP3    H258613   2.751   4.323   4.464  1.3652  1.2928  0.9645
12400TIP3   OH258614   2.523   6.597   3.538  0.4290 -0.4020 -0.1179
12400TIP3    H158615   2.451   6.583   3.599  0.8455 -1.8389  0.0811
12400TIP3    H258616   2.524   6.518   3.484  0.9927  0.2089 -1.0268
12401TIP3   OH258617   2.199   0.015  14.106  0.3646 -0.5200 -0.5723
12401TIP3    H158618   2.183  -0.072  14.143 -0.4335 -0.3875 -0.6026
12401TIP3    H258619   2.123   0.032  14.050  0.1355  0.5187  0.0315
12402TIP3   OH258620   5.384   0.805   4.867  0.1851  0.4104 -0.7352
12402TIP3    H158621   5.374   0.719   4.909  0.2875  1.0840  0.7538
12402TIP3    H258622   5.307   0.814   4.812  0.3498 -0.7781 -1.1880
12403TIP3   OH258623   1.284   2.279  16.534 -0.6437 -0.4104 -0.2165
12403TIP3    H158624   1.251   2.191  16.553  0.4912 -0.5161  1.4897
12403TIP3    H258625   1.331   2.269  16.451 -0.3994 -1.4762  0.0274
12404TIP3   OH258626   3.538   4.570  14.977  0.2157  0.3903 -0.6941
12404TIP3    H158627   3.497   4.618  15.048  1.1155 -0.8953  0.7617
12404TIP3    H258628   3.599   4.632  14.937  0.0448  0.9800 -0.0468
12405TIP3   OH258629   1.297   3.843  13.212  0.0883  0.1536 -0.5528
12405TIP3    H158630   1.354   3.913  13.243 -2.0439  1.1311  1.4872
12405TIP3    H258631   1.279   3.791  13.290 -1.0056 -0.6873 -1.3348
12406TIP3   OH258632   4.972   1.012   6.173  0.6136  0.2900 -0.0262
12406TIP3    H158633   4.968   1.107   6.179  1.6228  0.3273  0.2188
12406TIP3    H258634   5.030   0.986   6.245 -0.8612 -0.6312  0.8937
12407TIP3   OH258635   4.461   5.465  14.829  0.8796  0.1168  0.4948
12407TIP3    H158636   4.371   5.484  14.857  0.8507  0.3400  0.2579
12407TIP3    H258637   4.493   5.548  14.795  1.8485  0.5669  2.3530
12408TIP3   OH258638   2.102   0.657   1.290 -0.1051  0.0366 -0.4468
12408TIP3    H158639   2.178   0.706   1.261 -0.7303  0.5976 -1.1796
12408TIP3    H258640   2.138   0.578   1.331  0.9610  1.4257  1.4680
12409TIP3   OH258641   1.933   2.463  13.076  0.7842 -0.3416  0.4047
12409TIP3    H158642   1.984   2.445  12.997 -0.1750  0.1267 -0.3461
12409TIP3    H258643   1.935   2.381  13.126 -0.8299 -1.5759 -1.3981
12410TIP3   OH258644   4.979   3.835  11.601 -0.1992 -0.5542 -0.1235
12410TIP3    H158645   4.940   3.907  11.651 -1.0294 -2.1293  1.6233
12410TIP3    H258646   5.070   3.860  11.591 -0.2603  0.3497  1.2639
12411TIP3   OH258647   5.896   1.671  12.290  0.1802 -0.3970 -0.1623
12411TIP3    H158648   5.939   1.652  12.373  0.3798  0.5452 -0.0330
12411TIP3    H258649   5.892   1.587  12.244 -2.1170 -1.4828  1.7678
12412TIP3   OH258650   2.483   3.384   1.115  0.2861 -0.1594  0.5488
12412TIP3    H158651   2.440   3.412   1.196 -0.9924  0.3208 -0.2602
12412TIP3    H258652   2.527   3.302   1.138  1.0033  0.6080  2.0255
12413TIP3   OH258653   0.110   0.392   3.930 -0.1637  0.4490  0.2630
12413TIP3    H158654   0.110   0.342   4.012 -2.0592  1.4931  0.9556
12413TIP3    H258655   0.161   0.338   3.870 -0.4669 -1.3507  1.5303
12414TIP3   OH258656   5.049   5.147  15.957 -0.2902  0.0072  0.0614
12414TIP3    H158657   5.023   5.065  15.914  1.0318 -0.3650 -0.0751
12414TIP3    H258658   4.967   5.184  15.990 -1.1446 -0.4787 -1.4132
12415TIP3   OH258659   5.336   5.626   5.645 -0.6168  0.5748  0.2973
12415TIP3    H158660   5.281   5.653   5.571 -1.5184 -0.4694  0.5692
12415TIP3    H258661   5.361   5.536   5.624 -1.0825  0.1842  1.3643
12416TIP3   OH258662   5.076   4.353   0.933  0.0509  0.1891 -0.2234
12416TIP3    H158663   5.008   4.337   0.998  1.3771 -1.9241  0.7302
12416TIP3    H258664   5.125   4.428   0.967 -0.1281 -0.0212  0.5058
12417TIP3   OH258665   1.739   4.200   3.911  0.5545 -0.0843  0.2138
12417TIP3    H158666   1.691   4.283   3.907 -0.6629 -0.8088 -1.5603
12417TIP3    H258667   1.680   4.140   3.956  1.1093 -0.2011  0.8008
12418TIP3   OH258668   3.144   5.172   3.779  0.0377 -0.1788  0.3049
12418TIP3    H158669   3.196   5.141   3.853  0.6943  0.8148  0.2789
12418TIP3    H258670   3.098   5.249   3.812 -0.6965 -0.4992  0.0535
12419TIP3   OH258671   0.781   3.332  17.091  0.7061 -0.1167  0.0197
12419TIP3    H158672   0.695   3.330  17.132  0.8280  0.1489  0.2924
12419TIP3    H258673   0.785   3.419  17.050  1.4192  0.4660  1.2630
12420TIP3   OH258674   0.334   5.460  16.221 -0.1759 -0.2711 -0.8128
12420TIP3    H158675   0.361   5.448  16.312 -1.2236  0.9475 -0.3178
12420TIP3    H258676   0.371   5.545  16.196 -0.9602 -0.0076 -1.1088
12421TIP3   OH258677   0.983   5.645   0.102 -0.2915  0.1489  0.2509
12421TIP3    H158678   1.057   5.699   0.132  0.1927 -0.5410  0.3095
12421TIP3    H258679   1.014   5.604   0.021  0.0487 -1.4925  1.1655
12422TIP3   OH258680   6.519   5.054   5.670 -0.0041 -0.5570 -0.1207
12422TIP3    H158681   6.499   4.985   5.607 -0.1584 -0.6000 -0.0252
12422TIP3    H258682   6.528   5.133   5.617  0.9401 -0.7842 -0.3195
12423TIP3   OH258683   5.248   4.232  11.418  0.2245 -0.3158  0.1962
12423TIP3    H158684   5.329   4.184  11.401  1.4333  1.4582  0.6226
12423TIP3    H258685   5.277   4.317  11.453 -1.8359  0.1910  0.8527
12424TIP3   OH258686   1.604   1.098  15.535 -0.0068  0.2523  0.3300
12424TIP3    H158687   1.613   1.121  15.442  1.0395 -2.2323 -0.2812
12424TIP3    H258688   1.691   1.111  15.571 -0.3387  0.9068  0.9131
12425TIP3   OH258689   0.910   0.783  11.387 -0.0545 -0.0133 -0.1212
12425TIP3    H158690   0.956   0.714  11.338  0.5777  0.6885 -0.5255
12425TIP3    H258691   0.961   0.793  11.467 -0.3671 -0.2653  0.1168
12426TIP3   OH258692   1.634   4.779   5.650 -0.1283 -0.0911 -0.0740
12426TIP3    H158693   1.575   4.813   5.718 -2.5266 -0.0942 -2.0099
12426TIP3    H258694   1.683   4.856   5.620  1.1930 -0.1403  1.7554
12427TIP3   OH258695   4.241   3.997  11.727  0.1802 -0.4262 -0.0463
12427TIP3    H158696   4.221   3.942  11.651 -0.0518 -2.1581  1.2155
12427TIP3    H258697   4.167   3.984  11.786  1.5507 -1.1681  1.5713
12428TIP3   OH258698   4.092   1.140  13.407  0.5735 -0.4492 -0.1883
12428TIP3    H158699   4.155   1.144  13.335  1.8079 -0.3480  0.8649
12428TIP3    H258700   4.013   1.102  13.368  1.1505 -0.2156 -1.6263
12429TIP3   OH258701   2.693   3.017   5.012 -1.2496 -0.0624  0.2907
12429TIP3    H158702   2.753   2.955   4.972 -0.8755  0.9931 -0.8640
12429TIP3    H258703   2.611   2.969   5.023 -0.4807 -1.2527  1.0610
12430TIP3   OH258704   4.726   4.780  16.152  0.9070  0.4807  0.0952
12430TIP3    H158705   4.740   4.826  16.234 -0.4759 -1.8612  1.7531
12430TIP3    H258706   4.664   4.834  16.103  0.0838  0.8803  1.5471
12431TIP3   OH258707   2.128   2.129  17.181 -0.2818 -0.9526  0.3133
12431TIP3    H158708   2.138   2.223  17.168 -1.8297 -0.3286  2.7414
12431TIP3    H258709   2.039   2.110  17.150 -0.8667 -1.0560  1.9051
12432TIP3   OH258710   5.010   5.394   2.863  0.0094  0.4232  0.3294
12432TIP3    H158711   5.102   5.401   2.835 -0.2961  0.5314 -0.6844
12432TIP3    H258712   5.014   5.401   2.958  0.9541  1.5378  0.2304
12433TIP3   OH258713   2.967   0.854   5.465 -0.1683  0.3630  0.1401
12433TIP3    H158714   2.879   0.881   5.492  0.5131  1.8701  0.9995
12433TIP3    H258715   3.012   0.936   5.446  0.9967 -0.4001 -0.4988
12434TIP3   OH258716   3.771   1.269   5.630 -0.5310 -0.3236 -1.0205
12434TIP3    H158717   3.731   1.183   5.647  0.1378 -0.7859 -1.7012
12434TIP3    H258718   3.710   1.313   5.572 -0.4929 -0.6694 -1.3265
12435TIP3   OH258719   3.618   5.192  15.022 -0.7640  0.0572  0.0444
12435TIP3    H158720   3.686   5.148  14.970 -0.1216  1.5927 -0.4932
12435TIP3    H258721   3.560   5.122  15.050 -0.7854 -0.9324 -2.2365
12436TIP3   OH258722   4.922   1.460   3.275 -0.0664 -0.0901  0.1009
12436TIP3    H158723   4.835   1.500   3.280 -0.3231 -0.6780  0.4075
12436TIP3    H258724   4.970   1.501   3.347 -0.1613  0.0653  0.0779
12437TIP3   OH258725   2.972   4.891  15.723  0.4476  0.1983  0.2921
12437TIP3    H158726   2.910   4.915  15.655  1.1146  2.6319  0.4526
12437TIP3    H258727   3.035   4.834  15.679 -0.4862 -0.2530 -0.4960
12438TIP3   OH258728   0.851   3.884  10.585 -0.0303  0.4535 -0.1856
12438TIP3    H158729   0.917   3.821  10.615  0.1050 -0.2023 -1.7514
12438TIP3    H258730   0.768   3.848  10.617  0.2930  1.0048  1.3410
12439TIP3   OH258731   4.622   0.836  16.770  0.0072 -0.3618  0.2012
12439TIP3    H158732   4.696   0.840  16.830  1.3582 -1.0963 -1.3465
12439TIP3    H258733   4.623   0.920  16.725 -0.4277 -0.1821  0.5145
12440TIP3   OH258734   1.428   4.427   5.948 -0.0038  0.2667 -0.4288
12440TIP3    H158735   1.351   4.450   5.897 -0.3956 -0.4205 -0.1603
12440TIP3    H258736   1.502   4.458   5.896 -0.4334  0.3771 -0.9771
12441TIP3   OH258737   2.881   1.533   3.375 -0.3980  0.2796 -0.1021
12441TIP3    H158738   2.833   1.590   3.315 -1.8604  0.1195  0.8478
12441TIP3    H258739   2.971   1.565   3.371 -0.1444 -0.4917 -3.2460
12442TIP3   OH258740   1.264   6.040   2.163  0.0441 -0.2112 -0.6559
12442TIP3    H158741   1.299   6.126   2.187 -0.1403 -0.0538 -0.9474
12442TIP3    H258742   1.281   6.033   2.069  2.0846 -1.4366 -0.2449
12443TIP3   OH258743   4.479   0.702   3.456 -0.6855  0.5961  0.4083
12443TIP3    H158744   4.456   0.769   3.392 -2.2026  1.4298  1.7639
12443TIP3    H258745   4.398   0.654   3.471  0.0870 -0.7411  0.4073
12444TIP3   OH258746   3.484   2.187   4.204 -0.0875 -0.0927  0.4717
12444TIP3    H158747   3.421   2.152   4.141  1.0564 -0.0041 -0.7655
12444TIP3    H258748   3.544   2.114   4.220 -0.8978 -0.4283  2.2434
12445TIP3   OH258749   4.286   2.055  13.194 -0.0147 -0.6216  0.6462
12445TIP3    H158750   4.244   2.022  13.274  0.5524 -0.3505  1.0664
12445TIP3    H258751   4.294   2.150  13.210  1.5863 -0.7853  0.9814
12446TIP3   OH258752   6.156   4.622  13.976  0.2366  0.4005 -0.2541
12446TIP3    H158753   6.224   4.689  13.991  0.7778  0.0453 -1.0574
12446TIP3    H258754   6.204   4.548  13.940  0.1042 -1.4826  3.0281
12447TIP3   OH258755   5.384   4.233  13.065 -0.0854 -0.1853 -0.1197
12447TIP3    H158756   5.432   4.224  12.983 -0.0321 -1.1151  0.0095
12447TIP3    H258757   5.426   4.171  13.125 -0.8795 -0.3785  0.2527
12448TIP3   OH258758   0.148   5.294   5.645  0.6212 -0.0152  0.1024
12448TIP3    H158759   0.218   5.240   5.682  1.8741  0.6959 -1.1588
12448TIP3    H258760   0.192   5.373   5.614 -1.1841  1.9922  2.2162
12449TIP3   OH258761   5.613   3.021  13.809  0.2427 -0.4845  0.4058
12449TIP3    H158762   5.661   2.940  13.795  2.0727  0.7771 -1.1341
12449TIP3    H258763   5.664   3.088  13.764 -1.8083  1.3585  0.6128
12450TIP3   OH258764   2.653   6.592  13.946  0.3481 -0.2882  0.0816
12450TIP3    H158765   2.581   6.562  13.889  0.7567 -0.3525 -0.4079
12450TIP3    H258766   2.731   6.550  13.909  0.7547  0.4231  0.1238
12451TIP3   OH258767   1.031   5.071   1.375 -0.1127  0.0052 -0.4969
12451TIP3    H158768   0.971   5.145   1.387  0.2369  0.3179 -0.6646
12451TIP3    H258769   1.091   5.100   1.307  0.4744 -0.1460 -0.0496
12452TIP3   OH258770   5.069   2.166  16.836  1.2072  0.6691 -0.0006
12452TIP3    H158771   5.000   2.232  16.834  0.1229 -0.3921  1.0349
12452TIP3    H258772   5.083   2.143  16.744 -0.7832 -0.0357 -0.1840
12453TIP3   OH258773   0.529   4.404  14.258 -0.1424 -0.5832 -0.0164
12453TIP3    H158774   0.573   4.422  14.175 -1.7200 -1.9101 -1.2302
12453TIP3    H258775   0.447   4.453  14.252 -1.6605 -3.0008 -0.6772
12454TIP3   OH258776   6.249   0.135   6.219  0.8945  0.1068  0.3289
12454TIP3    H158777   6.229   0.229   6.215  0.3268 -0.0082  0.4202
12454TIP3    H258778   6.164   0.092   6.211  1.2699 -0.4368 -1.2723
12455TIP3   OH258779   3.464   4.685  12.923 -0.3893 -0.5978 -0.1999
12455TIP3    H158780   3.523   4.755  12.893  1.2683 -1.4217  0.9989
12455TIP3    H258781   3.386   4.732  12.952 -0.2110  0.5647 -1.4442
12456TIP3   OH258782   5.966   1.513  13.608  0.5813 -0.3488  0.0915
12456TIP3    H158783   6.020   1.533  13.531  0.5139  1.0326  0.3627
12456TIP3    H258784   5.988   1.583  13.670 -0.5177 -0.5475  0.7244
12457TIP3   OH258785   4.151   0.490  11.777  0.3530 -0.0249  0.3970
12457TIP3    H158786   4.145   0.535  11.693  0.8701 -0.2717  0.2260
12457TIP3    H258787   4.069   0.440  11.783  0.9661 -1.2127 -0.6659
12458TIP3   OH258788   4.756   0.226  14.743 -0.1113 -0.3412 -0.7816
12458TIP3    H158789   4.811   0.159  14.784 -0.7894 -0.8077 -0.6302
12458TIP3    H258790   4.700   0.258  14.814  0.1850  0.3794 -0.8552
12459TIP3   OH258791   3.082   3.396  12.029 -0.1629  0.0031 -0.0416
12459TIP3    H158792   3.087   3.304  12.000 -3.1028  0.1594 -1.3886
12459TIP3    H258793   3.164   3.435  11.999  0.5787 -1.8770 -0.5992
12460TIP3   OH258794   2.826   0.315  11.520 -0.3099  0.1304  0.0654
12460TIP3    H158795   2.798   0.387  11.577  1.1955  0.4847  0.3777
12460TIP3    H258796   2.795   0.340  11.433  2.7927  2.7742 -0.4735
12461TIP3   OH258797   2.409   2.249  14.138  0.2484 -0.3316  0.3099
12461TIP3    H158798   2.330   2.288  14.176  0.9915  0.6554  0.9082
12461TIP3    H258799   2.478   2.269  14.201  1.2260 -0.0329 -0.8186
12462TIP3   OH258800   2.667   1.649  14.666 -0.2305 -0.1224  0.3615
12462TIP3    H158801   2.612   1.585  14.712 -0.1382 -0.8073 -0.4554
12462TIP3    H258802   2.635   1.648  14.576  1.5423 -1.0691 -0.3232
12463TIP3   OH258803   1.709   4.525   4.438  0.6701  0.0869 -0.8839
12463TIP3    H158804   1.633   4.539   4.383  0.6656 -2.9421 -1.8371
12463TIP3    H258805   1.723   4.430   4.437  4.1405  0.4297 -0.3519
12464TIP3   OH258806   1.683   0.125  11.372 -0.6300  0.6767  0.1023
12464TIP3    H158807   1.640   0.092  11.451 -1.4562 -1.6268 -1.2200
12464TIP3    H258808   1.619   0.112  11.303 -0.3617  3.7003 -0.8591
12465TIP3   OH258809   5.011   1.489   0.323 -1.1358  0.0170 -0.2532
12465TIP3    H158810   4.947   1.544   0.279 -0.6268  0.0499 -0.9661
12465TIP3    H258811   4.967   1.404   0.332 -1.4240  0.1524 -0.3662
12466TIP3   OH258812   3.310   2.746   5.639  0.0937 -0.0832 -0.0741
12466TIP3    H158813   3.320   2.657   5.606  0.0300 -0.6263  1.3109
12466TIP3    H258814   3.309   2.736   5.734 -1.0733  1.2716  0.0820
12467TIP3   OH258815   3.357   4.746   2.491  0.0279 -0.4832 -0.3567
12467TIP3    H158816   3.317   4.783   2.412  2.5743  0.2686 -1.3965
12467TIP3    H258817   3.335   4.809   2.560 -0.9805 -0.3589 -0.7719
12468TIP3   OH258818   4.912   3.447   4.103 -0.7082 -0.4594  0.2756
12468TIP3    H158819   4.963   3.528   4.101 -0.4944 -0.5511  1.4494
12468TIP3    H258820   4.861   3.449   4.022  1.1572 -0.3790 -0.9524
12469TIP3   OH258821   2.291   2.310   3.743  0.1190  0.2789 -0.1138
12469TIP3    H158822   2.221   2.262   3.788  1.6002 -1.3085  0.5986
12469TIP3    H258823   2.255   2.398   3.731 -2.1939 -0.6114 -0.2747
12470TIP3   OH258824   5.624   6.157  17.218 -0.1413 -0.0866 -0.4439
12470TIP3    H158825   5.685   6.200  17.158  0.4308  1.4949  1.1789
12470TIP3    H258826   5.603   6.074  17.176  2.3942 -0.2652 -1.5158
12471TIP3   OH258827   3.791   0.461   5.755  0.4409  0.1281 -0.4600
12471TIP3    H158828   3.865   0.400   5.751 -0.3196 -0.8937  0.4000
12471TIP3    H258829   3.816   0.524   5.822 -0.9977 -2.4946  2.8776
12472TIP3   OH258830   3.471   2.618   6.374  0.2241  0.0229  0.4328
12472TIP3    H158831   3.451   2.712   6.373  2.2430  0.5209 -0.6133
12472TIP3    H258832   3.388   2.575   6.390 -0.5507  2.0340  2.1615
12473TIP3   OH258833   1.930   5.401  17.033 -0.4692  0.2418  0.2326
12473TIP3    H158834   1.991   5.472  17.011  1.4385 -0.1251  3.5942
12473TIP3    H258835   1.853   5.446  17.067 -0.8720  0.6764 -1.1767
12474TIP3   OH258836   3.050   5.276   6.479  0.2348 -0.3201  0.0432
12474TIP3    H158837   3.103   5.230   6.544 -0.4418 -0.2064  0.7006
12474TIP3    H258838   3.100   5.271   6.398  0.6363 -1.3265  0.3450
12475TIP3   OH258839   5.084   4.821   6.714 -0.5673  0.1526 -0.8590
12475TIP3    H158840   5.113   4.889   6.774 -0.4139  1.5149 -2.4208
12475TIP3    H258841   4.991   4.839   6.701 -0.6308 -0.2199 -0.9256
12476TIP3   OH258842   0.921   2.324  15.281  0.1395 -0.3814 -0.4010
12476TIP3    H158843   0.904   2.240  15.237  1.8575 -1.7892  1.3961
12476TIP3    H258844   0.933   2.300  15.373  0.1708  1.9518  0.2672
12477TIP3   OH258845   3.060   0.324   6.117 -0.1093 -0.0373  0.1755
12477TIP3    H158846   3.013   0.370   6.048 -2.0275 -0.8408  0.8921
12477TIP3    H258847   3.135   0.284   6.071 -0.9492  0.0198 -1.3233
12478TIP3   OH258848   0.405   4.004  13.501 -0.0980 -0.7152  0.3541
12478TIP3    H158849   0.493   3.974  13.481  0.3555  0.1043  1.0604
12478TIP3    H258850   0.415   4.096  13.524 -1.0744 -0.7153  0.8505
12479TIP3   OH258851   2.155   5.322  12.917 -0.0050 -0.1336 -0.0099
12479TIP3    H158852   2.100   5.250  12.886  0.6634 -1.2853  1.3401
12479TIP3    H258853   2.111   5.352  12.997  0.6429 -0.2095  0.3777
12480TIP3   OH258854   3.706   0.339   3.000  0.1054 -0.3473 -0.7446
12480TIP3    H158855   3.751   0.289   2.932  1.1718 -2.0305  1.0894
12480TIP3    H258856   3.735   0.300   3.082  0.2341  2.6805  0.8140
12481TIP3   OH258857   6.752   2.564   6.668 -0.4189  0.5906 -0.7383
12481TIP3    H158858   6.696   2.589   6.594  0.0658 -0.4389 -1.4756
12481TIP3    H258859   6.788   2.479   6.643  1.0694  0.9895 -0.0484
12482TIP3   OH258860   1.556   4.692  12.805 -0.2413 -0.4194  0.5677
12482TIP3    H158861   1.633   4.650  12.844  0.5474 -0.2800 -0.7683
12482TIP3    H258862   1.585   4.781  12.784  0.2912 -1.2181 -2.6926
12483TIP3   OH258863   2.393   3.953   6.439 -0.1030  0.0990 -0.1001
12483TIP3    H158864   2.418   3.994   6.521  0.4487 -1.7046  0.6765
12483TIP3    H258865   2.306   3.988   6.420 -0.5673 -0.0360  1.6679
12484TIP3   OH258866   5.237   3.831  11.967  0.2665 -0.0662  0.4120
12484TIP3    H158867   5.317   3.780  11.981  0.4432 -0.5804 -1.9904
12484TIP3    H258868   5.265   3.906  11.914 -0.5918  0.5997  0.8670
12485TIP3   OH258869   5.971   5.694  15.032  0.5906  0.1673 -0.6386
12485TIP3    H158870   5.906   5.703  14.963 -0.4820 -2.9043 -0.1675
12485TIP3    H258871   6.054   5.712  14.989 -0.1011 -1.1014 -2.6390
12486TIP3   OH258872   5.556   2.192  16.258  0.1560 -0.1902 -0.0222
12486TIP3    H158873   5.477   2.147  16.287  0.0775 -1.3983 -1.9456
12486TIP3    H258874   5.554   2.186  16.163  2.4299 -0.0297 -0.1375
12487TIP3   OH258875   3.057   1.207  12.926 -0.0239  0.0870 -0.4749
12487TIP3    H158876   3.041   1.252  12.843  1.5135  2.4684  0.4068
12487TIP3    H258877   2.987   1.239  12.984  0.1870  0.1549 -0.2558
12488TIP3   OH258878   6.726   2.640   0.626 -0.7167  0.0244  0.1947
12488TIP3    H158879   6.683   2.664   0.708  1.5842  0.8088  1.2476
12488TIP3    H258880   6.662   2.664   0.558 -1.5681  2.0192  1.6010
12489TIP3   OH258881   1.211   2.167   4.923  0.1798 -0.1436 -0.0326
12489TIP3    H158882   1.150   2.183   4.850  0.8575  2.4263 -0.1345
12489TIP3    H258883   1.184   2.230   4.990  0.7816 -1.1482  1.1828
12490TIP3   OH258884   0.773   4.786   5.031 -0.2103  0.3228  0.5568
12490TIP3    H158885   0.693   4.742   5.001 -0.3089  0.2528  0.9114
12490TIP3    H258886   0.826   4.715   5.068  0.0805  0.3480  0.1978
12491TIP3   OH258887   3.650   6.630  17.120 -0.0981 -0.1632  0.5758
12491TIP3    H158888   3.625   6.718  17.093 -0.7076 -0.5442 -0.1395
12491TIP3    H258889   3.742   6.637  17.144  0.4746  0.2100 -1.5476
12492TIP3   OH258890   0.372   4.937  15.921  0.3519 -0.9208 -0.7357
12492TIP3    H158891   0.376   4.913  15.828  1.4008  0.7383 -1.1688
12492TIP3    H258892   0.426   5.016  15.928  0.8775 -1.3987  1.4316
12493TIP3   OH258893   3.505   2.343   2.186 -0.0200  0.1515  0.1189
12493TIP3    H158894   3.461   2.379   2.109 -0.8889 -0.4834  0.2996
12493TIP3    H258895   3.457   2.381   2.261  0.0881 -0.1190  0.3261
12494TIP3   OH258896   1.823   5.928   4.627 -0.1119  0.7597  0.3147
12494TIP3    H158897   1.897   5.881   4.666 -1.6655 -1.3687  0.9052
12494TIP3    H258898   1.780   5.971   4.701 -0.3302  0.7078  0.2196
12495TIP3   OH258899   4.377   0.966   3.591 -0.1401 -0.5503 -0.4041
12495TIP3    H158900   4.296   0.915   3.592 -0.3135 -0.4427  2.6988
12495TIP3    H258901   4.446   0.900   3.587 -0.3889 -0.8781  0.4182
12496TIP3   OH258902   4.037   1.707   4.842 -0.0572 -0.2643 -0.8349
12496TIP3    H158903   4.012   1.760   4.766  0.2728  1.5951  0.2957
12496TIP3    H258904   4.107   1.758   4.884  0.6398 -1.8733  0.0291
12497TIP3   OH258905   1.494   2.407   5.913 -0.4530 -0.2300 -0.6247
12497TIP3    H158906   1.432   2.334   5.921 -0.7803 -0.0479 -1.4142
12497TIP3    H258907   1.477   2.461   5.990 -2.9735  1.1010 -1.9785
12498TIP3   OH258908   2.764   5.280  16.029 -0.1038  0.1657 -0.0340
12498TIP3    H158909   2.702   5.245  16.093 -0.0874 -0.5631 -0.4019
12498TIP3    H258910   2.797   5.203  15.983  0.2761  0.6361 -0.5670
12499TIP3   OH258911   2.705   2.369   4.576  0.3023 -0.0015 -0.7639
12499TIP3    H158912   2.682   2.326   4.494  0.5017 -2.9469  0.5706
12499TIP3    H258913   2.734   2.297   4.633  1.0024  2.0166  1.6009
12500TIP3   OH258914   5.531   5.800  13.204  0.2001  0.3210 -0.1863
12500TIP3    H158915   5.459   5.742  13.180 -0.2422  1.4608 -1.7402
12500TIP3    H258916   5.608   5.742  13.207 -0.5733 -0.7004  0.4066
12501TIP3   OH258917   2.332   1.510   3.659  0.3551  0.0167 -0.1045
12501TIP3    H158918   2.267   1.442   3.643 -1.2728  1.6819 -1.0259
12501TIP3    H258919   2.280   1.590   3.673  2.1951  1.2904 -0.1613
12502TIP3   OH258920   5.900   4.940   5.624  0.6431  0.0516 -0.4142
12502TIP3    H158921   5.962   5.013   5.618  1.7631 -0.9147 -1.1702
12502TIP3    H258922   5.872   4.939   5.715  0.7056  1.3303 -0.3622
12503TIP3   OH258923   2.076   4.607  10.857 -0.2616 -0.3368  0.2008
12503TIP3    H158924   2.032   4.527  10.886 -1.5979 -0.0417 -0.9323
12503TIP3    H258925   2.021   4.678  10.890 -0.5910  0.0429 -1.1346
12504TIP3   OH258926   2.970   2.683  15.712  0.5747  0.4449 -0.6281
12504TIP3    H158927   2.906   2.611  15.717  1.4753 -0.3122  0.8417
12504TIP3    H258928   3.048   2.648  15.754  1.4845  1.8677 -1.0592
12505TIP3   OH258929   5.359   3.910  13.253 -0.0164 -0.5321 -0.2197
12505TIP3    H158930   5.374   3.857  13.331 -0.0445  1.2404  1.0676
12505TIP3    H258931   5.409   3.990  13.269  1.0179 -0.6057 -2.6249
12506TIP3   OH258932   6.009   4.240  12.082  0.2760 -0.3468  0.1634
12506TIP3    H158933   5.953   4.231  12.006  1.5579 -0.0975 -0.8509
12506TIP3    H258934   5.958   4.291  12.144 -0.0003  1.3728 -1.3935
12507TIP3   OH258935   2.803   4.352  17.177 -0.5507 -0.2536 -0.1877
12507TIP3    H158936   2.785   4.258  17.168  4.0521 -1.5740  1.6138
12507TIP3    H258937   2.779   4.372  17.267 -2.2197  0.5973 -0.7826
12508TIP3   OH258938   1.097   6.315  12.694  0.0574  0.4307  0.0457
12508TIP3    H158939   1.110   6.406  12.721  0.5033 -0.0856  1.6757
12508TIP3    H258940   1.162   6.266  12.743 -1.3723 -0.9896  0.6111
12509TIP3   OH258941   1.241   2.265  11.904 -0.3615 -0.2914 -0.2879
12509TIP3    H158942   1.334   2.245  11.914 -0.7286 -0.9837  2.4584
12509TIP3    H258943   1.238   2.360  11.893  0.5975  0.3572  3.5443
12510TIP3   OH258944   4.891   0.577   3.190  0.2621  0.1631 -0.2081
12510TIP3    H158945   4.827   0.507   3.202  0.2987 -0.4082 -2.7769
12510TIP3    H258946   4.839   0.653   3.163  0.5034  0.2837 -0.3347
12511TIP3   OH258947   5.489   5.603   2.308 -0.0045  0.1091 -0.5442
12511TIP3    H158948   5.547   5.654   2.364  1.7095 -0.4345 -1.7440
12511TIP3    H258949   5.512   5.512   2.327 -0.1250 -0.1035 -1.3760
12512TIP3   OH258950   5.593   3.506   1.494 -0.4584  0.8615  0.6536
12512TIP3    H158951   5.643   3.516   1.414 -0.1626  1.3601  0.8946
12512TIP3    H258952   5.505   3.537   1.472 -0.8335 -0.5295  0.0776
12513TIP3   OH258953   2.409   4.004   0.115 -0.0501  0.2423 -0.2246
12513TIP3    H158954   2.347   4.041   0.178  1.0134 -0.0867  1.0614
12513TIP3    H258955   2.387   3.910   0.112  0.0736  0.2102 -0.1358
12514TIP3   OH258956   2.352   5.640   3.910 -0.2865  0.3700  0.2193
12514TIP3    H158957   2.299   5.696   3.967 -0.8584  0.3844 -0.3091
12514TIP3    H258958   2.327   5.667   3.821  0.9776  0.7190 -0.0443
12515TIP3   OH258959   2.733   4.747   3.677 -0.0966  0.5633 -0.2140
12515TIP3    H158960   2.821   4.775   3.704 -1.0387  2.6850  0.8851
12515TIP3    H258961   2.700   4.696   3.751  0.2587 -0.4678 -0.7373
12516TIP3   OH258962   5.894   5.544  11.772 -0.8288  0.4823  0.3585
12516TIP3    H158963   5.978   5.500  11.783 -0.5307 -0.1593 -3.2853
12516TIP3    H258964   5.833   5.473  11.748 -1.8379  1.2417  0.6314
12517TIP3   OH258965   5.237   5.314  15.833  0.0301  0.6230  0.2146
12517TIP3    H158966   5.164   5.262  15.867  0.7935  0.5107  1.7389
12517TIP3    H258967   5.302   5.249  15.806 -0.0936  0.7441 -0.3956
12518TIP3   OH258968   0.182   2.284  13.784  0.2287  0.1572  0.5134
12518TIP3    H158969   0.086   2.280  13.775  0.3991 -1.7906 -1.2602
12518TIP3    H258970   0.200   2.377  13.801 -1.8088  1.1345 -1.8770
12519TIP3   OH258971   6.392   5.737   6.241 -0.9510 -0.0837 -0.4703
12519TIP3    H158972   6.376   5.802   6.172  0.3613  0.9233  0.1179
12519TIP3    H258973   6.408   5.789   6.319  1.4356 -1.0222 -0.2433
12520TIP3   OH258974   1.366   6.704  17.081  1.0747  0.3934 -0.0262
12520TIP3    H158975   1.406   6.694  17.167  0.8116 -1.6866 -0.0863
12520TIP3    H258976   1.305   6.630  17.075  1.0022  0.5633 -1.9333
12521TIP3   OH258977   4.238   0.702  16.514  0.6843 -0.3239  0.0704
12521TIP3    H158978   4.264   0.614  16.488 -0.9774 -0.4054 -1.5275
12521TIP3    H258979   4.280   0.760  16.451  2.4469  0.1772  1.6014
12522TIP3   OH258980   4.383   1.067  13.615 -0.0282 -0.2540  0.3389
12522TIP3    H158981   4.332   1.137  13.656 -0.0713  1.3335 -2.2442
12522TIP3    H258982   4.319   0.998  13.598 -0.7505  0.5540 -0.2968
12523TIP3   OH258983   1.476   3.072   2.628 -0.2325  0.0576  0.0745
12523TIP3    H158984   1.429   3.041   2.551 -1.4780 -1.4280  1.3740
12523TIP3    H258985   1.511   2.992   2.668  0.2933  0.7904  1.1190
12524TIP3   OH258986   1.025   0.706  12.381  0.0665  0.5110 -0.0183
12524TIP3    H158987   1.118   0.687  12.365  0.7568  2.0373  1.9005
12524TIP3    H258988   1.019   0.723  12.475 -2.2894 -0.1042  0.0108
12525TIP3   OH258989   1.553   0.063   0.378 -0.2902  0.0073  0.2905
12525TIP3    H158990   1.496   0.116   0.435  0.9921  0.5928  1.0827
12525TIP3    H258991   1.633   0.115   0.371  1.2298 -2.0132  1.5040
12526TIP3   OH258992   6.331   4.141  14.583  0.1184 -0.0040 -0.5058
12526TIP3    H158993   6.265   4.208  14.568 -0.6366 -0.7805 -0.7219
12526TIP3    H258994   6.412   4.177  14.545 -0.0707  1.1211  0.1143
12527TIP3   OH258995   5.611   5.705   2.064  0.1094  0.4897  0.1625
12527TIP3    H158996   5.554   5.664   2.129  1.8221 -0.2388  1.2772
12527TIP3    H258997   5.693   5.656   2.069  0.9525  1.6799 -1.1568
12528TIP3   OH258998   4.607   2.989   5.851  0.1328 -0.2109  0.4587
12528TIP3    H158999   4.605   2.979   5.946 -0.3613  0.7334  0.5636
12528TIP3    H259000   4.623   3.082   5.836  0.1867 -0.3397 -0.3864
12529TIP3   OH259001   2.292   1.130   0.968  0.2270  0.8463  0.0620
12529TIP3    H159002   2.312   1.075   0.892  1.6366  0.5689  0.5985
12529TIP3    H259003   2.208   1.099   0.999  1.3517 -1.6361  0.8540
12530TIP3   OH259004   5.364   1.325   1.974 -0.4529  0.3398  0.0858
12530TIP3    H159005   5.280   1.344   2.015 -1.6223 -0.6618 -1.7177
12530TIP3    H259006   5.394   1.245   2.016 -0.4735  0.5948  0.5980
12531TIP3   OH259007   5.295   2.320  12.316  0.0477 -0.3275  0.6182
12531TIP3    H159008   5.304   2.346  12.224  2.6517 -0.9166  0.6126
12531TIP3    H259009   5.314   2.400  12.365 -0.3650 -0.2418  0.6376
12532TIP3   OH259010   3.339   1.270  11.831  0.7545  0.0207  0.1650
12532TIP3    H159011   3.411   1.311  11.879  0.6889  1.3834 -0.8661
12532TIP3    H259012   3.380   1.231  11.754  0.4372  0.4999 -0.2473
12533TIP3   OH259013   1.842   2.622  11.095  0.4869 -0.3348 -0.3114
12533TIP3    H159014   1.754   2.642  11.063  0.2904 -0.0597  0.3783
12533TIP3    H259015   1.837   2.636  11.190  1.3339 -0.0958 -0.2912
12534TIP3   OH259016   3.910   2.936   4.889  0.0515 -0.2065 -0.1370
12534TIP3    H159017   3.880   3.024   4.912 -1.5535 -0.3963 -1.3561
12534TIP3    H259018   3.954   2.947   4.805  0.6013 -0.4474  0.1133
12535TIP3   OH259019   2.375   5.677  12.847 -0.1975 -0.3887 -0.1092
12535TIP3    H159020   2.364   5.764  12.886  0.3115 -0.6079  0.5440
12535TIP3    H259021   2.419   5.626  12.915  0.0360 -0.9942 -0.7054
12536TIP3   OH259022   4.255   0.244   4.756 -0.1533 -0.0133  0.6148
12536TIP3    H159023   4.180   0.239   4.816 -0.1817  1.1796  0.7056
12536TIP3    H259024   4.220   0.287   4.678  0.6238  1.4134  1.0151
12537TIP3   OH259025   1.049   1.806   2.742  0.4308  0.5759 -0.0727
12537TIP3    H159026   1.136   1.772   2.721 -0.9213 -1.9284 -2.2506
12537TIP3    H259027   1.050   1.897   2.713  1.5533 -0.1902 -2.7209
12538TIP3   OH259028   4.524   1.331  11.282  0.1790  0.0679 -0.4155
12538TIP3    H159029   4.442   1.366  11.249 -0.8032 -1.4803  0.2662
12538TIP3    H259030   4.569   1.407  11.319 -0.9233  0.9538 -0.8296
12539TIP3   OH259031   4.376   0.037  16.647 -0.6308 -0.5689 -0.0721
12539TIP3    H159032   4.389   0.019  16.554 -0.9737  0.6842 -0.3943
12539TIP3    H259033   4.442   0.103  16.668 -1.3170  0.0400  0.2486
12540TIP3   OH259034   6.052   0.306  16.554 -0.0377 -0.1873 -0.2814
12540TIP3    H159035   6.003   0.351  16.484 -1.2561  0.3286  0.8739
12540TIP3    H259036   6.002   0.226  16.571 -2.1996  1.5952  2.7655
12541TIP3   OH259037   6.332   3.703  13.276 -0.2461  0.4224  0.4527
12541TIP3    H159038   6.302   3.618  13.308  1.1686  0.2368  1.3366
12541TIP3    H259039   6.397   3.683  13.209  1.1914  0.7530  1.6949
12542TIP3   OH259040   0.852   1.962   3.261 -0.5158  0.5379  0.6794
12542TIP3    H159041   0.899   2.005   3.332  0.2702  1.6871 -0.4893
12542TIP3    H259042   0.766   2.006   3.259  0.1394  1.8645 -0.2513
12543TIP3   OH259043   3.261   2.641   1.661 -0.3545 -0.0721 -0.7101
12543TIP3    H159044   3.212   2.711   1.704  0.5999 -0.9657  2.0042
12543TIP3    H259045   3.196   2.598   1.605 -2.6002 -0.7129  2.1275
12544TIP3   OH259046   5.380   1.465   1.516  0.0660 -0.3417  0.0685
12544TIP3    H159047   5.363   1.406   1.589 -0.9880  0.7003  0.7069
12544TIP3    H259048   5.321   1.435   1.447  2.0372 -2.2051 -0.9486
12545TIP3   OH259049   2.644   4.311  12.006 -0.0961  0.3301 -0.0885
12545TIP3    H159050   2.639   4.230  11.956 -0.1948  1.1440 -1.4604
12545TIP3    H259051   2.737   4.331  12.012 -0.0113 -0.3353  1.0447
12546TIP3   OH259052   3.506   6.308  15.815  0.2656  0.1431  0.0555
12546TIP3    H159053   3.522   6.230  15.762  1.8385  0.6949 -0.3386
12546TIP3    H259054   3.513   6.381  15.754 -3.2693  0.6022 -0.0476
12547TIP3   OH259055   1.692   2.108  14.951 -0.4543 -0.5251  0.5209
12547TIP3    H159056   1.644   2.123  14.869  0.5238  0.7722  0.1659
12547TIP3    H259057   1.767   2.054  14.925 -0.8849 -1.2873  0.8197
12548TIP3   OH259058   1.908   5.434  11.451  0.4428  0.2273 -0.3634
12548TIP3    H159059   1.926   5.362  11.391  0.0635  1.1633 -1.6623
12548TIP3    H259060   1.907   5.394  11.538 -1.4107 -1.6538 -1.1665
12549TIP3   OH259061   2.722   2.628   4.475 -0.7781 -0.2542 -0.0121
12549TIP3    H159062   2.719   2.537   4.505  0.2611 -0.8051 -1.5011
12549TIP3    H259063   2.802   2.634   4.424 -0.8183  1.5257  0.0771
12550TIP3   OH259064   1.813   6.048   3.277  0.5793 -0.4480 -0.0979
12550TIP3    H159065   1.789   5.989   3.348 -1.5090  0.9894  0.4994
12550TIP3    H259066   1.760   6.126   3.292  1.3282  0.5700 -2.3021
12551TIP3   OH259067   2.089   4.144  14.445  0.7970  0.4708 -0.1190
12551TIP3    H159068   2.144   4.117  14.372  1.6363 -0.6522  0.8982
12551TIP3    H259069   2.149   4.179  14.510 -0.0784  2.9490 -0.5431
12552TIP3   OH259070   5.225   2.093  15.043  0.0845  0.3079 -0.3493
12552TIP3    H159071   5.130   2.095  15.035 -0.0921 -0.7830  1.0541
12552TIP3    H259072   5.250   2.008  15.007  0.0700 -1.1202  2.7074
12553TIP3   OH259073   4.387   6.425   5.809 -0.6966  0.6366 -0.5661
12553TIP3    H159074   4.344   6.491   5.755 -0.2915  1.8730  0.5560
12553TIP3    H259075   4.448   6.475   5.864  0.5968 -0.8258 -0.6035
12554TIP3   OH259076   4.722   3.001  13.027 -0.6962 -0.4242 -0.4734
12554TIP3    H159077   4.696   3.035  13.112 -1.3069 -4.5806  1.2639
12554TIP3    H259078   4.647   3.016  12.970 -0.8459  1.1132  0.0991
12555TIP3   OH259079   2.179   0.572   4.404 -0.2031 -0.1273 -0.3380
12555TIP3    H159080   2.242   0.537   4.341 -0.9742  0.2563 -1.3479
12555TIP3    H259081   2.113   0.504   4.414  0.4135 -0.5807  0.8158
12556TIP3   OH259082   4.530   2.753   6.553  0.0703  0.0281 -0.4681
12556TIP3    H159083   4.564   2.835   6.517  0.2286 -0.0133 -0.4143
12556TIP3    H259084   4.608   2.701   6.570  0.1044  0.6130  1.3347
12557TIP3   OH259085   4.274   1.347  11.492  0.1879 -0.5827 -0.1432
12557TIP3    H159086   4.263   1.371  11.400 -3.1849 -1.0106  0.0245
12557TIP3    H259087   4.245   1.255  11.496  2.6110 -1.3887  1.0180
12558TIP3   OH259088   5.730   4.410   4.154 -0.3405 -0.2055  0.2474
12558TIP3    H159089   5.746   4.367   4.070  1.6100  3.5406 -1.5673
12558TIP3    H259090   5.797   4.376   4.212 -0.6692 -1.6260 -0.1613
12559TIP3   OH259091   5.151   2.644  14.180 -0.0728 -0.4850 -0.5550
12559TIP3    H159092   5.183   2.707  14.116  0.3385  1.2641  1.2571
12559TIP3    H259093   5.229   2.596  14.208  0.0686  0.0090 -0.0808
12560TIP3   OH259094   5.907   0.033   1.097 -0.0921  0.1319  0.0284
12560TIP3    H159095   5.918   0.001   1.186  0.5955  1.7120  0.5486
12560TIP3    H259096   5.970   0.104   1.089 -0.6278  0.4759 -1.4972
12561TIP3   OH259097   2.740   0.690   4.209 -0.4858  0.1398  0.0270
12561TIP3    H159098   2.727   0.750   4.283 -0.8108 -1.2471  1.1339
12561TIP3    H259099   2.830   0.661   4.218 -0.8270 -0.8120  0.5039
12562TIP3   OH259100   2.726   6.711   3.704  0.3974 -0.9329 -0.4068
12562TIP3    H159101   2.656   6.682   3.644  0.1586 -0.0635 -0.5641
12562TIP3    H259102   2.772   6.779   3.655  0.5437 -0.5997  0.1881
12563TIP3   OH259103   2.377   1.402   2.953 -0.3644 -0.0844 -0.1869
12563TIP3    H159104   2.451   1.461   2.969 -0.0022 -0.8472  1.0696
12563TIP3    H259105   2.340   1.432   2.870  0.0761  1.6235  0.1922
12564TIP3   OH259106   4.116   3.513  15.421 -0.5945  0.3331 -0.6622
12564TIP3    H159107   4.098   3.537  15.512  0.6526  1.3141 -0.6495
12564TIP3    H259108   4.075   3.427  15.411 -0.6498  0.1510  0.8522
12565TIP3   OH259109   3.723   2.547   0.195  0.2320  0.8184  0.1995
12565TIP3    H159110   3.633   2.575   0.207  0.1973  0.1010  1.8477
12565TIP3    H259111   3.763   2.614   0.139 -1.9721 -0.1713 -2.8681
12566TIP3   OH259112   3.452   4.020  14.837 -0.5707  0.1935 -0.2344
12566TIP3    H159113   3.394   3.950  14.806 -0.6722  0.8576 -1.6103
12566TIP3    H259114   3.395   4.075  14.891 -0.4471 -0.8547  1.0198
12567TIP3   OH259115   2.284   2.924  11.999  0.3509 -0.5092 -0.1786
12567TIP3    H159116   2.273   2.908  12.093  0.2907  0.7340  0.0414
12567TIP3    H259117   2.344   2.998  11.994  0.6221 -0.7823 -1.1379
12568TIP3   OH259118   3.017   3.797  11.540 -0.5146  0.4261 -0.0898
12568TIP3    H159119   2.985   3.820  11.627 -0.6203  0.9324 -0.2592
12568TIP3    H259120   3.025   3.881  11.495 -0.1931  0.1893 -0.4755
12569TIP3   OH259121   1.235   4.190   4.418 -0.2950 -0.2324  0.8611
12569TIP3    H159122   1.229   4.285   4.412  2.0676 -0.1100 -1.4191
12569TIP3    H259123   1.309   4.174   4.477  1.3527 -0.4703 -1.1422
12570TIP3   OH259124   0.938   1.750  11.097 -0.0767 -0.4810  0.2391
12570TIP3    H159125   0.941   1.825  11.155 -2.8418 -0.6145  0.6794
12570TIP3    H259126   0.902   1.784  11.015 -0.2662 -1.0940  0.0580
12571TIP3   OH259127   4.250   5.710   1.597  0.0289  0.1747  0.1832
12571TIP3    H159128   4.248   5.706   1.692 -1.3986 -3.2406  0.1530
12571TIP3    H259129   4.162   5.738   1.572  0.1899  0.4053 -0.1272
12572TIP3   OH259130   4.847   5.218  11.994 -0.0074 -0.0357 -1.0816
12572TIP3    H159131   4.767   5.253  12.033  0.4903  0.1552 -0.2060
12572TIP3    H259132   4.905   5.294  11.986  0.3882 -0.3185 -0.9355
12573TIP3   OH259133   5.211   1.245  15.358  0.1350  0.0151  0.2131
12573TIP3    H159134   5.261   1.195  15.422  1.3967  1.5892  0.5162
12573TIP3    H259135   5.255   1.330  15.354 -0.6555  0.3873 -1.8339
12574TIP3   OH259136   5.615   5.237  12.603 -0.1531  0.7640 -0.5161
12574TIP3    H159137   5.701   5.197  12.611 -0.3563  0.4134 -0.0770
12574TIP3    H259138   5.557   5.182  12.655 -0.5704  1.2209 -0.4820
12575TIP3   OH259139   5.318   4.036  12.753  0.0953  0.5378 -0.4312
12575TIP3    H159140   5.405   4.072  12.767  0.2015  0.5781 -1.1464
12575TIP3    H259141   5.267   4.066  12.828  0.4471  1.3251 -0.4952
12576TIP3   OH259142   0.554   2.115  12.353 -0.0792  0.1515  0.1896
12576TIP3    H159143   0.606   2.185  12.394 -2.2664  1.7632  0.3760
12576TIP3    H259144   0.489   2.091  12.420 -2.9562  1.9938 -1.7519
12577TIP3   OH259145   4.474   0.229   5.685  0.3258 -0.0968 -0.3298
12577TIP3    H159146   4.568   0.212   5.689  0.6019  1.4397  0.5161
12577TIP3    H259147   4.449   0.247   5.776 -0.5859  0.4543 -0.6757
12578TIP3   OH259148   5.124   0.907   4.940 -0.2391  0.2485  0.5799
12578TIP3    H159149   5.066   0.971   4.981 -1.8189  0.5934 -1.9418
12578TIP3    H259150   5.065   0.839   4.907  1.1328 -1.0101  0.6366
12579TIP3   OH259151   2.836   1.626  10.804 -0.3186  0.3362 -0.2635
12579TIP3    H159152   2.897   1.555  10.822 -2.0047 -1.8142 -2.2947
12579TIP3    H259153   2.809   1.612  10.713 -2.6291  2.0856  0.0455
12580TIP3   OH259154   3.065   4.809  11.019  0.3150 -0.1308  0.0708
12580TIP3    H159155   3.145   4.791  11.068 -0.1019 -1.1519  0.4050
12580TIP3    H259156   3.041   4.725  10.980 -0.7344  0.1026  0.1824
12581TIP3   OH259157   5.262   2.030  13.987 -0.3885 -0.2859  0.3026
12581TIP3    H159158   5.288   2.069  14.070 -2.0549  0.1129  0.6737
12581TIP3    H259159   5.259   2.104  13.926 -1.9407 -0.0609  0.6090
12582TIP3   OH259160   3.603   6.204   1.943  0.3104  0.3619  0.4058
12582TIP3    H159161   3.549   6.265   1.892  0.5297 -0.1079 -0.4017
12582TIP3    H259162   3.543   6.171   2.010 -0.8591 -1.1891 -1.3045
12583TIP3   OH259163   1.704   5.399  15.880 -0.1578  0.0152 -0.0968
12583TIP3    H159164   1.751   5.465  15.930 -1.1382  0.7688 -0.1382
12583TIP3    H259165   1.768   5.367  15.816  0.2776  1.0601 -0.2008
12584TIP3   OH259166   0.597   2.127   3.268  0.6090  0.3661 -0.2336
12584TIP3    H159167   0.644   2.165   3.194  1.3050  0.0339  0.0309
12584TIP3    H259168   0.611   2.189   3.340  0.3457  0.4373 -0.2391
12585TIP3   OH259169   6.694   1.547   1.940  0.3521 -0.2683  0.1352
12585TIP3    H159170   6.754   1.550   2.015  0.7606  0.3522 -0.2116
12585TIP3    H259171   6.751   1.560   1.864 -0.1927  0.0761 -0.2125
12586TIP3   OH259172   1.636   6.653   5.184 -0.2001 -0.1934 -0.3225
12586TIP3    H159173   1.670   6.597   5.253 -0.8519 -1.4844 -1.0063
12586TIP3    H259174   1.541   6.654   5.198 -0.3648 -0.6407 -1.2852
12587TIP3   OH259175   5.739   6.398   4.095 -0.4049 -0.1976 -0.2812
12587TIP3    H159176   5.673   6.329   4.103 -0.4174 -0.0341  1.4816
12587TIP3    H259177   5.820   6.356   4.124  0.1226 -0.1774 -1.6781
12588TIP3   OH259178   0.764   3.551   1.207 -0.4800  0.3864  0.0599
12588TIP3    H159179   0.680   3.545   1.251 -0.4900 -0.5073 -0.0765
12588TIP3    H259180   0.829   3.534   1.275 -0.4703 -0.3711 -0.1363
12589TIP3   OH259181   5.731   3.283   0.906  0.6859 -0.0700  0.1128
12589TIP3    H159182   5.729   3.218   0.976  1.4487  1.8896  2.0925
12589TIP3    H259183   5.674   3.354   0.938 -1.9620 -0.5732 -2.9428
12590TIP3   OH259184   0.366   2.686   6.243 -0.5130  0.4640  0.3871
12590TIP3    H159185   0.403   2.623   6.304  1.0289  0.3231 -0.6427
12590TIP3    H259186   0.336   2.758   6.298  0.1983  0.0264  1.3612
12591TIP3   OH259187   3.745   5.259   1.400 -0.4770  0.3667  0.6890
12591TIP3    H159188   3.668   5.219   1.440 -0.5537 -0.0469  0.1401
12591TIP3    H259189   3.812   5.190   1.404 -0.5118  0.2942  0.0233
12592TIP3   OH259190   1.911   0.650  15.234  0.4157  0.2833  0.2138
12592TIP3    H159191   1.972   0.589  15.194 -0.9450 -0.7502 -0.3819
12592TIP3    H259192   1.853   0.595  15.287 -0.5199  1.0950  0.0774
12593TIP3   OH259193   2.480   1.586   1.426 -1.0854  0.3645  0.1891
12593TIP3    H159194   2.427   1.658   1.391  0.5315  0.8342 -1.4284
12593TIP3    H259195   2.424   1.509   1.417 -2.5558  1.2584  1.2336
12594TIP3   OH259196   6.302   3.350   2.054  0.4852 -0.0660  0.0214
12594TIP3    H159197   6.254   3.273   2.025 -1.5590  0.8971  0.6765
12594TIP3    H259198   6.293   3.413   1.983  0.4068  0.2838  0.3399
12595TIP3   OH259199   2.234   6.008   5.040 -0.2619  0.8535  0.1893
12595TIP3    H159200   2.238   6.030   5.133  1.0437 -0.5520  0.5134
12595TIP3    H259201   2.200   5.919   5.038  0.9733  0.3714 -0.5653
12596TIP3   OH259202   2.619   6.009  14.619  0.6358 -0.5709 -0.3236
12596TIP3    H159203   2.692   6.067  14.642  0.2582 -1.1207  2.6323
12596TIP3    H259204   2.556   6.067  14.576  1.6743  0.4976 -0.4577
12597TIP3   OH259205   2.037   2.802  12.037 -0.1886  0.2628  0.1377
12597TIP3    H159206   2.110   2.740  12.037 -0.6094 -0.2960 -1.5954
12597TIP3    H259207   2.073   2.882  12.000 -0.6395 -0.3453 -1.7578
12598TIP3   OH259208   6.102   4.775   5.874 -0.4148 -0.2814 -0.0076
12598TIP3    H159209   6.093   4.742   5.784  1.1998 -0.2702 -0.2062
12598TIP3    H259210   6.173   4.840   5.869 -3.6211  3.6071  0.3137
12599TIP3   OH259211   3.722   4.455   2.550 -0.5060 -0.2482 -0.2965
12599TIP3    H159212   3.679   4.539   2.536 -0.2743  0.3288  2.0014
12599TIP3    H259213   3.814   4.470   2.527 -0.3935  0.2537  0.4528
12600TIP3   OH259214   5.285   4.041   5.975 -0.2797 -0.0396 -0.8167
12600TIP3    H159215   5.238   4.123   5.968 -0.6176  0.2015  2.5524
12600TIP3    H259216   5.217   3.975   5.987  0.0279  0.0556  2.1535
12601TIP3   OH259217   0.594   6.171  15.414 -0.1793  0.5197 -0.3213
12601TIP3    H159218   0.528   6.229  15.453 -0.9801 -1.0770  0.8219
12601TIP3    H259219   0.549   6.131  15.339  0.1863  0.9297 -0.7687
12602TIP3   OH259220   5.092   0.264  12.155  0.1097 -0.3133  0.9613
12602TIP3    H159221   5.056   0.349  12.129  1.4530  0.6206  2.0176
12602TIP3    H259222   5.024   0.201  12.133 -1.0511  1.0754  0.4572
12603TIP3   OH259223   4.507   4.872   0.269 -0.1392 -0.0843  0.0566
12603TIP3    H159224   4.517   4.962   0.237  1.2585  0.1856  1.1437
12603TIP3    H259225   4.519   4.817   0.191  0.6254  0.6236 -0.3424
12604TIP3   OH259226   2.225   0.439  11.749 -0.2217  0.4686  0.4791
12604TIP3    H159227   2.157   0.506  11.742 -0.7704  0.3788  3.6094
12604TIP3    H259228   2.307   0.485  11.728 -0.7338  1.8089  1.3323
12605TIP3   OH259229   6.444   0.915  12.012 -0.0687 -0.4428 -0.0579
12605TIP3    H159230   6.382   0.885  11.946 -1.3042  1.5855  0.0786
12605TIP3    H259231   6.529   0.883  11.982 -0.8621 -1.2189 -1.5706
12606TIP3   OH259232   0.140   5.308  13.650 -0.5911 -0.5228  0.4294
12606TIP3    H159233   0.102   5.387  13.610 -1.6968 -1.1169  0.2572
12606TIP3    H259234   0.225   5.299  13.608 -0.9849 -0.1241 -0.4964
12607TIP3   OH259235   3.277   3.500  12.751  0.6571 -0.6929  0.0206
12607TIP3    H159236   3.334   3.519  12.676 -0.8835  0.4387 -0.9069
12607TIP3    H259237   3.196   3.467  12.713 -0.8424  1.5862  1.0238
12608TIP3   OH259238   0.810   2.087   6.365 -0.5003  0.0501 -0.3516
12608TIP3    H159239   0.755   2.021   6.406 -1.0294  0.6516 -0.0717
12608TIP3    H259240   0.783   2.169   6.406 -0.0708  0.4829 -0.9162
12609TIP3   OH259241   1.573   3.926   6.347  0.6236  0.4304 -0.3820
12609TIP3    H159242   1.478   3.935   6.339  0.4297 -0.4498  0.7574
12609TIP3    H259243   1.596   3.858   6.284 -0.0121 -1.8150  1.6521
12610TIP3   OH259244   4.747   0.138   0.716  0.4874  0.0847 -0.2719
12610TIP3    H159245   4.725   0.195   0.789 -0.3881  0.6923 -0.9843
12610TIP3    H259246   4.730   0.191   0.638  0.7907 -0.7569 -0.9302
12611TIP3   OH259247   1.501   4.536   0.489  0.1183  0.4208  0.9646
12611TIP3    H159248   1.511   4.588   0.409  2.0813  0.8935  1.4739
12611TIP3    H259249   1.483   4.601   0.558  0.1487  0.1894  1.1912
12612TIP3   OH259250   3.182   5.543   3.733 -0.3404  0.2630  0.4052
12612TIP3    H159251   3.171   5.524   3.640  0.2117  0.1867  0.3533
12612TIP3    H259252   3.108   5.500   3.775 -1.1246  1.0925 -0.0886
12613TIP3   OH259253   5.896   1.014  14.797  0.3331  0.1531 -0.2163
12613TIP3    H159254   5.945   0.978  14.723 -0.1555 -0.9172 -0.0480
12613TIP3    H259255   5.808   1.031  14.761  0.0290 -0.5798  0.1510
12614TIP3   OH259256   4.726   5.553   5.583 -0.0544  0.6206  0.1726
12614TIP3    H159257   4.763   5.491   5.645  2.1410 -0.1415 -1.7825
12614TIP3    H259258   4.758   5.639   5.613 -1.4063  0.6514  1.6808
12615TIP3   OH259259   5.120   0.272  12.486 -0.0214 -0.2558 -0.0271
12615TIP3    H159260   5.115   0.191  12.536  0.1307 -0.2838 -0.0584
12615TIP3    H259261   5.128   0.341  12.553 -0.4573 -0.2379  0.0118
12616TIP3   OH259262   4.745   5.590   0.066 -0.7763 -0.0826  0.0566
12616TIP3    H159263   4.833   5.582   0.101  1.3486  0.0126 -4.5063
12616TIP3    H259264   4.728   5.684   0.065  0.7160  0.2485 -2.1673
12617TIP3   OH259265   4.151   6.620  14.277 -0.5718 -0.0758  0.3100
12617TIP3    H159266   4.230   6.598  14.228 -1.0521 -0.6353 -0.2248
12617TIP3    H259267   4.137   6.713  14.258 -0.3751 -0.1198 -0.0695
12618TIP3   OH259268   5.342   1.810  16.699 -0.1427  0.0092  0.2836
12618TIP3    H159269   5.263   1.818  16.753  0.7739  0.9359  1.5567
12618TIP3    H259270   5.367   1.718  16.707  0.3092  0.2313  2.0243
12619TIP3   OH259271   0.144   1.124  16.524 -0.7335  0.0416 -0.0299
12619TIP3    H159272   0.134   1.073  16.605  0.8344  1.2969  0.9972
12619TIP3    H259273   0.134   1.215  16.551 -2.1584  0.4175 -1.6231
12620TIP3   OH259274   2.690   1.596  12.858 -0.2677  0.8909  0.1124
12620TIP3    H159275   2.606   1.552  12.872  0.4407 -0.8649 -0.9552
12620TIP3    H259276   2.699   1.654  12.934 -1.8609  0.1955  0.8799
12621TIP3   OH259277   0.268   3.193  12.643 -0.0260  0.8725  0.4511
12621TIP3    H159278   0.210   3.266  12.665  0.4234  0.8673  1.7575
12621TIP3    H259279   0.244   3.124  12.705  0.2900  0.2973 -0.0601
12622TIP3   OH259280   6.088   2.408   0.288 -0.2437 -0.5238 -0.7892
12622TIP3    H159281   6.075   2.337   0.226 -1.4489 -0.7533 -0.2992
12622TIP3    H259282   6.011   2.464   0.276 -0.0212 -0.0750 -0.1576
12623TIP3   OH259283   1.600   5.566  16.873  0.0753  0.3175  0.3025
12623TIP3    H159284   1.606   5.610  16.788 -2.1802  3.5144  1.5760
12623TIP3    H259285   1.508   5.541  16.880  0.5707 -1.3868  1.1943
12624TIP3   OH259286   5.464   5.721   3.651 -0.3283 -0.4944 -0.1960
12624TIP3    H159287   5.533   5.678   3.600 -1.1716 -0.2091 -1.6655
12624TIP3    H259288   5.428   5.786   3.590 -1.5979 -0.3537  0.6819
12625TIP3   OH259289   1.042   1.615  13.917 -0.0463 -0.6998  0.4148
12625TIP3    H159290   1.001   1.700  13.931  0.2118 -0.5432  0.2236
12625TIP3    H259291   1.136   1.634  13.912 -0.1070 -0.6900 -1.7857
12626TIP3   OH259292   6.020   3.073   5.078 -0.2782 -0.3715 -0.0047
12626TIP3    H159293   6.025   3.148   5.017  0.7930 -0.4336 -0.0125
12626TIP3    H259294   6.093   3.017   5.052  3.4758  1.8743  4.3052
12627TIP3   OH259295   2.526   1.499  10.620  0.1925 -0.0388 -0.1433
12627TIP3    H159296   2.537   1.449  10.539  0.1170  0.1364 -0.2613
12627TIP3    H259297   2.434   1.487  10.644 -0.9253  3.1094 -2.2182
12628TIP3   OH259298   3.503   6.179   0.214 -0.0897  0.9551 -0.6956
12628TIP3    H159299   3.445   6.230   0.271 -0.6619 -1.6484  1.2581
12628TIP3    H259300   3.564   6.137   0.274 -0.6155 -1.8000 -1.9506
12629TIP3   OH259301   1.542   1.444   3.629 -0.0665 -0.1693  0.6805
12629TIP3    H159302   1.494   1.364   3.607  1.5682 -1.4593  1.6385
12629TIP3    H259303   1.509   1.509   3.567 -2.9407 -0.9857  1.2158
12630TIP3   OH259304   0.066   3.947  14.391  0.1958  0.0447 -0.4765
12630TIP3    H159305   0.129   3.996  14.339 -0.8267  0.6036 -1.2164
12630TIP3    H259306   0.094   3.960  14.481 -0.4542  2.6326 -0.5821
12631TIP3   OH259307   2.641   2.069   4.011 -0.5471  0.0340 -0.1504
12631TIP3    H159308   2.588   2.087   4.089 -0.4239  2.3971 -0.5346
12631TIP3    H259309   2.585   2.095   3.937 -0.4018 -1.5125 -0.8338
12632TIP3   OH259310   0.044   0.338   2.797  0.1332  0.2283 -0.1042
12632TIP3    H159311   0.080   0.424   2.777  2.6763 -0.3344  1.5869
12632TIP3    H259312  -0.025   0.325   2.731  1.5714  2.3373 -2.1891
12633TIP3   OH259313   1.538   4.374   6.787  0.4791  0.0213 -0.0343
12633TIP3    H159314   1.508   4.459   6.820  1.5228  0.5240 -0.3463
12633TIP3    H259315   1.465   4.343   6.733 -0.0320  0.5793  0.3219
12634TIP3   OH259316   4.204   1.124   1.736  0.0299  0.3631 -0.9289
12634TIP3    H159317   4.152   1.045   1.740 -0.8257  0.9690  1.4615
12634TIP3    H259318   4.289   1.095   1.702 -1.0312 -1.0746 -2.4957
12635TIP3   OH259319   5.935   6.405  14.986  0.3359 -0.5372 -0.6235
12635TIP3    H159320   5.858   6.354  14.961  0.9511 -1.1061 -1.3890
12635TIP3    H259321   5.957   6.374  15.074 -1.5435  1.1238  0.5394
12636TIP3   OH259322   2.779   1.519  16.763  0.2614  0.0456  0.1805
12636TIP3    H159323   2.783   1.470  16.681  0.1389  0.1946  0.0839
12636TIP3    H259324   2.822   1.603  16.742  2.5691 -0.8526  0.9596
12637TIP3   OH259325   5.141   6.455   4.225 -0.3408 -0.0271  0.3019
12637TIP3    H159326   5.093   6.389   4.175  1.2214  0.1435 -1.5417
12637TIP3    H259327   5.131   6.535   4.174  0.5198  0.3841  0.7650
12638TIP3   OH259328   0.945   5.158   5.334  0.2397 -0.5410  0.1213
12638TIP3    H159329   0.887   5.104   5.388  3.1594 -2.7841  1.2974
12638TIP3    H259330   0.942   5.117   5.248  0.6012 -1.0932  0.3680
12639TIP3   OH259331   5.986   1.477   5.096 -0.5583 -0.2558 -0.2368
12639TIP3    H159332   5.986   1.569   5.120  0.7197 -0.5582  1.0359
12639TIP3    H259333   5.911   1.468   5.036 -2.1088  1.1277  1.3668
12640TIP3   OH259334   3.026   5.236   4.126  0.0477  0.3406 -0.5053
12640TIP3    H159335   3.052   5.327   4.133 -1.3778  0.8478 -1.3976
12640TIP3    H259336   2.968   5.233   4.050 -2.2503 -0.7170  1.1596
12641TIP3   OH259337   5.321   4.887  14.302 -0.3370 -0.6163 -0.2871
12641TIP3    H159338   5.294   4.822  14.366  0.4143 -1.9166 -1.2448
12641TIP3    H259339   5.417   4.881  14.299 -0.4048 -1.4885 -2.3894
12642TIP3   OH259340   6.612   4.615   1.057  0.1620  0.0609  0.0654
12642TIP3    H159341   6.689   4.614   1.001 -1.6751  0.3442 -2.6502
12642TIP3    H259342   6.553   4.550   1.019 -0.5933 -0.9308  2.6970
12643TIP3   OH259343   5.441   3.881   5.788 -0.4055  0.3581  0.1952
12643TIP3    H159344   5.408   3.956   5.838  1.1528  1.0906  0.1630
12643TIP3    H259345   5.387   3.807   5.817 -1.8073  1.4318  0.4055
12644TIP3   OH259346   3.058   2.242   4.782 -0.0938  0.2662  0.3761
12644TIP3    H159347   3.102   2.180   4.724 -0.4172 -1.0322  1.4754
12644TIP3    H259348   3.086   2.328   4.750  0.7700 -0.4371 -0.8682
12645TIP3   OH259349   5.377   1.891  11.965  0.9246 -0.1067 -0.6955
12645TIP3    H159350   5.408   1.855  12.047  1.3295  0.5487 -0.5548
12645TIP3    H259351   5.435   1.966  11.947 -0.7837  1.4198 -0.2049
12646TIP3   OH259352   4.268   5.040   1.585  0.4283  0.4608  0.5638
12646TIP3    H159353   4.338   4.977   1.603  0.4717 -0.0514 -1.1927
12646TIP3    H259354   4.275   5.105   1.655  0.9794 -0.9824  1.8920
12647TIP3   OH259355   4.120   1.724   1.971  0.3841  0.2255  0.1665
12647TIP3    H159356   4.082   1.643   2.007  2.2920 -1.1820 -0.7907
12647TIP3    H259357   4.136   1.779   2.048 -1.1964 -0.1495  0.8141
12648TIP3   OH259358   1.738   0.013  15.867  0.2274 -0.1253  0.1155
12648TIP3    H159359   1.765  -0.067  15.821 -0.0446 -0.9789  1.3846
12648TIP3    H259360   1.665   0.047  15.816  1.9266  0.7447 -1.8682
12649TIP3   OH259361   2.682   1.515   5.608  0.0124 -0.1152  0.8222
12649TIP3    H159362   2.723   1.435   5.639  0.0936 -0.0438  0.9023
12649TIP3    H259363   2.593   1.490   5.585 -0.3179  0.0147  1.9327
12650TIP3   OH259364   1.307   1.506  15.815 -0.0512 -0.4191 -0.0260
12650TIP3    H159365   1.370   1.535  15.750  1.4156 -3.4454 -0.1490
12650TIP3    H259366   1.357   1.500  15.896 -0.5826 -1.3286  0.2498
12651TIP3   OH259367   5.592   2.669   5.426 -0.2764  0.2376  0.2683
12651TIP3    H159368   5.514   2.675   5.371  0.1556  2.4662 -0.1646
12651TIP3    H259369   5.564   2.702   5.512  0.4091  2.1444 -0.1929
12652TIP3   OH259370   3.602   4.254  12.917 -0.0378 -0.3411  0.3292
12652TIP3    H159371   3.609   4.331  12.973  0.9376 -1.0299  1.1935
12652TIP3    H259372   3.550   4.192  12.969 -1.0324 -0.1914 -0.4609
12653TIP3   OH259373   2.290   5.357   1.317  0.1794  0.0084 -0.0181
12653TIP3    H159374   2.246   5.313   1.390 -0.5407 -2.0691 -1.6007
12653TIP3    H259375   2.325   5.286   1.263 -0.4779  1.3639 -2.3895
12654TIP3   OH259376   3.190   5.318  15.108 -0.3867  0.0897 -0.5107
12654TIP3    H159377   3.185   5.227  15.078  1.5824  0.4284 -2.0397
12654TIP3    H259378   3.109   5.331  15.159  0.2966 -3.1760  1.7364
12655TIP3   OH259379   6.698   4.961  12.509  0.0593 -0.4790 -0.2078
12655TIP3    H159380   6.638   4.893  12.538  1.3049 -1.5151  0.0339
12655TIP3    H259381   6.738   4.925  12.430  1.7144 -0.6358  0.6555
12656TIP3   OH259382   3.622   2.179   3.777  0.3677 -0.2295  0.1583
12656TIP3    H159383   3.568   2.212   3.849 -0.9297  0.3992 -1.0667
12656TIP3    H259384   3.696   2.136   3.821 -0.5597 -0.1712  1.8635
12657TIP3   OH259385   2.557   4.504  12.170 -0.9514  0.3609 -0.3780
12657TIP3    H159386   2.590   4.447  12.101  2.2953  1.1534  0.3399
12657TIP3    H259387   2.576   4.457  12.251 -0.3072  1.4511  0.1259
12658TIP3   OH259388   4.480   1.937  12.493  0.2961 -0.6031  0.2127
12658TIP3    H159389   4.562   1.891  12.474  0.4650 -0.0077 -0.5683
12658TIP3    H259390   4.485   2.016  12.439 -1.0031 -0.7847 -0.1994
12659TIP3   OH259391   6.678   3.004   1.388 -0.1150  0.1643 -0.2986
12659TIP3    H159392   6.685   3.076   1.452 -0.1438 -0.2163  0.1379
12659TIP3    H259393   6.623   2.939   1.431 -0.7800  0.2287 -1.0280
12660TIP3   OH259394   3.810   4.229   1.849  0.5493 -0.4447 -0.1109
12660TIP3    H159395   3.772   4.148   1.815  0.4006 -0.5472  0.2940
12660TIP3    H259396   3.843   4.205   1.936 -0.8647  0.2907  0.6596
12661TIP3   OH259397   2.754   0.992  16.437 -0.1685  0.0287  0.0531
12661TIP3    H159398   2.696   0.982  16.512  0.0395  0.2643  0.2491
12661TIP3    H259399   2.724   0.927  16.374 -1.2313  0.7433 -0.2142
12662TIP3   OH259400   6.106   4.126   4.119  0.3333  0.5688  0.2874
12662TIP3    H159401   6.120   4.041   4.161 -0.3289 -0.7315 -1.9520
12662TIP3    H259402   6.015   4.124   4.091 -0.1451  2.6915  1.4912
12663TIP3   OH259403   1.109   1.682  10.566 -0.7903  0.4068  0.0955
12663TIP3    H159404   1.149   1.609  10.517 -0.6798  0.0138  0.7645
12663TIP3    H259405   1.035   1.708  10.512 -0.6345  0.0153 -0.3196
12664TIP3   OH259406   0.978   0.673   3.308  0.1613  0.2502  0.3172
12664TIP3    H159407   0.918   0.677   3.383  2.0360 -0.6551  1.9621
12664TIP3    H259408   0.941   0.605   3.252 -0.6499  0.0748  1.0377
12665TIP3   OH259409   0.225   1.390   2.785  0.0637  0.0462  0.4359
12665TIP3    H159410   0.191   1.326   2.723 -1.2973  1.9003 -0.8156
12665TIP3    H259411   0.317   1.365   2.797 -0.6585 -2.7906  0.9255
12666TIP3   OH259412   3.766   3.278  14.321 -0.4789 -0.3262 -0.3197
12666TIP3    H159413   3.746   3.223  14.397  1.9078 -0.5563  0.2288
12666TIP3    H259414   3.694   3.261  14.260 -1.1848 -2.0296  0.8899
12667TIP3   OH259415   5.709   0.874  16.765 -0.0306  0.8488  0.0079
12667TIP3    H159416   5.802   0.879  16.744 -0.3247  0.8669 -1.3843
12667TIP3    H259417   5.700   0.920  16.848  1.1536  1.1231 -0.0041
12668TIP3   OH259418   3.809   0.569  14.934 -0.4376  0.1399  0.0078
12668TIP3    H159419   3.900   0.587  14.955  0.9149 -2.5653 -2.7591
12668TIP3    H259420   3.793   0.481  14.968 -1.5185 -0.0249 -0.8544
12669TIP3   OH259421   2.555   0.786  12.714  0.2073 -0.4800 -0.5092
12669TIP3    H159422   2.583   0.827  12.632 -3.3171 -0.6135 -1.9655
12669TIP3    H259423   2.501   0.712  12.686  0.0739 -1.4105  1.9977
12670TIP3   OH259424   4.498   6.632   0.448  0.1236  0.1636  0.2105
12670TIP3    H159425   4.408   6.658   0.427 -0.2977 -1.5659 -0.3077
12670TIP3    H259426   4.488   6.562   0.512  1.1875  1.0508  1.3939
12671TIP3   OH259427   4.362   3.376  12.468  0.1476  0.1665 -0.2466
12671TIP3    H159428   4.345   3.284  12.485  0.8608 -0.1956 -1.3473
12671TIP3    H259429   4.343   3.420  12.551 -1.2957 -0.8046 -0.0198
12672TIP3   OH259430   0.822   4.500   3.689  0.1543 -0.4433  0.1142
12672TIP3    H159431   0.849   4.554   3.615  0.3886  0.3159  0.7387
12672TIP3    H259432   0.899   4.495   3.745 -0.0785 -0.8493  0.4078
12673TIP3   OH259433   3.060   0.026  10.648 -0.1956  0.4963 -0.3797
12673TIP3    H159434   3.062  -0.067  10.628  2.7383 -0.0748  1.9702
12673TIP3    H259435   2.981   0.058  10.605 -1.9141 -3.2638 -0.3812
12674TIP3   OH259436   3.867   6.032  14.603  0.4157 -0.2755 -0.2019
12674TIP3    H159437   3.929   5.962  14.621  1.6385 -0.2376 -3.5814
12674TIP3    H259438   3.917   6.113  14.619 -0.7315 -0.0292  2.8493
12675TIP3   OH259439   5.518   2.726  11.309  0.0891  0.0594 -0.4570
12675TIP3    H159440   5.569   2.785  11.254 -0.2730  1.0238  0.2106
12675TIP3    H259441   5.558   2.733  11.396 -1.2813  1.0018  0.1374
12676TIP3   OH259442   5.356   1.346   1.086 -0.2254  0.5758 -0.6575
12676TIP3    H159443   5.321   1.265   1.050  0.3958  1.0887 -2.4961
12676TIP3    H259444   5.329   1.414   1.025  0.8263  1.4886 -0.1446
12677TIP3   OH259445   2.640   1.247   1.560 -0.8777  0.0815 -0.1829
12677TIP3    H159446   2.665   1.273   1.471  0.8419 -1.0648 -0.0804
12677TIP3    H259447   2.711   1.280   1.615  1.5297 -4.5320 -0.0345
12678TIP3   OH259448   6.173   0.613   4.067 -0.3543  0.1894 -0.4971
12678TIP3    H159449   6.229   0.644   3.996  1.5051 -0.0521  0.7843
12678TIP3    H259450   6.136   0.693   4.105 -1.2119  0.3285 -1.5930
12679TIP3   OH259451   0.213   2.576  11.603 -0.2998  0.0834  0.6024
12679TIP3    H159452   0.155   2.596  11.676 -1.1181 -2.4063  0.7398
12679TIP3    H259453   0.259   2.497  11.630  0.4749 -0.0515 -0.9783
12680TIP3   OH259454   6.355   2.718   2.082  0.9259 -0.4535 -0.1822
12680TIP3    H159455   6.345   2.813   2.077 -0.2108 -0.6384 -2.7654
12680TIP3    H259456   6.386   2.702   2.172 -1.9487  2.0474  1.4517
12681TIP3   OH259457   2.225   3.542   6.228 -0.2829 -0.4831 -0.0902
12681TIP3    H159458   2.313   3.571   6.252  0.2190 -0.7360 -1.5155
12681TIP3    H259459   2.239   3.461   6.178 -1.0782  0.8450 -2.6691
12682TIP3   OH259460   4.805   3.498   3.013  0.4967  0.0623  0.3455
12682TIP3    H159461   4.895   3.517   2.988  0.0942  0.8336 -0.5949
12682TIP3    H259462   4.782   3.567   3.076 -0.0257  1.0169 -0.8537
12683TIP3   OH259463   2.053   0.829   0.311 -0.3897  0.3138 -0.4045
12683TIP3    H159464   1.991   0.760   0.334  0.5408 -0.3915  0.0687
12683TIP3    H259465   2.047   0.836   0.216  0.2001 -1.1300 -0.5756
12684TIP3   OH259466   2.113   2.888   1.849  0.0445 -0.7876  0.2991
12684TIP3    H159467   2.097   2.831   1.924 -0.8235 -1.4502 -0.3680
12684TIP3    H259468   2.142   2.971   1.887  0.5360 -1.4115  1.3201
12685TIP3   OH259469   6.170   1.667  17.104 -0.0622 -0.7104  0.3981
12685TIP3    H159470   6.162   1.731  17.175  0.6797 -1.1391  0.8854
12685TIP3    H259471   6.099   1.604  17.120 -0.4566 -0.3179  0.2276
12686TIP3   OH259472   5.370   4.754  11.210 -0.4051 -0.4196 -0.0367
12686TIP3    H159473   5.404   4.804  11.135 -1.6943  0.0722 -0.3209
12686TIP3    H259474   5.340   4.671  11.171 -3.8176  0.9482 -0.6993
12687TIP3   OH259475   0.368   0.219  12.200 -0.5632 -0.4004  0.0416
12687TIP3    H159476   0.415   0.225  12.283 -0.4849 -1.4527  0.0866
12687TIP3    H259477   0.289   0.271  12.213 -0.2092  0.0232  0.5316
12688TIP3   OH259478   6.345   1.957   1.177  0.0467  0.3624  0.2840
12688TIP3    H159479   6.277   1.922   1.234 -0.8954  1.6075 -0.0119
12688TIP3    H259480   6.401   1.882   1.156  1.2233  0.0548  3.8455
12689TIP3   OH259481   4.060   4.348   3.453 -0.9448 -0.5862 -0.5094
12689TIP3    H159482   4.106   4.431   3.467  0.9276 -1.5609 -0.5645
12689TIP3    H259483   3.992   4.348   3.520  0.0024  0.3214  0.5067
12690TIP3   OH259484   3.153   5.518  14.796  0.3046 -0.5349  0.0467
12690TIP3    H159485   3.241   5.487  14.818  0.6216 -0.8950 -1.6374
12690TIP3    H259486   3.134   5.478  14.712 -0.3291  1.7855 -0.9911
12691TIP3   OH259487   1.439   4.162  10.936  0.4605 -0.0256  0.3107
12691TIP3    H159488   1.469   4.177  10.846 -0.0690  3.1627  0.5417
12691TIP3    H259489   1.347   4.137  10.927  0.6017 -0.4144 -0.0541
12692TIP3   OH259490   0.017   1.360  11.309 -0.1419  0.0832  0.7000
12692TIP3    H159491   0.028   1.274  11.269 -2.1281 -0.5728  1.4527
12692TIP3    H259492  -0.033   1.411  11.245  0.4366  0.4681  0.5447
12693TIP3   OH259493   3.907   3.643  14.173 -0.0095 -0.2375 -0.0342
12693TIP3    H159494   3.965   3.591  14.229  1.0168 -0.1305 -0.9539
12693TIP3    H259495   3.925   3.612  14.085  0.8299  1.8242 -0.6531
12694TIP3   OH259496   3.639   2.420  14.144  0.3522 -0.2750 -0.0745
12694TIP3    H159497   3.557   2.416  14.193 -0.0797 -1.4208 -0.8547
12694TIP3    H259498   3.708   2.420  14.212 -0.2425 -1.2107  0.5440
12695TIP3   OH259499   6.336   4.166  16.657 -0.2057 -0.1255 -0.2148
12695TIP3    H159500   6.355   4.081  16.619  0.0591  0.9713 -2.7085
12695TIP3    H259501   6.395   4.227  16.612 -1.6381  1.6377  0.1572
12696TIP3   OH259502   3.802   2.028  12.735  0.2227  0.8226 -0.3391
12696TIP3    H159503   3.782   2.027  12.642  2.5651  1.6498 -0.9316
12696TIP3    H259504   3.778   1.941  12.766 -0.1391  0.3695 -1.8190
12697TIP3   OH259505   6.559   5.153  12.204  0.5576 -0.1135 -0.3213
12697TIP3    H159506   6.623   5.219  12.180  0.5162 -0.4826 -1.5179
12697TIP3    H259507   6.604   5.070  12.190  0.8753 -0.3882  1.8948
12698TIP3   OH259508   5.184   2.666  16.466 -1.0020 -0.1406  0.3705
12698TIP3    H159509   5.237   2.629  16.537 -1.1430 -0.7426  0.1760
12698TIP3    H259510   5.246   2.715  16.413 -1.0096  0.8755  1.2642
12699TIP3   OH259511   5.865   1.254  11.243  0.3546  0.3720 -0.2043
12699TIP3    H159512   5.942   1.251  11.300  2.0529  0.8244 -2.3478
12699TIP3    H259513   5.889   1.201  11.167 -1.6125  0.2501 -0.7997
12700TIP3   OH259514   3.939   5.232  11.926  0.0864  0.4377  0.1846
12700TIP3    H159515   3.850   5.264  11.909 -0.1599  0.0955  0.7696
12700TIP3    H259516   3.969   5.197  11.842 -0.6377 -0.1630  0.1622
12701TIP3   OH259517   3.906   1.141  13.166 -0.0446  0.0749  0.0540
12701TIP3    H159518   3.850   1.140  13.088  0.7228  0.0260 -0.5102
12701TIP3    H259519   3.898   1.230  13.200 -0.3217  0.1197 -0.1249
12702TIP3   OH259520   5.614   2.417  14.834 -0.4588  0.0137  0.7502
12702TIP3    H159521   5.697   2.414  14.882 -0.1641 -0.3306  0.2356
12702TIP3    H259522   5.552   2.454  14.896  0.1304  0.4932  1.0717
12703TIP3   OH259523   3.184   1.711   3.876 -1.1891 -0.3372 -0.8368
12703TIP3    H159524   3.123   1.647   3.912 -0.6627  0.9063  2.6845
12703TIP3    H259525   3.250   1.723   3.945 -0.4086  2.7808 -1.9442
12704TIP3   OH259526   3.777   6.441   3.496 -0.6090 -0.2851  0.3352
12704TIP3    H159527   3.746   6.350   3.500 -2.1373  0.2425  1.1693
12704TIP3    H259528   3.860   6.440   3.544 -0.5854 -1.2426  0.3070
12705TIP3   OH259529   3.588   4.402  12.555 -0.6213  0.1729 -0.1606
12705TIP3    H159530   3.624   4.377  12.471 -1.9259  0.2113 -0.7623
12705TIP3    H259531   3.508   4.450  12.533 -0.5466  0.8956  1.0769
12706TIP3   OH259532   3.680   0.569  13.007  0.0154  0.1650  0.3861
12706TIP3    H159533   3.765   0.526  12.997  0.1450  0.6012 -0.4506
12706TIP3    H259534   3.697   0.643  13.065 -0.1807 -0.7959  1.7285
12707TIP3   OH259535   5.011   0.918  15.908  0.4658 -0.2485 -0.9169
12707TIP3    H159536   5.106   0.913  15.897  0.2507 -1.6771 -2.6596
12707TIP3    H259537   4.982   0.981  15.842  0.1547 -0.2942 -0.8257
12708TIP3   OH259538   5.892   4.716  14.992 -0.5395 -0.2227 -0.0708
12708TIP3    H159539   5.932   4.704  15.078  0.4440 -0.4127 -0.5451
12708TIP3    H259540   5.947   4.780  14.947  0.2877 -1.7687 -1.3714
12709TIP3   OH259541   2.464   5.772  17.107  0.6177  0.3467 -1.0334
12709TIP3    H159542   2.519   5.697  17.132 -1.9062 -1.2763  0.0522
12709TIP3    H259543   2.525   5.835  17.070  3.1820 -1.3443  0.0346
12710TIP3   OH259544   3.108   0.822   2.999  0.2440  0.7495  0.3461
12710TIP3    H159545   3.154   0.856   3.076 -0.5148 -0.8673  1.5689
12710TIP3    H259546   3.175   0.774   2.950 -0.1643 -2.6147  2.7247
12711TIP3   OH259547   3.822   3.109  12.174 -0.2111 -0.0915  0.1415
12711TIP3    H159548   3.791   3.049  12.106 -0.4778 -3.3956  2.8848
12711TIP3    H259549   3.916   3.094  12.178 -0.3548 -0.8455  1.2144
12712TIP3   OH259550   4.170   4.955   1.913 -0.6327  0.0947 -0.3655
12712TIP3    H159551   4.145   5.018   1.844 -0.4333  1.7771  1.0311
12712TIP3    H259552   4.265   4.963   1.919 -0.3514 -1.8436 -1.5112
12713TIP3   OH259553   2.041   3.368   1.965  0.2689 -0.1388 -0.4081
12713TIP3    H159554   2.117   3.337   2.015 -0.7656 -2.2459 -0.0493
12713TIP3    H259555   2.006   3.290   1.923 -2.4295  0.5236  0.4241
12714TIP3   OH259556   6.350   4.388  16.833  0.8208 -0.2186 -0.1438
12714TIP3    H159557   6.422   4.426  16.883  0.0851 -1.2669  1.8264
12714TIP3    H259558   6.382   4.301  16.809  0.0431 -0.9235  1.2618
12715TIP3   OH259559   2.250   3.919  14.674  0.6900  0.3134 -0.8630
12715TIP3    H159560   2.315   3.855  14.702 -0.8620 -1.0550 -0.3082
12715TIP3    H259561   2.185   3.921  14.744 -0.1175  1.3307 -1.6027
12716TIP3   OH259562   0.980   5.236   1.945  0.0782  0.6196 -0.0276
12716TIP3    H159563   0.963   5.154   1.991 -1.0740  1.7925  1.7669
12716TIP3    H259564   0.971   5.213   1.852 -1.8295 -0.9795  0.4752
12717TIP3   OH259565   2.104   0.494  13.848 -0.0336  0.2097  0.0235
12717TIP3    H159566   2.089   0.516  13.940  0.6232  2.3975 -0.3232
12717TIP3    H259567   2.077   0.573  13.800 -0.4691 -0.9206 -1.6839
12718TIP3   OH259568   4.247   4.087   5.968 -0.4915  0.2812 -0.0555
12718TIP3    H159569   4.295   4.110   6.048  0.7884 -1.0584 -0.3878
12718TIP3    H259570   4.155   4.099   5.990 -0.0682  2.0099  0.9252
12719TIP3   OH259571   1.547   0.773  15.225 -0.0598  0.1731  0.2993
12719TIP3    H159572   1.508   0.690  15.198 -3.3516  0.8785  2.3234
12719TIP3    H259573   1.597   0.751  15.303  0.1396 -0.0914  0.1006
12720TIP3   OH259574   0.133   1.596  14.551  0.2253 -0.0069  0.1223
12720TIP3    H159575   0.037   1.590  14.552  0.0866  1.6972  0.6341
12720TIP3    H259576   0.158   1.598  14.643  0.6798  0.2917 -0.0060
12721TIP3   OH259577   4.303   2.673  11.804 -0.4262  0.0225  0.4868
12721TIP3    H159578   4.356   2.596  11.781 -0.7715  0.0843 -0.5634
12721TIP3    H259579   4.318   2.685  11.898  0.3464 -0.7784  0.4798
12722TIP3   OH259580   6.468   1.949   5.331  0.2327 -0.3928 -0.5422
12722TIP3    H159581   6.401   1.922   5.268  1.7762  0.0680 -2.5092
12722TIP3    H259582   6.549   1.908   5.299  1.1220  0.0094  1.0647
12723TIP3   OH259583   4.173   4.748   2.358  0.6236  0.6101 -0.5777
12723TIP3    H159584   4.193   4.736   2.265 -0.9351  0.9442 -0.9814
12723TIP3    H259585   4.177   4.843   2.371  1.2097  0.5418 -0.1921
12724TIP3   OH259586   2.538   2.413   3.887  0.4392 -0.4384 -0.3677
12724TIP3    H159587   2.552   2.424   3.981  0.2692  0.7527 -0.4635
12724TIP3    H259588   2.447   2.383   3.880  0.6200 -1.0548 -0.1321
12725TIP3   OH259589   0.158   5.386  11.647  0.3514  0.2012  0.0161
12725TIP3    H159590   0.253   5.384  11.641  0.3171  0.0130 -0.6189
12725TIP3    H259591   0.131   5.453  11.584  0.0581  0.1411  0.0736
12726TIP3   OH259592   0.376   6.081   2.682 -0.0400  0.1724 -0.2922
12726TIP3    H159593   0.458   6.043   2.651  0.7127  0.4855  1.2210
12726TIP3    H259594   0.402   6.162   2.726 -1.1884  0.3697  0.0567
12727TIP3   OH259595   1.697   0.034   1.176 -0.2866 -0.2184 -0.2479
12727TIP3    H159596   1.782   0.018   1.217  2.0590  0.1135 -4.3718
12727TIP3    H259597   1.648  -0.047   1.189  1.2316 -0.9985  0.9788
12728TIP3   OH259598   5.571   6.069   2.360 -0.0563  0.0619 -0.2804
12728TIP3    H159599   5.648   6.041   2.310 -0.4405 -0.9680 -0.3193
12728TIP3    H259600   5.576   6.165   2.360  0.3049  0.0648 -1.7390
12729TIP3   OH259601   1.894   3.363   1.581  0.0410  0.6180  0.3039
12729TIP3    H159602   1.902   3.453   1.613 -0.3039  0.5645  0.5564
12729TIP3    H259603   1.890   3.310   1.661 -1.4457  0.5382  0.2096
12730TIP3   OH259604   1.520   5.647  13.347 -0.0108 -0.0316 -0.3033
12730TIP3    H159605   1.433   5.633  13.386  0.7186 -0.1218  1.3837
12730TIP3    H259606   1.515   5.734  13.308 -0.9743 -0.1887 -0.5619
12731TIP3   OH259607   5.815   1.317  14.176 -0.0998  0.4388  0.2372
12731TIP3    H159608   5.848   1.353  14.093  1.6614  0.0195  0.7058
12731TIP3    H259609   5.722   1.302  14.160 -0.1846  2.0701 -1.0541
12732TIP3   OH259610   5.193   0.040   2.819  0.6921  0.0827  0.1901
12732TIP3    H159611   5.118  -0.002   2.778  0.2444  0.5744  0.4927
12732TIP3    H259612   5.189   0.131   2.789  2.2917 -0.3155 -1.3650
12733TIP3   OH259613   0.014   3.792   5.601  0.5742 -0.5112 -0.3004
12733TIP3    H159614   0.104   3.825   5.601 -0.0705  1.3390 -0.9807
12733TIP3    H259615  -0.021   3.815   5.515 -1.0895  0.3379  0.5622
12734TIP3   OH259616   4.099   4.403  13.234 -0.0869 -0.1282 -0.0804
12734TIP3    H159617   4.122   4.415  13.327 -1.1425  0.3952  0.1303
12734TIP3    H259618   4.139   4.478  13.190 -0.0902 -0.0499  0.0486
12735TIP3   OH259619   1.469   0.205   5.728 -0.0956  0.0374 -0.1279
12735TIP3    H159620   1.532   0.269   5.762  0.3877 -0.2113 -0.5476
12735TIP3    H259621   1.480   0.128   5.784 -1.5139  0.7028  1.1484
12736TIP3   OH259622   4.657   1.567  16.751  0.1900 -0.8374 -0.4274
12736TIP3    H159623   4.728   1.623  16.719  0.3942 -1.0603 -0.3722
12736TIP3    H259624   4.577   1.614  16.728  0.3593  0.5018  1.4737
12737TIP3   OH259625   0.634   0.744  12.109  0.7392  0.3701  0.3689
12737TIP3    H159626   0.666   0.813  12.050 -0.8247 -0.3427 -1.3979
12737TIP3    H259627   0.658   0.663  12.065 -1.0364 -0.1757  0.3342
12738TIP3   OH259628   0.744   0.160   2.453 -0.2157  0.2941  0.5104
12738TIP3    H159629   0.725   0.203   2.536 -1.5207 -1.9427  1.4655
12738TIP3    H259630   0.832   0.122   2.465 -0.8121 -0.8986  1.3191
12739TIP3   OH259631   3.586   5.518  13.540  0.0653  0.3334 -0.0265
12739TIP3    H159632   3.592   5.609  13.570  0.2731  0.3611 -0.1464
12739TIP3    H259633   3.556   5.469  13.617  0.5079  0.4156  0.2052
12740TIP3   OH259634   6.528   3.647  16.685 -0.7045 -0.1495  0.0425
12740TIP3    H159635   6.599   3.613  16.631 -2.5869 -1.7360 -1.5261
12740TIP3    H259636   6.564   3.729  16.722  1.5455 -0.3610 -1.4905
12741TIP3   OH259637   4.256   2.464   1.601 -0.0976  0.1343  0.2501
12741TIP3    H159638   4.163   2.456   1.622 -0.0005  0.1967  0.6953
12741TIP3    H259639   4.292   2.376   1.614  0.6620  0.8217  3.7030
12742TIP3   OH259640   0.075   1.573   4.636  0.2454 -0.1056 -0.0698
12742TIP3    H159641   0.131   1.575   4.558 -0.5619 -1.9425 -0.7560
12742TIP3    H259642  -0.012   1.595   4.603  0.1818  0.8381  0.6613
12743TIP3   OH259643   4.558   2.841  15.627 -0.2047 -0.1429  0.1187
12743TIP3    H159644   4.554   2.747  15.609 -0.4374 -0.0100 -0.5619
12743TIP3    H259645   4.651   2.863  15.617 -0.0827 -0.3691  0.6857
12744TIP3   OH259646   4.420   6.118   2.855 -0.2536 -0.2063  0.6605
12744TIP3    H159647   4.362   6.191   2.837 -0.8854 -1.1863 -1.6210
12744TIP3    H259648   4.488   6.122   2.787 -1.5657 -2.9289 -0.9998
12745TIP3   OH259649   4.414   1.974   1.182  0.1162 -0.4896 -0.1578
12745TIP3    H159650   4.373   1.960   1.268 -2.7786 -0.4953 -1.4238
12745TIP3    H259651   4.413   2.069   1.170  1.1558 -0.4382  0.0604
12746TIP3   OH259652   1.176   4.897   5.056 -0.7814 -0.1859  0.3206
12746TIP3    H159653   1.127   4.815   5.043 -0.6997 -0.3679  1.1453
12746TIP3    H259654   1.248   4.873   5.114 -0.0488  0.2162 -0.4171
12747TIP3   OH259655   0.645   1.077  11.222 -0.2788  0.2390 -0.0041
12747TIP3    H159656   0.707   1.124  11.166 -0.3419 -1.0408 -1.1867
12747TIP3    H259657   0.561   1.082  11.175 -0.3521 -0.7590 -0.0119
12748TIP3   OH259658   2.506   6.425  13.109  0.3278 -0.2876  0.3423
12748TIP3    H159659   2.551   6.414  13.193  1.8613  1.4911 -0.1887
12748TIP3    H259660   2.535   6.509  13.076 -1.7140 -0.0729 -1.1371
12749TIP3   OH259661   3.101   3.951   0.358  0.4668 -0.7291 -0.4059
12749TIP3    H159662   3.035   3.981   0.296  1.3625  0.5981 -0.7461
12749TIP3    H259663   3.165   3.904   0.305  0.0860 -1.5633 -0.1480
12750TIP3   OH259664   6.689   1.488   1.042  0.0197 -0.1178  0.1038
12750TIP3    H159665   6.702   1.408   0.991  3.1365  0.3159 -0.0207
12750TIP3    H259666   6.690   1.458   1.133 -0.2864 -0.3581  0.0313
12751TIP3   OH259667   1.609   1.768   5.064  0.3739 -0.2361 -0.4290
12751TIP3    H159668   1.598   1.795   4.973 -0.4096 -0.2777 -0.3592
12751TIP3    H259669   1.519   1.763   5.098  0.6890  0.4079  0.5297
12752TIP3   OH259670   3.428   2.778   4.360 -0.3623 -0.2368  0.3934
12752TIP3    H159671   3.468   2.826   4.288  0.9466 -0.2657  1.0763
12752TIP3    H259672   3.413   2.844   4.428 -1.5939 -0.2069  0.1237
12753TIP3   OH259673   5.122   5.916  16.607  0.2119  0.3304 -0.2616
12753TIP3    H159674   5.188   5.861  16.563  1.1138  0.2043  1.1894
12753TIP3    H259675   5.132   5.895  16.700 -0.6502  1.6680  0.1507
12754TIP3   OH259676   3.649   5.163   0.942  0.2716  0.1069  0.8281
12754TIP3    H159677   3.715   5.094   0.956  0.6977  0.4067  0.3391
12754TIP3    H259678   3.681   5.212   0.866  1.0766  2.1377  2.3876
12755TIP3   OH259679   6.749   2.648   5.741  0.3546 -0.6514  0.3115
12755TIP3    H159680   6.686   2.713   5.770  1.6018 -0.4854  3.0452
12755TIP3    H259681   6.810   2.696   5.686 -1.1604 -0.5599 -1.3653
12756TIP3   OH259682   3.813   2.791   1.613 -0.0894 -0.0043 -0.6061
12756TIP3    H159683   3.732   2.821   1.654  2.2343  1.7518  3.2343
12756TIP3    H259684   3.827   2.703   1.649 -0.3483 -0.3659 -1.3817
12757TIP3   OH259685   6.507   6.034  15.703  0.2318 -0.3130  0.0785
12757TIP3    H159686   6.457   5.965  15.658  0.3289 -2.2304  2.6661
12757TIP3    H259687   6.442   6.078  15.758  0.7550 -0.5156  0.8684
12758TIP3   OH259688   5.482   3.040  14.986  0.1467 -0.5966 -0.5173
12758TIP3    H159689   5.548   2.981  15.023 -0.7607 -0.6808  1.0665
12758TIP3    H259690   5.483   3.116  15.044 -1.3975 -0.7710 -0.2161
12759TIP3   OH259691   3.851   5.645  11.378 -0.2127 -0.3258 -0.4286
12759TIP3    H159692   3.774   5.690  11.342 -1.4328 -2.5641 -0.8393
12759TIP3    H259693   3.914   5.645  11.306 -0.6009 -0.1724 -0.7767
12760TIP3   OH259694   2.291   1.971  15.285  0.5098 -0.0379  0.7253
12760TIP3    H159695   2.235   1.928  15.351 -2.4354  1.5762 -0.5123
12760TIP3    H259696   2.304   1.905  15.218  0.0824 -0.4525  1.0437
12761TIP3   OH259697   2.142   2.093  13.535 -0.1350  0.1573 -0.0346
12761TIP3    H159698   2.049   2.106  13.515 -0.1463 -1.4943 -1.2087
12761TIP3    H259699   2.174   2.181  13.554 -1.8793  0.7943  0.2013
12762TIP3   OH259700   6.167   4.566   1.419  0.4258  0.0783  0.1187
12762TIP3    H159701   6.249   4.518   1.404  0.4340  0.0927  0.1174
12762TIP3    H259702   6.174   4.597   1.509  0.4161  0.0682  0.1230
12763TIP3   OH259703   2.283   5.742   2.285  0.5625  0.2452 -0.6050
12763TIP3    H159704   2.335   5.769   2.210 -0.7529  1.0692 -1.2475
12763TIP3    H259705   2.235   5.664   2.256  1.7072 -0.7687  0.1207
12764TIP3   OH259706   2.666   2.202  15.974 -0.1545 -0.2676  0.0363
12764TIP3    H159707   2.756   2.191  16.005  0.2444  0.6965 -0.7213
12764TIP3    H259708   2.630   2.271  16.029 -0.3031 -0.3747  0.0743
12765TIP3   OH259709   0.082   0.043  15.589 -0.0353  0.0700  0.4407
12765TIP3    H159710   0.064   0.121  15.535  0.7250 -0.6213 -0.8717
12765TIP3    H259711   0.171   0.055  15.619  0.9566 -1.3096 -1.6922
12766TIP3   OH259712   3.280   2.272   0.340 -0.1998 -0.2445  0.2111
12766TIP3    H159713   3.298   2.287   0.248 -1.7924  0.2338 -0.0619
12766TIP3    H259714   3.185   2.260   0.344 -0.1220 -0.5703  1.7490
12767TIP3   OH259715   6.235   1.078   4.587 -0.4808 -0.0570 -0.4362
12767TIP3    H159716   6.165   1.136   4.618  1.1903  0.0109  3.8400
12767TIP3    H259717   6.303   1.138   4.556 -0.6139  0.0533 -0.5181
12768TIP3   OH259718   6.081   4.651   4.373  0.4132 -0.0835 -0.2123
12768TIP3    H159719   6.048   4.700   4.448 -0.7885 -0.0160 -0.7576
12768TIP3    H259720   6.083   4.560   4.402  2.0852  0.1749  0.6083
12769TIP3   OH259721   5.956   5.506  11.251 -0.1439  0.0724  0.1041
12769TIP3    H159722   6.021   5.479  11.316  0.0002 -0.6489 -0.3228
12769TIP3    H259723   5.982   5.460  11.171  0.3573  1.8401 -0.7924
12770TIP3   OH259724   0.505   2.292   4.083 -0.2507 -0.4246 -0.7134
12770TIP3    H159725   0.423   2.313   4.039 -0.2818  0.1459 -0.3899
12770TIP3    H259726   0.515   2.360   4.149  0.1528 -0.8708 -0.3079
12771TIP3   OH259727   6.403   0.942   0.176  0.1499 -0.2365 -0.3525
12771TIP3    H159728   6.432   1.030   0.198  0.1410 -0.5245  0.8851
12771TIP3    H259729   6.460   0.915   0.104 -0.1390  0.9276 -1.0408
12772TIP3   OH259730   2.716   1.393  16.086  1.0077  0.2129  0.2965
12772TIP3    H159731   2.753   1.343  16.012  0.1193  0.7877 -0.5566
12772TIP3    H259732   2.792   1.433  16.127  1.4664  0.4450 -0.7363
12773TIP3   OH259733   2.271   1.881  13.440  0.2159  0.4322 -0.3823
12773TIP3    H159734   2.248   1.801  13.487  2.0989  0.5552  0.8375
12773TIP3    H259735   2.238   1.952  13.495 -0.5049  0.5579 -0.9438
12774TIP3   OH259736   6.568   3.823  16.155 -0.0407  0.1613 -0.2682
12774TIP3    H159737   6.528   3.778  16.081  0.9891 -1.2917  0.0003
12774TIP3    H259738   6.595   3.908  16.121 -2.7379  0.9908 -0.6060
12775TIP3   OH259739   3.473   3.335   5.575  0.3835  0.6643  0.4327
12775TIP3    H159740   3.403   3.280   5.612 -0.5290  2.0637  0.8773
12775TIP3    H259741   3.550   3.279   5.574 -0.4090 -0.4762  1.3004
12776TIP3   OH259742   4.941   6.563   4.358 -0.2738  0.4002  0.4243
12776TIP3    H159743   4.956   6.588   4.449  0.9757 -0.9687  0.6333
12776TIP3    H259744   5.019   6.514   4.333 -0.3932  1.1015 -1.5410
12777TIP3   OH259745   2.814   0.808  13.679 -0.1149 -0.7464 -0.6925
12777TIP3    H159746   2.774   0.893  13.660  1.2423 -0.2447 -1.3861
12777TIP3    H259747   2.749   0.764  13.734 -1.5036  0.1396 -1.5384
12778TIP3   OH259748   3.933   3.070   3.747 -0.1446  0.4886  0.1170
12778TIP3    H159749   4.014   3.071   3.798 -0.4491 -1.4665  0.7324
12778TIP3    H259750   3.890   3.153   3.767  0.9340  0.8420  1.0499
12779TIP3   OH259751   4.821   3.362  12.021 -0.1137 -0.4169 -0.0274
12779TIP3    H159752   4.815   3.288  12.082  0.1242 -0.9246 -0.6020
12779TIP3    H259753   4.913   3.362  11.994 -0.3583 -0.5988 -0.8708
12780TIP3   OH259754   5.926   5.456   0.025 -0.1248 -0.4313 -0.1557
12780TIP3    H159755   5.849   5.498   0.064 -2.0671 -1.9565 -2.1043
12780TIP3    H259756   5.900   5.365   0.012  3.1708 -1.8656  1.9583
12781TIP3   OH259757   2.222   4.788  15.481  0.5804 -0.4057  0.2693
12781TIP3    H159758   2.220   4.799  15.576  2.1016  1.5886  0.1373
12781TIP3    H259759   2.157   4.850  15.448 -0.3814 -1.5236  0.0009
12782TIP3   OH259760   2.972   2.426  15.945 -0.8599 -0.7857  0.1083
12782TIP3    H159761   2.896   2.483  15.962 -0.9545 -0.9398  0.2095
12782TIP3    H259762   2.937   2.337  15.954 -0.5376 -0.8553  0.7202
12783TIP3   OH259763   2.537   3.235   3.038  0.0923  0.2931 -0.1049
12783TIP3    H159764   2.575   3.323   3.040 -1.0322  0.8050  2.6131
12783TIP3    H259765   2.603   3.179   3.079  0.8776 -0.2497 -1.9773
12784TIP3   OH259766   4.619   5.755  13.521 -0.0287 -0.4032  0.1286
12784TIP3    H159767   4.661   5.768  13.436  1.5444  1.6368  1.1168
12784TIP3    H259768   4.525   5.758  13.502  0.2341 -1.7805 -1.7200
12785TIP3   OH259769   6.569   1.775   2.870  0.1544  0.0638  0.1782
12785TIP3    H159770   6.653   1.777   2.824  0.3942  0.2309  0.6219
12785TIP3    H259771   6.513   1.721   2.814  0.4057  0.3573 -0.3728
12786TIP3   OH259772   4.845   1.864  12.502 -0.4755 -0.4294  0.6184
12786TIP3    H159773   4.772   1.804  12.518 -0.4236 -0.4661  0.7162
12786TIP3    H259774   4.908   1.812  12.451 -0.8397 -0.1782 -0.1038
12787TIP3   OH259775   3.136   6.364   0.543  0.3150  0.2127 -0.0651
12787TIP3    H159776   3.148   6.284   0.492 -0.3631 -0.2669  0.5077
12787TIP3    H259777   3.121   6.432   0.477  0.3188 -0.2382 -0.5386
12788TIP3   OH259778   4.719   4.100  15.845 -0.1238 -0.1250 -0.2962
12788TIP3    H159779   4.806   4.082  15.809  0.2859  0.2625  0.4863
12788TIP3    H259780   4.659   4.074  15.775  0.6112 -0.5099 -0.8026
12789TIP3   OH259781   4.380   2.677   2.326 -0.0059  0.1056  0.4538
12789TIP3    H159782   4.413   2.664   2.237 -0.2068 -0.2150  0.4287
12789TIP3    H259783   4.325   2.755   2.319  0.1995  0.2453  0.3558
12790TIP3   OH259784   1.272   4.608  15.912 -0.3524 -0.0175 -0.6062
12790TIP3    H159785   1.204   4.627  15.848 -0.1481  2.6173 -0.1768
12790TIP3    H259786   1.354   4.615  15.863 -0.1585  2.6486 -0.0500
12791TIP3   OH259787   2.560   3.338  13.205  0.4604  0.1648  0.3864
12791TIP3    H159788   2.604   3.349  13.289 -0.2995  0.2328  0.7885
12791TIP3    H259789   2.607   3.397  13.146  0.8028  0.3583  0.8397
12792TIP3   OH259790   2.388   1.118  16.509 -0.0498  0.3495  0.1772
12792TIP3    H159791   2.391   1.032  16.467 -0.3454  1.1634 -1.5958
12792TIP3    H259792   2.309   1.159  16.473  0.4351  1.6086  0.5099
12793TIP3   OH259793   1.303   6.640   2.628 -0.1360  0.3455 -0.0879
12793TIP3    H159794   1.225   6.618   2.577 -0.4656  1.2841 -0.0183
12793TIP3    H259795   1.376   6.614   2.572 -0.4868 -0.6006 -0.1313
12794TIP3   OH259796   6.417   5.461  16.425  0.1414 -0.4618  0.1403
12794TIP3    H159797   6.434   5.556  16.427 -1.2340 -0.1750 -0.7612
12794TIP3    H259798   6.482   5.427  16.364 -0.8135  0.2615 -1.3418
12795TIP3   OH259799   6.691   1.211  15.980 -0.2819  0.2412  0.1854
12795TIP3    H159800   6.605   1.182  15.951 -0.8714 -1.0189  2.9129
12795TIP3    H259801   6.738   1.131  16.002  0.4540  1.0481  1.6872
12796TIP3   OH259802   5.339   2.581   5.233 -0.0614  0.7384 -0.0171
12796TIP3    H159803   5.293   2.516   5.286  0.1022  1.3356  0.8789
12796TIP3    H259804   5.337   2.545   5.144  0.6893 -0.8657  0.5723
12797TIP3   OH259805   1.175   2.145  15.063  0.2804 -0.1444 -0.3944
12797TIP3    H159806   1.215   2.208  15.123  1.5849 -0.5249 -0.8315
12797TIP3    H259807   1.118   2.092  15.120 -0.1821  0.8626  0.1148
12798TIP3   OH259808   4.232   6.728   2.964 -0.2149 -0.0896 -0.0782
12798TIP3    H159809   4.184   6.796   2.917  2.5990  0.9626 -1.6606
12798TIP3    H259810   4.254   6.663   2.897  3.5610  1.2596 -0.4052
12799TIP3   OH259811   5.698   3.704  12.435  0.1636  0.3344  0.1506
12799TIP3    H159812   5.666   3.794  12.447 -0.4990  0.1853 -0.4534
12799TIP3    H259813   5.712   3.672  12.524  0.2987  0.9948  0.3759
12800TIP3   OH259814   4.055   6.527  10.775  0.4259  0.0298  0.0204
12800TIP3    H159815   4.016   6.599  10.826 -1.5497 -0.1962 -1.0735
12800TIP3    H259816   3.980   6.479  10.740  1.7052 -0.5930 -2.0437
12801TIP3   OH259817   1.172   1.689   3.939 -0.0002 -0.1112  0.2416
12801TIP3    H159818   1.143   1.638   4.015  0.9760 -2.7580 -1.0192
12801TIP3    H259819   1.123   1.652   3.865  0.8501  0.7311 -0.7801
12802TIP3   OH259820   5.318   0.141   2.136  1.2060  0.2216  0.0731
12802TIP3    H159821   5.396   0.097   2.168  0.7157  0.4916  1.7719
12802TIP3    H259822   5.294   0.094   2.057  1.3067 -1.8978  1.2327
12803TIP3   OH259823   0.624   1.465  15.953 -0.1124 -0.0379 -0.0907
12803TIP3    H159824   0.539   1.511  15.958 -0.5726 -0.9926  1.9915
12803TIP3    H259825   0.643   1.460  15.859 -1.8602  1.0976 -0.5609
12804TIP3   OH259826   5.099   0.573  11.813  0.1893 -0.0494 -0.5272
12804TIP3    H159827   5.004   0.577  11.809  0.2480  0.7931 -1.3770
12804TIP3    H259828   5.123   0.506  11.749  0.0818 -2.1829  1.5057
12805TIP3   OH259829   5.990   2.047  12.094  0.0933  0.3936  0.3210
12805TIP3    H159830   5.900   2.075  12.115  0.5318  1.6639  0.5878
12805TIP3    H259831   6.023   2.010  12.176 -0.0023  0.4202  0.3726
12806TIP3   OH259832   3.361   1.616  14.864  0.1871  0.1075  0.0357
12806TIP3    H159833   3.281   1.576  14.830 -0.4451  1.5520 -0.2603
12806TIP3    H259834   3.402   1.657  14.788  0.0568  1.2482  0.5553
12807TIP3   OH259835   1.439   3.819   4.835  0.1638  0.2345 -0.1395
12807TIP3    H159836   1.424   3.787   4.924  1.0227  0.0481 -0.0582
12807TIP3    H259837   1.496   3.895   4.846 -0.1574  0.5318 -0.4961
12808TIP3   OH259838   1.830   1.043   0.185 -0.1140  0.2875 -0.3845
12808TIP3    H159839   1.838   1.138   0.181 -2.1482  0.6054  1.2852
12808TIP3    H259840   1.894   1.010   0.121  1.4258  2.7012 -0.1798
12809TIP3   OH259841   1.100   1.801   6.225 -0.1141 -0.0049 -0.3056
12809TIP3    H159842   1.058   1.758   6.300 -0.9636  0.0612 -0.7393
12809TIP3    H259843   1.096   1.894   6.245  0.4771 -0.0314 -0.0209
12810TIP3   OH259844   4.954   6.210   1.348 -0.0685 -0.5517  0.2637
12810TIP3    H159845   5.002   6.159   1.412 -0.2697  0.7961  1.5346
12810TIP3    H259846   5.004   6.291   1.339 -1.7620  0.6596  1.2294
12811TIP3   OH259847   4.794   4.532  14.564  0.2918 -0.6574  0.0750
12811TIP3    H159848   4.836   4.598  14.510  2.8930 -4.3533 -2.9987
12811TIP3    H259849   4.840   4.537  14.648  1.9783  0.0675 -0.8415
12812TIP3   OH259850   0.944   3.482  10.772 -0.0175 -0.4061 -0.1735
12812TIP3    H159851   0.881   3.554  10.777  1.1875  0.8538 -1.9824
12812TIP3    H259852   1.025   3.523  10.742  0.8636 -2.4611 -0.7791
12813TIP3   OH259853   2.365   0.764   0.685 -0.3836 -0.0571 -0.1435
12813TIP3    H159854   2.270   0.754   0.687 -0.4752  0.3633 -1.6290
12813TIP3    H259855   2.380   0.852   0.649  0.5754 -0.8194 -1.6866
12814TIP3   OH259856   3.625   0.297   1.035  0.2434 -0.0445  0.1973
12814TIP3    H159857   3.579   0.367   0.989  0.5784 -1.0590 -1.7888
12814TIP3    H259858   3.641   0.333   1.123 -2.2527  1.1955  0.2338
12815TIP3   OH259859   3.113   6.136   2.322  0.2667  0.3513  0.4664
12815TIP3    H159860   3.164   6.208   2.286 -0.4753  0.7888  0.2774
12815TIP3    H259861   3.037   6.177   2.362 -1.0741 -0.4049 -1.1389
12816TIP3   OH259862   1.943   6.120   3.002 -0.4177  0.6174 -0.2746
12816TIP3    H159863   1.916   6.093   3.089  0.8545  0.5970  0.1424
12816TIP3    H259864   1.963   6.038   2.956 -1.1557  0.6236 -0.6198
12817TIP3   OH259865   3.632   0.324   1.491  0.4147 -0.1564 -0.5515
12817TIP3    H159866   3.604   0.262   1.558  1.0256  0.4678  0.3008
12817TIP3    H259867   3.728   0.316   1.490  0.5346  1.0170 -0.1743
12818TIP3   OH259868   6.434   3.149   1.725  0.4608 -0.5699 -0.1558
12818TIP3    H159869   6.481   3.160   1.807  1.0898 -0.7275 -0.4907
12818TIP3    H259870   6.432   3.055   1.710  1.2598 -0.4982 -0.8280
12819TIP3   OH259871   5.246   0.912   5.306 -0.0674 -0.6405 -0.6005
12819TIP3    H159872   5.159   0.937   5.335  0.6693  0.0181  1.1474
12819TIP3    H259873   5.231   0.838   5.247 -1.9037  0.5245 -1.7047
12820TIP3   OH259874   5.839   6.620  11.007 -0.2040  0.1079 -0.1500
12820TIP3    H159875   5.840   6.526  10.986  0.2281  0.1304 -0.2481
12820TIP3    H259876   5.753   6.635  11.045 -0.8055 -0.0381 -1.4183
12821TIP3   OH259877   5.449   0.930  12.018 -0.2479 -0.1253  0.0334
12821TIP3    H159878   5.480   0.936  11.928  0.5281 -1.2941  0.2027
12821TIP3    H259879   5.528   0.924  12.071 -0.6962 -1.7974  0.5856
12822TIP3   OH259880   5.858   1.915  15.378 -0.5336  0.2898 -0.2484
12822TIP3    H159881   5.834   1.994  15.426  0.5620  0.8646 -0.6180
12822TIP3    H259882   5.780   1.860  15.383 -0.3095  0.0994  2.5776
12823TIP3   OH259883   4.441   4.452   4.688 -0.1610 -0.0771 -0.9501
12823TIP3    H159884   4.434   4.386   4.618  0.3778 -0.1548 -0.9399
12823TIP3    H259885   4.535   4.456   4.707 -0.2980 -0.0099 -0.2698
12824TIP3   OH259886   5.869   5.717   3.242  0.1515 -0.2776  0.5272
12824TIP3    H159887   5.859   5.631   3.283  1.3257  0.1958  1.8467
12824TIP3    H259888   5.963   5.731   3.237  0.0106  0.4469 -0.7858
12825TIP3   OH259889   5.953   6.217  12.168  0.2794 -0.2493  0.3847
12825TIP3    H159890   5.879   6.196  12.111 -0.0818  0.7315  0.4799
12825TIP3    H259891   5.990   6.131  12.191  1.2124 -0.6938 -2.2971
12826TIP3   OH259892   3.124   4.275  16.132  0.3134  0.3540 -0.4492
12826TIP3    H159893   3.150   4.340  16.066 -1.0655  0.8782 -0.5256
12826TIP3    H259894   3.189   4.206  16.125  1.1958  1.2245 -1.1404
12827TIP3   OH259895   2.819   2.793  12.701 -0.1003  0.4770 -0.5338
12827TIP3    H159896   2.821   2.882  12.735  0.9852 -0.1164  1.0273
12827TIP3    H259897   2.845   2.738  12.775 -0.8700 -1.1568 -1.4287
12828TIP3   OH259898   2.310   2.069  14.970 -0.4661  0.0770 -0.2147
12828TIP3    H159899   2.254   2.090  15.045 -0.8089 -0.0702 -0.4253
12828TIP3    H259900   2.367   1.999  15.001  0.6521  1.2489  0.4794
12829TIP3   OH259901   6.379   4.196   5.406 -0.0897 -0.4456 -0.1189
12829TIP3    H159902   6.350   4.287   5.410  1.7216  0.2588 -1.6006
12829TIP3    H259903   6.387   4.169   5.497 -0.3482  0.9952  0.3461
12830TIP3   OH259904   2.053   3.802   2.297  0.1772 -0.0754 -0.1351
12830TIP3    H159905   2.068   3.847   2.380  0.9116 -0.1442 -0.2250
12830TIP3    H259906   2.006   3.865   2.243  1.4112  0.7008 -0.3490
12831TIP3   OH259907   3.291   4.232   5.029  0.6704  0.5515  0.6982
12831TIP3    H159908   3.271   4.157   4.972  1.2583 -1.5130  3.0734
12831TIP3    H259909   3.357   4.281   4.981  0.8650 -0.8820 -0.5875
12832TIP3   OH259910   0.686   5.628  12.980  0.3469 -0.2265  0.1763
12832TIP3    H159911   0.692   5.627  13.076  0.8976  0.8692  0.1680
12832TIP3    H259912   0.626   5.556  12.959 -3.3179  2.0880  1.6136
12833TIP3   OH259913   5.942   0.253  12.589 -0.4244  0.1925 -0.0127
12833TIP3    H159914   6.037   0.269  12.587 -0.7910  2.6621 -0.6480
12833TIP3    H259915   5.925   0.203  12.508  0.2601  0.1800 -0.1548
12834TIP3   OH259916   3.047   2.814  15.244  0.6265  0.2941 -0.1864
12834TIP3    H159917   3.003   2.751  15.186 -0.4437  2.8199 -2.3195
12834TIP3    H259918   2.986   2.825  15.317  0.0669  0.0676 -0.6102
12835TIP3   OH259919   4.917   6.203   2.720  0.4246  0.4549 -0.3255
12835TIP3    H159920   4.958   6.186   2.635  1.9355 -0.0150  0.4656
12835TIP3    H259921   4.912   6.117   2.762 -3.1175  0.1284 -1.0571
12836TIP3   OH259922   6.428   4.331   2.476  0.3622 -0.3699 -0.2502
12836TIP3    H159923   6.455   4.416   2.512 -2.0930  1.1634 -1.6979
12836TIP3    H259924   6.332   4.337   2.472  0.2042 -2.7429 -1.5741
12837TIP3   OH259925   1.638   4.380  12.839 -0.6767  0.0614  0.2515
12837TIP3    H159926   1.570   4.327  12.798  0.5572 -0.0828 -1.7538
12837TIP3    H259927   1.720   4.344  12.806  0.3019  1.5681  0.8914
12838TIP3   OH259928   0.912   5.288  13.945 -0.7658 -0.2361  0.0895
12838TIP3    H159929   0.873   5.342  13.877 -0.5691  0.2542  0.3612
12838TIP3    H259930   0.896   5.337  14.026  0.4810  0.0140  0.2008
12839TIP3   OH259931   5.036   1.665   3.044 -0.0814 -0.2240  0.2581
12839TIP3    H159932   4.985   1.629   3.117  1.4167  0.4493  1.6922
12839TIP3    H259933   5.118   1.615   3.045  0.7309  1.0711  0.2650
12840TIP3   OH259934   4.332   2.458   0.164 -0.3173  0.6609 -0.4274
12840TIP3    H159935   4.325   2.518   0.090  1.4217 -2.5039 -3.4688
12840TIP3    H259936   4.275   2.385   0.142  1.7377 -1.2750  0.2884
12841TIP3   OH259937   5.892   4.792   0.410 -0.1601  0.8653 -0.7427
12841TIP3    H159938   5.987   4.779   0.417  0.3370  4.1098  0.2781
12841TIP3    H259939   5.857   4.752   0.490  0.1061 -1.3135 -1.6235
12842TIP3   OH259940   0.965   2.752  10.404  0.6739 -0.1826  0.1779
12842TIP3    H159941   0.912   2.703  10.341 -0.8153  1.2558  0.2603
12842TIP3    H259942   0.961   2.699  10.484 -0.9817  0.0618  0.2885
12843TIP3   OH259943   5.874   1.132  15.290 -0.3701  0.5712  0.5582
12843TIP3    H159944   5.805   1.177  15.341 -1.7113 -0.7897  0.0205
12843TIP3    H259945   5.882   1.046  15.332 -0.7819 -0.1952 -0.8725
12844TIP3   OH259946   0.196   4.917   6.486  0.0173 -0.4126  0.8292
12844TIP3    H159947   0.133   4.876   6.545 -0.8530 -0.4720 -0.1218
12844TIP3    H259948   0.146   4.940   6.408  0.7807  1.2055  0.7742
12845TIP3   OH259949   6.490   0.006   6.257  0.0272  0.3157  0.1232
12845TIP3    H159950   6.547   0.075   6.222  0.2717 -0.6291 -1.4163
12845TIP3    H259951   6.402   0.040   6.245  0.1771  0.8404  0.4506
12846TIP3   OH259952   1.795   4.841   1.953 -0.2802  0.5149  0.2621
12846TIP3    H159953   1.823   4.769   2.009 -0.7132  0.8803  0.9613
12846TIP3    H259954   1.854   4.837   1.877 -0.5662 -0.8117  0.0888
12847TIP3   OH259955   2.654   5.649   0.307 -0.0073 -0.1617 -0.3354
12847TIP3    H159956   2.742   5.636   0.340 -0.0489  1.3838  0.5205
12847TIP3    H259957   2.665   5.673   0.215  0.6534  1.7688  0.1950
12848TIP3   OH259958   2.826   6.482  15.073  0.0181  0.0679 -0.3083
12848TIP3    H159959   2.790   6.534  15.001 -1.5200 -0.5160 -0.0144
12848TIP3    H259960   2.766   6.499  15.146  1.9244  1.1882  1.0743
12849TIP3   OH259961   2.051   3.454   4.288  0.1734  0.7193  0.0943
12849TIP3    H159962   1.980   3.409   4.334  0.3571 -0.7718 -0.9825
12849TIP3    H259963   2.117   3.470   4.356 -0.1658 -0.1123  0.6383
12850TIP3   OH259964   2.761   5.289   3.408 -0.2362 -0.3412 -0.7114
12850TIP3    H159965   2.813   5.266   3.332  0.0678  0.1577 -0.6582
12850TIP3    H259966   2.675   5.251   3.391  0.4770 -2.2616 -0.2308
12851TIP3   OH259967   4.143   0.481   3.322 -0.6126  0.4001 -0.1812
12851TIP3    H159968   4.115   0.496   3.232 -1.5750  1.6527  0.2894
12851TIP3    H259969   4.065   0.448   3.366 -0.7202  1.6312  0.6071
12852TIP3   OH259970   4.187   2.458  10.834 -0.3436  0.4141  0.0401
12852TIP3    H159971   4.149   2.517  10.769  1.1758  2.3817  0.8578
12852TIP3    H259972   4.199   2.512  10.912  0.6970 -1.0981  0.9869
12853TIP3   OH259973   1.488   6.357  16.716 -1.0220  0.0177  0.2828
12853TIP3    H159974   1.495   6.452  16.706  1.6461 -0.0451  0.7686
12853TIP3    H259975   1.531   6.339  16.800 -0.5317 -1.7078 -0.3003
12854TIP3   OH259976   4.709   5.750   5.017  0.6164 -0.9465 -0.0221
12854TIP3    H159977   4.657   5.705   5.084 -1.2236 -0.0078 -0.7545
12854TIP3    H259978   4.765   5.681   4.979 -0.2573 -2.0429  0.6355
12855TIP3   OH259979   6.154   2.924   0.461 -0.0041 -1.1708  0.2592
12855TIP3    H159980   6.108   2.899   0.542 -3.4321 -0.5125 -1.2881
12855TIP3    H259981   6.171   3.017   0.471 -1.5170 -0.8211 -0.1869
12856TIP3   OH259982   3.792   4.884   1.385 -0.3481  0.0488  0.2322
12856TIP3    H159983   3.835   4.948   1.328 -1.5361  0.7689  0.0943
12856TIP3    H259984   3.860   4.857   1.446  0.3666  0.9422 -0.1372
12857TIP3   OH259985   0.997   5.234  16.542  0.1333 -0.2669  0.4806
12857TIP3    H159986   1.028   5.324  16.534 -2.5914  0.7611  0.5337
12857TIP3    H259987   1.065   5.181  16.500  0.0949  2.1531 -2.9966
12858TIP3   OH259988   5.080   1.708   0.071 -0.4126 -0.1786  0.2047
12858TIP3    H159989   4.990   1.704   0.039 -0.5504  0.5401  0.4856
12858TIP3    H259990   5.130   1.652   0.011 -0.9886 -0.3207 -0.1460
12859TIP3   OH259991   2.861   2.320   3.522 -0.5184 -0.3056  0.1317
12859TIP3    H159992   2.856   2.313   3.618  1.0936  0.8770  0.3315
12859TIP3    H259993   2.907   2.402   3.506  0.8697 -1.3568 -1.6238
12860TIP3   OH259994   1.435   5.841   5.029  0.2175 -0.1702  0.9195
12860TIP3    H159995   1.403   5.845   5.119  1.2690 -0.4104  1.3168
12860TIP3    H259996   1.443   5.748   5.010 -0.5212 -0.1311  0.3751
12861TIP3   OH259997   0.446   4.689   5.274 -0.0030 -0.2473 -0.0029
12861TIP3    H159998   0.360   4.722   5.247  0.5953  0.3060 -1.2870
12861TIP3    H259999   0.441   4.685   5.370 -1.5568 -0.5088 -0.0747
12862TIP3   OH260000   3.560   2.889   4.153 -0.1930  0.4019 -0.1848
12862TIP3    H160001   3.648   2.912   4.122 -0.2934  0.5536 -0.3623
12862TIP3    H260002   3.510   2.970   4.145 -0.2546  0.4113  0.2631
12863TIP3   OH260003   6.458   1.511   5.691  0.0571  0.0232 -0.8959
12863TIP3    H160004   6.531   1.571   5.676  0.8448 -0.8647 -0.7007
12863TIP3    H260005   6.475   1.474   5.778  1.2386 -2.6955 -2.1651
12864TIP3   OH260006   1.356   2.488  13.912 -0.1677 -0.8562  0.1718
12864TIP3    H160007   1.314   2.425  13.853 -0.1912 -0.9176  0.2521
12864TIP3    H260008   1.384   2.434  13.987 -1.0427 -0.6162  0.6820
12865TIP3   OH260009   1.106   4.100  12.398 -0.2765 -0.3198  0.5127
12865TIP3    H160010   1.049   4.118  12.473 -0.4165  1.9477 -0.0723
12865TIP3    H260011   1.162   4.177  12.390  0.8733 -1.2209 -0.7287
12866TIP3   OH260012   5.436   4.170  16.849  0.5270  0.2791 -0.2783
12866TIP3    H160013   5.469   4.113  16.780  1.0816  0.2738 -0.0126
12866TIP3    H260014   5.363   4.217  16.808  1.3926  0.9193 -1.1483
12867TIP3   OH260015   0.112   5.647   1.976  0.1459 -0.0325  0.4150
12867TIP3    H160016   0.206   5.663   1.987  0.1121  0.7780 -0.3509
12867TIP3    H260017   0.072   5.685   2.054  0.2876  1.6544 -0.2672
12868TIP3   OH260018   0.145   6.427   1.006 -0.1570 -0.1380 -0.1233
12868TIP3    H160019   0.127   6.415   1.099 -0.2650  0.5277 -0.0550
12868TIP3    H260020   0.071   6.386   0.962 -0.1122 -0.4430  0.0837
12869TIP3   OH260021   0.363   0.504  12.074  0.5646  0.0825  0.0875
12869TIP3    H160022   0.354   0.529  11.982 -0.6314 -1.6866 -0.3207
12869TIP3    H260023   0.281   0.532  12.115  1.9207  2.7923  1.1648
12870TIP3   OH260024   6.370   0.879  14.096 -0.6297 -0.7178 -0.1565
12870TIP3    H160025   6.332   0.849  14.179 -1.1160 -1.1903 -0.5395
12870TIP3    H260026   6.455   0.914  14.120 -1.8840  1.8387  0.9668
12871TIP3   OH260027   3.648   6.474   2.892 -0.1230 -0.1656  0.0228
12871TIP3    H160028   3.719   6.484   2.828  1.3273 -0.7839  1.4702
12871TIP3    H260029   3.675   6.401   2.946 -1.6654 -0.1091  0.9146
12872TIP3   OH260030   1.960   4.378   3.859  0.4795 -0.0639 -0.1471
12872TIP3    H160031   1.924   4.465   3.846 -1.0421 -0.4622  0.9521
12872TIP3    H260032   1.908   4.322   3.801  0.5916 -0.3886  0.0616
12873TIP3   OH260033   4.357   3.546   3.537 -0.6351 -0.1776  0.0900
12873TIP3    H160034   4.397   3.612   3.480  2.7494 -0.9921  1.2808
12873TIP3    H260035   4.326   3.595   3.613  1.3289  0.2388  0.7004
12874TIP3   OH260036   1.672   1.718  15.043  0.2993  0.5651  0.2008
12874TIP3    H160037   1.648   1.681  14.958 -0.0044 -1.5804  1.1450
12874TIP3    H260038   1.622   1.799  15.050 -2.5782 -1.0367 -0.1792
12875TIP3   OH260039   3.440   6.489   2.706  0.2464  0.1510 -0.2669
12875TIP3    H160040   3.507   6.502   2.639  0.3587 -0.5803 -0.3082
12875TIP3    H260041   3.489   6.459   2.783 -0.0479 -0.6276 -0.3713
12876TIP3   OH260042   5.754   6.160   5.803  0.0576  0.2013 -0.1201
12876TIP3    H160043   5.833   6.146   5.855  0.9080  0.1031 -1.4039
12876TIP3    H260044   5.732   6.252   5.816  0.6454  0.3420 -0.1276
12877TIP3   OH260045   0.039   5.257  16.763 -0.7512  0.5261  0.1461
12877TIP3    H160046   0.094   5.207  16.703  0.7956  1.5265  0.6591
12877TIP3    H260047  -0.011   5.316  16.707  1.4609  2.2166 -0.1990
12878TIP3   OH260048   0.479   6.477   6.242  0.3443  0.1560 -0.1052
12878TIP3    H160049   0.516   6.439   6.322  0.7204 -1.9747 -1.2223
12878TIP3    H260050   0.385   6.480   6.258  0.5351  1.1046  0.9436
12879TIP3   OH260051   1.524   0.125  11.162 -0.1988  0.0669 -0.1546
12879TIP3    H160052   1.430   0.130  11.177 -0.2594 -1.4997  0.2133
12879TIP3    H260053   1.536   0.153  11.072 -0.6347  3.0909  0.6251
12880TIP3   OH260054   5.290   5.618  16.124 -0.2774 -0.2647  0.0190
12880TIP3    H160055   5.352   5.576  16.065 -0.4057  0.4837 -0.6749
12880TIP3    H260056   5.338   5.691  16.163 -1.2180  1.5973 -2.0703
12881TIP3   OH260057   5.751   1.461   4.919  0.1940 -1.0124 -0.6415
12881TIP3    H160058   5.675   1.448   4.862 -0.0256 -2.1189 -0.1330
12881TIP3    H260059   5.721   1.434   5.006 -0.2282  2.9361  0.6328
12882TIP3   OH260060   4.326   4.798  12.991 -0.3012  0.3483  0.3134
12882TIP3    H160061   4.382   4.835  13.060  1.5486  0.0046 -0.9121
12882TIP3    H260062   4.381   4.801  12.912 -2.1958  0.3613 -1.0695
12883TIP3   OH260063   1.655   2.516   2.651  0.5357  0.2489 -0.1517
12883TIP3    H160064   1.646   2.423   2.632 -0.2846  0.4320 -0.7264
12883TIP3    H260065   1.570   2.541   2.688  0.4964  0.9257 -0.6932
12884TIP3   OH260066   5.466   1.941  14.458 -1.1619 -0.0894 -0.2450
12884TIP3    H160067   5.461   1.850  14.428 -0.9977  0.6146 -2.6500
12884TIP3    H260068   5.560   1.959  14.464 -1.1947 -0.1483  0.5062
12885TIP3   OH260069   5.820   0.122   2.278 -0.1282  0.7120 -0.3214
12885TIP3    H160070   5.793   0.209   2.308 -1.3972  0.2791 -0.1439
12885TIP3    H260071   5.863   0.138   2.194 -0.7399  1.4804 -0.5057
12886TIP3   OH260072   4.550   0.811  15.470  0.1492  0.3430  0.2798
12886TIP3    H160073   4.589   0.753  15.536  0.1988  0.1913  0.1202
12886TIP3    H260074   4.560   0.762  15.388  0.4019  0.6785  0.1097
12887TIP3   OH260075   5.152   2.192  14.411  0.0445 -0.3231  0.2836
12887TIP3    H160076   5.229   2.155  14.369 -0.7279 -1.5928 -0.0891
12887TIP3    H260077   5.102   2.231  14.339 -0.3250 -0.7375  0.3132
12888TIP3   OH260078   4.253   2.281  17.081 -0.2406  0.2227  0.4630
12888TIP3    H160079   4.188   2.295  17.012 -0.6532 -0.7929  0.6385
12888TIP3    H260080   4.249   2.361  17.134 -1.6597  0.0054  0.7185
12889TIP3   OH260081   1.350   5.813  13.007 -0.3844 -0.0690 -0.6246
12889TIP3    H160082   1.294   5.771  12.941 -1.6965 -2.1264  1.6119
12889TIP3    H260083   1.288   5.852  13.069  0.7817  1.2518 -0.2440
12890TIP3   OH260084   2.116   1.872  15.467  0.2198 -0.4660 -0.1946
12890TIP3    H160085   2.163   1.890  15.548  0.6386 -0.2856 -0.4705
12890TIP3    H260086   2.058   1.799  15.488  1.8893 -1.8930 -0.3081
12891TIP3   OH260087   5.169   0.881  12.899  0.0064  0.0061 -0.2657
12891TIP3    H160088   5.091   0.892  12.954  0.1439  1.0635 -0.2601
12891TIP3    H260089   5.234   0.940  12.938  0.0888  0.8345 -1.5901
12892TIP3   OH260090   3.816   5.270  13.025 -0.0553 -0.5456  0.1050
12892TIP3    H160091   3.835   5.318  13.105 -2.0966 -0.4478  0.5932
12892TIP3    H260092   3.746   5.319  12.983  0.3055 -1.1331 -1.2543
12893TIP3   OH260093   2.914   2.897   4.898  0.1371  0.3898  0.0228
12893TIP3    H160094   2.937   2.987   4.873  2.7776 -0.2318 -0.1720
12893TIP3    H260095   2.878   2.859   4.818 -2.1951  1.5686  0.4492
12894TIP3   OH260096   1.712   5.498   2.848  0.0366 -0.5042  0.7983
12894TIP3    H160097   1.789   5.442   2.846 -0.0041 -0.5454  0.0282
12894TIP3    H260098   1.671   5.480   2.932  0.0952 -1.5436  0.6177
12895TIP3   OH260099   4.270   2.712  15.710  0.0087 -0.4484  0.2360
12895TIP3    H160100   4.225   2.702  15.627  0.6975  0.4113 -0.2581
12895TIP3    H260101   4.337   2.644  15.710 -0.2763 -0.7317  0.2889
12896TIP3   OH260102   3.856   5.249  12.369  0.4052  0.7328  0.4221
12896TIP3    H160103   3.815   5.332  12.346  1.6611  0.9659 -1.1144
12896TIP3    H260104   3.948   5.271  12.386  0.5404 -0.1982  0.9832
12897TIP3   OH260105   3.716   6.095   0.395 -0.3812  0.0055  0.0985
12897TIP3    H160106   3.774   6.133   0.461  1.0951  0.7467 -1.5429
12897TIP3    H260107   3.700   6.006   0.424  2.1005 -0.4177  0.3303
12898TIP3   OH260108   3.151   4.784  12.562  0.3436 -0.3745  0.2830
12898TIP3    H160109   3.101   4.817  12.487  1.1536 -0.1818 -0.1985
12898TIP3    H260110   3.214   4.854  12.580 -0.1115 -0.2497  1.4153
12899TIP3   OH260111   2.123   5.108   5.982  0.1293 -0.3750 -0.5326
12899TIP3    H160112   2.125   5.013   5.995 -0.0077 -0.1845  1.0486
12899TIP3    H260113   2.042   5.136   6.025  1.6260  0.7947  1.7304
12900TIP3   OH260114   4.957   5.726  13.522  0.1490 -0.3407  0.4665
12900TIP3    H160115   4.970   5.651  13.580 -2.1484 -1.6001 -0.4950
12900TIP3    H260116   4.867   5.754  13.539 -0.4569 -0.4884 -2.1047
12901TIP3   OH260117   6.485   6.644  13.886  0.1302 -0.4147  0.0270
12901TIP3    H160118   6.553   6.576  13.886 -0.0731 -0.6205 -0.2905
12901TIP3    H260119   6.459   6.651  13.794 -0.0782 -0.1347  0.1077
12902TIP3   OH260120   0.277   4.892  12.068 -0.5371  0.4887  0.2707
12902TIP3    H160121   0.193   4.863  12.103  0.1221 -1.1993  0.5509
12902TIP3    H260122   0.267   4.886  11.973 -0.2841 -1.2522  0.3108
12903TIP3   OH260123   0.913   3.550  16.484  0.0590 -0.0827 -0.1143
12903TIP3    H160124   0.854   3.549  16.559 -0.2636 -0.7947 -0.3740
12903TIP3    H260125   0.856   3.554  16.408  0.3732  0.0982 -0.3435
12904TIP3   OH260126   5.379   1.391  16.800 -0.8572  0.3023 -0.2279
12904TIP3    H160127   5.331   1.393  16.883 -0.8286  0.9407 -0.2185
12904TIP3    H260128   5.438   1.466  16.805 -0.5744  0.1115 -0.6618
12905TIP3   OH260129   0.157   5.726   6.212 -0.3287  0.0721 -0.3651
12905TIP3    H160130   0.218   5.653   6.208 -1.1214 -0.5584 -1.8082
12905TIP3    H260131   0.082   5.698   6.160 -0.4344  2.1216 -1.4451
12906TIP3   OH260132   4.119   2.021   2.457 -0.2197  0.3597 -0.0932
12906TIP3    H160133   4.100   2.114   2.442  0.1447  0.5454  0.5784
12906TIP3    H260134   4.133   2.014   2.551  1.2448 -0.0978 -0.3223
12907TIP3   OH260135   0.286   0.613  15.183 -0.0737  0.2644  0.4810
12907TIP3    H160136   0.332   0.628  15.265  0.0010  0.3548  0.4219
12907TIP3    H260137   0.274   0.518  15.180 -1.9980  0.4213  1.6429
12908TIP3   OH260138   0.467   4.178   5.291 -0.0761 -0.0958  0.4592
12908TIP3    H160139   0.487   4.084   5.297  0.0348 -0.1246 -0.2068
12908TIP3    H260140   0.518   4.218   5.360 -0.1539 -0.5345  0.7751
12909TIP3   OH260141   1.605   6.037  15.851 -0.1322 -0.0775  0.4177
12909TIP3    H160142   1.524   6.037  15.801  1.7911  0.7633 -2.9774
12909TIP3    H260143   1.626   5.944  15.862  0.2317 -0.3480 -1.9892
12910TIP3   OH260144   5.618   6.535  17.129  0.0435  0.2379  0.4591
12910TIP3    H160145   5.698   6.483  17.124  0.8780  1.5382 -0.3230
12910TIP3    H260146   5.608   6.573  17.042 -2.8583 -1.8610 -0.2517
12911TIP3   OH260147   5.898   6.023  15.828 -0.5549 -0.3998 -0.3972
12911TIP3    H160148   5.960   5.957  15.858 -1.0599 -0.6519  0.1142
12911TIP3    H260149   5.952   6.086  15.780 -0.3076 -2.1826 -2.6576
12912TIP3   OH260150   4.504   1.829  13.668 -0.2027  0.1893  0.4021
12912TIP3    H160151   4.511   1.903  13.728  1.6455  1.4041 -1.1727
12912TIP3    H260152   4.410   1.819  13.653 -0.6351  0.4750  2.6850
12913TIP3   OH260153   4.740   3.718   3.158 -0.0007 -0.0618  0.4485
12913TIP3    H160154   4.726   3.699   3.250 -1.2110  0.8232  0.4724
12913TIP3    H260155   4.775   3.807   3.156  1.0727 -0.4673  0.0914
12914TIP3   OH260156   4.267   3.768   0.121  0.0689 -0.1839 -0.1193
12914TIP3    H160157   4.184   3.777   0.074 -0.2813 -1.3098  0.2509
12914TIP3    H260158   4.330   3.743   0.053 -0.0968 -0.2614 -0.2461
12915TIP3   OH260159   4.697   1.403  15.695 -0.1681  0.5073  0.3137
12915TIP3    H160160   4.635   1.355  15.750 -0.0912  1.2532  1.0716
12915TIP3    H260161   4.651   1.414  15.612  0.1081 -1.5440 -0.1761
12916TIP3   OH260162   3.787   3.461  17.246  0.4096 -0.0371  0.3905
12916TIP3    H160163   3.840   3.450  17.325  0.1646  1.1636  0.7546
12916TIP3    H260164   3.717   3.396  17.254 -0.0809  0.5985  1.6021
12917TIP3   OH260165   5.263   6.422   5.413  0.0590 -0.0762  0.3488
12917TIP3    H160166   5.236   6.367   5.486  0.8267 -0.3524  0.4353
12917TIP3    H260167   5.226   6.378   5.336 -1.2464  0.5336  0.6006
12918TIP3   OH260168   1.501   1.995   5.817  0.1740  0.4406 -0.1817
12918TIP3    H160169   1.547   1.992   5.901  0.3586  0.7820 -0.2717
12918TIP3    H260170   1.570   2.011   5.752 -0.0704  0.9667 -0.3164
12919TIP3   OH260171   2.545   4.320  16.814 -0.5522  0.4364  0.1396
12919TIP3    H160172   2.496   4.360  16.886  0.3556  1.1893  0.3604
12919TIP3    H260173   2.511   4.362  16.735 -1.7789 -0.6230  0.0638
12920TIP3   OH260174   2.341   2.004  12.555 -0.1558 -0.0018  0.3722
12920TIP3    H160175   2.316   2.091  12.586  0.0642  1.9746 -4.2145
12920TIP3    H260176   2.275   1.982  12.489  2.4497 -0.9286 -2.1419
12921TIP3   OH260177   4.363   1.215   1.434 -1.1009 -0.2314 -0.1285
12921TIP3    H160178   4.423   1.201   1.361 -0.8377 -0.8294  0.1909
12921TIP3    H260179   4.362   1.131   1.480 -3.3074 -0.7218 -0.9517
12922TIP3   OH260180   6.772   2.138  14.999  0.8500  0.0766  0.0175
12922TIP3    H160181   6.818   2.197  14.939 -0.0743  0.7363 -0.0603
12922TIP3    H260182   6.773   2.184  15.083 -0.0187  0.2979 -0.0819
12923TIP3   OH260183   0.249   2.613  12.308  0.0446  0.1448  0.3120
12923TIP3    H160184   0.324   2.557  12.324 -0.7162 -0.0728  3.9391
12923TIP3    H260185   0.185   2.556  12.265  1.1406 -0.2521 -0.8238
12924TIP3   OH260186   5.496   4.253   4.176 -0.2020  0.4530 -0.3599
12924TIP3    H160187   5.571   4.296   4.218 -0.5278 -0.4309  1.2002
12924TIP3    H260188   5.423   4.268   4.237 -1.2656  1.0759 -1.7237
12925TIP3   OH260189   3.526   2.909  13.637 -0.4757 -0.1157 -0.1343
12925TIP3    H160190   3.462   2.910  13.708  0.5918 -0.0578  0.8559
12925TIP3    H260191   3.503   2.832  13.585 -1.0402 -0.3860  0.5030
12926TIP3   OH260192   2.504   1.730  14.417 -0.0143  0.0541  0.0580
12926TIP3    H160193   2.415   1.749  14.447  0.2838 -2.7946  3.4693
12926TIP3    H260194   2.498   1.643  14.378  1.3937 -0.8434  1.6930
12927TIP3   OH260195   5.156   3.496   5.352 -0.1743  0.5960 -0.3358
12927TIP3    H160196   5.154   3.585   5.388  0.2261  0.4867 -0.0355
12927TIP3    H260197   5.241   3.462   5.378 -0.6635 -0.1791  0.2998
12928TIP3   OH260198   4.788   1.366   0.068  0.2310 -0.3638 -0.5304
12928TIP3    H160199   4.770   1.331  -0.019 -1.8334  0.4335 -0.4914
12928TIP3    H260200   4.742   1.307   0.128  1.1140 -0.5507 -0.0134
12929TIP3   OH260201   0.544   6.538  11.374 -0.7476  0.1822 -0.0700
12929TIP3    H160202   0.527   6.601  11.444  0.2911  0.1633  0.2051
12929TIP3    H260203   0.459   6.528  11.331 -1.1405  1.0496  0.4700
12930TIP3   OH260204   4.639   3.387   3.950  0.0329 -0.1822  0.1221
12930TIP3    H160205   4.545   3.400   3.948 -0.0332 -0.5473 -2.4038
12930TIP3    H260206   4.676   3.475   3.941 -0.0221 -0.0296  1.1984
12931TIP3   OH260207   1.638   2.640  12.476 -0.7000 -1.1303 -0.2689
12931TIP3    H160208   1.558   2.589  12.467 -1.5961  0.2038 -0.1409
12931TIP3    H260209   1.609   2.731  12.476  0.6996 -0.6415  1.0502
12932TIP3   OH260210   3.041   0.427  11.658  0.1085  1.2475  0.7393
12932TIP3    H160211   3.005   0.426  11.747  1.1247  0.8244  1.1672
12932TIP3    H260212   2.972   0.390  11.604  0.2518 -0.5296  1.6893
12933TIP3   OH260213   2.328   5.747  12.586  0.0836  0.2691  0.0011
12933TIP3    H160214   2.344   5.726  12.678 -0.0724 -0.9225 -0.2306
12933TIP3    H260215   2.414   5.773  12.552  0.3753 -0.3847  0.2137
12934TIP3   OH260216   2.985   3.446   3.292  0.0061 -0.2303  0.1765
12934TIP3    H160217   2.897   3.476   3.311  0.0541 -0.3909  0.6722
12934TIP3    H260218   3.020   3.417   3.377  0.7694  0.4444  0.1058
12935TIP3   OH260219   3.821   2.723   4.518  0.0463  0.0584  0.0224
12935TIP3    H160220   3.787   2.707   4.429  0.7734  0.8935 -0.4203
12935TIP3    H260221   3.824   2.637   4.558 -1.8605 -0.1573 -0.1779
12936TIP3   OH260222   0.165   4.084   4.771  0.8522 -0.1372 -0.3650
12936TIP3    H160223   0.133   4.172   4.750  2.1181  0.7577  1.2596
12936TIP3    H260224   0.086   4.034   4.789  0.1142  0.6889 -1.1419
12937TIP3   OH260225   4.717   2.205   6.485 -0.4481 -0.3795 -0.4393
12937TIP3    H160226   4.630   2.181   6.516 -1.1944 -0.0763 -2.1561
12937TIP3    H260227   4.769   2.217   6.564 -2.1023 -0.0821  0.6465
12938TIP3   OH260228   3.089   3.298  16.992 -0.1458 -0.4167 -0.2548
12938TIP3    H160229   3.081   3.203  16.989 -1.8565 -0.3939  1.4826
12938TIP3    H260230   3.073   3.320  17.084  0.1419  1.5539 -0.6464
12939TIP3   OH260231   2.270   1.944   2.679  0.2781 -0.2871 -0.1120
12939TIP3    H160232   2.322   1.910   2.752  2.7256  0.8749 -1.2074
12939TIP3    H260233   2.334   1.965   2.611 -1.5596  1.9701 -1.2952
12940TIP3   OH260234   6.744   4.636   2.836 -0.4273 -0.5336 -0.2632
12940TIP3    H160235   6.765   4.546   2.857 -1.4257 -0.9839 -1.0883
12940TIP3    H260236   6.674   4.659   2.898  0.9611  0.2679  1.0839
12941TIP3   OH260237   2.807   4.784   4.823 -0.1368 -0.2515  0.3751
12941TIP3    H160238   2.739   4.811   4.762 -0.0064  1.0403  0.7574
12941TIP3    H260239   2.858   4.864   4.839  1.9772 -1.3332 -0.5092
12942TIP3   OH260240   3.280   1.641  15.286  0.3548  0.1323  0.7744
12942TIP3    H160241   3.266   1.723  15.239 -0.7900 -0.1319  0.6287
12942TIP3    H260242   3.255   1.661  15.376 -1.8562 -0.5294  0.3762
12943TIP3   OH260243   1.479   0.575   4.892  0.1414 -0.3982 -0.2145
12943TIP3    H160244   1.564   0.532   4.901  1.0916  0.6363 -3.0957
12943TIP3    H260245   1.416   0.508   4.919  1.7484 -2.0806 -0.3833
12944TIP3   OH260246   2.479   4.689   2.513 -0.1423 -0.4151 -0.6755
12944TIP3    H160247   2.543   4.630   2.553  0.8118  0.6646 -0.5180
12944TIP3    H260248   2.456   4.648   2.430 -0.1855 -1.4260 -0.1811
12945TIP3   OH260249   4.329   2.899   2.745 -0.0397  0.0853 -0.2027
12945TIP3    H160250   4.398   2.854   2.697  1.0486  0.7735  0.6431
12945TIP3    H260251   4.324   2.854   2.829 -0.6154  0.0565 -0.2454
12946TIP3   OH260252   2.112   2.106   2.109  0.5934 -0.3377 -0.1746
12946TIP3    H160253   2.182   2.143   2.163 -0.5050  0.6252  0.6346
12946TIP3    H260254   2.127   2.012   2.111  1.1375 -0.2356  1.0086
12947TIP3   OH260255   5.414   0.133  15.299  0.1796 -0.0978  0.0198
12947TIP3    H160256   5.478   0.186  15.250 -1.5461  1.6198 -0.5305
12947TIP3    H260257   5.331   0.179  15.285 -1.2230 -2.3662  0.5221
12948TIP3   OH260258   3.832   0.271   2.692  0.0340 -0.7075 -0.8629
12948TIP3    H160259   3.747   0.309   2.717  0.2588  1.8202 -3.3110
12948TIP3    H260260   3.809   0.198   2.635 -0.5022 -0.7342 -0.6237
12949TIP3   OH260261   2.817   1.917  11.806  0.1775  0.1231  0.1158
12949TIP3    H160262   2.778   1.876  11.884  0.6026 -1.5202 -0.4794
12949TIP3    H260263   2.895   1.960  11.838  0.5516 -0.8535  0.5733
12950TIP3   OH260264   6.543   0.481   3.277  0.2329 -0.3086  0.5503
12950TIP3    H160265   6.458   0.451   3.246 -0.7444  1.6133  1.2058
12950TIP3    H260266   6.604   0.458   3.207 -0.9816 -0.8551 -0.3617
12951TIP3   OH260267   5.202   3.403   1.978 -0.2835  0.4648 -0.8600
12951TIP3    H160268   5.244   3.475   1.930 -0.1201  0.9281 -0.0421
12951TIP3    H260269   5.161   3.350   1.910  1.2384  0.2485 -1.6489
12952TIP3   OH260270   2.638   5.255   2.894 -0.4563  0.5789  0.6936
12952TIP3    H160271   2.603   5.343   2.888 -1.1914  0.2107 -1.1264
12952TIP3    H260272   2.591   5.206   2.827  3.2345 -0.0573 -1.7378
12953TIP3   OH260273   0.455   3.508  14.206 -0.4468 -0.3568  0.3174
12953TIP3    H160274   0.463   3.603  14.213 -1.0012 -0.3567  1.0549
12953TIP3    H260275   0.531   3.481  14.154 -0.4929  0.5241 -0.2207
12954TIP3   OH260276   1.776   1.487   0.037 -0.3570 -0.5706  0.6997
12954TIP3    H160277   1.715   1.560   0.044 -1.4218 -1.1079 -1.8067
12954TIP3    H260278   1.859   1.527   0.009 -0.6110 -0.2077  0.4655
12955TIP3   OH260279   4.787   0.848  14.049  0.1118  0.3046  0.0653
12955TIP3    H160280   4.752   0.911  13.986 -0.4129  0.2858  0.3341
12955TIP3    H260281   4.714   0.830  14.108  0.5954  0.3049  0.6674
12956TIP3   OH260282   4.759   0.848   5.865 -0.2509 -0.4295 -0.1017
12956TIP3    H160283   4.770   0.936   5.900  1.2107 -0.1724 -1.0989
12956TIP3    H260284   4.839   0.801   5.890 -0.3206 -0.9990 -0.8974
12957TIP3   OH260285   5.441   2.767  16.838  0.3187  0.4065  0.6204
12957TIP3    H160286   5.402   2.850  16.864 -2.7100 -0.5239 -0.5590
12957TIP3    H260287   5.376   2.726  16.781  1.2436 -3.2377  1.9017
12958TIP3   OH260288   0.764   0.225  14.936  0.3731  0.1081  0.1446
12958TIP3    H160289   0.809   0.310  14.938  0.4325  0.2017 -2.1272
12958TIP3    H260290   0.797   0.183  14.856 -1.2569 -1.1506  0.0901
12959TIP3   OH260291   3.756   5.275   5.395 -0.2104  0.2621 -0.4518
12959TIP3    H160292   3.673   5.322   5.397  0.1643  0.9524 -0.7749
12959TIP3    H260293   3.792   5.284   5.484 -0.8958 -0.8227 -0.0435
12960TIP3   OH260294   4.614   4.877  16.963  0.0577  0.5990  0.4879
12960TIP3    H160295   4.601   4.817  16.890  0.3963  0.3067  0.6661
12960TIP3    H260296   4.651   4.956  16.923 -0.2561  0.6427  0.2733
12961TIP3   OH260297   6.155   0.143  12.346 -0.4418 -0.1918 -0.0751
12961TIP3    H160298   6.181   0.160  12.436 -0.6951  1.7177 -0.3139
12961TIP3    H260299   6.096   0.068  12.351 -0.2181 -0.2941  1.3066
12962TIP3   OH260300   6.430   4.201   1.177  0.2566  0.5125 -0.0274
12962TIP3    H160301   6.362   4.158   1.125 -1.6884  1.7494  1.3599
12962TIP3    H260302   6.485   4.129   1.207 -2.1610 -0.9638  1.2077
12963TIP3   OH260303   2.560   5.633   4.710 -0.0884  0.4405  0.6614
12963TIP3    H160304   2.566   5.554   4.763 -1.4042  0.7325  1.2742
12963TIP3    H260305   2.560   5.601   4.619 -1.9098 -0.4050  0.9106
12964TIP3   OH260306   5.651   5.623  14.165 -0.1412 -0.6489 -0.2726
12964TIP3    H160307   5.616   5.619  14.254 -0.4272 -1.3361 -0.4098
12964TIP3    H260308   5.616   5.704  14.129 -1.4872 -1.2326 -0.3473
12965TIP3   OH260309   5.915   2.088  14.345  0.4716 -0.4389 -0.0586
12965TIP3    H160310   5.868   2.063  14.425  3.4904 -2.9645  1.1428
12965TIP3    H260311   5.877   2.033  14.277  0.2794 -0.9544  0.4482
12966TIP3   OH260312   2.481   2.224  13.027 -0.0110 -0.4259 -0.3436
12966TIP3    H160313   2.482   2.319  13.041 -2.6420 -0.3883 -0.0063
12966TIP3    H260314   2.534   2.211  12.948  0.7683  1.2499 -0.1436
12967TIP3   OH260315   0.584   3.199  11.281  0.4292  0.2637 -0.4248
12967TIP3    H160316   0.514   3.252  11.243  0.8940 -0.3363 -2.1955
12967TIP3    H260317   0.566   3.201  11.376 -1.3508  0.9858 -0.7278
12968TIP3   OH260318   4.522   4.089  17.194  0.4918 -0.1773  0.2194
12968TIP3    H160319   4.523   4.185  17.185 -1.0359  0.3947  4.0530
12968TIP3    H260320   4.448   4.061  17.142 -1.9585  1.4558  2.5425
12969TIP3   OH260321   2.092   5.910   0.573  0.4572 -0.1270 -0.0878
12969TIP3    H160322   2.116   5.904   0.480 -1.6894 -0.7945 -0.6452
12969TIP3    H260323   1.997   5.915   0.573  0.3930 -0.5642  2.1113
12970TIP3   OH260324   5.424   6.348   1.108  0.3531 -0.1359  0.2577
12970TIP3    H160325   5.481   6.317   1.178 -0.6731  0.4475  1.3892
12970TIP3    H260326   5.419   6.442   1.121 -0.1684 -0.0725 -0.3608
12971TIP3   OH260327   2.837   4.727  15.165 -0.0677 -0.3569  0.0031
12971TIP3    H160328   2.905   4.742  15.099 -1.0183 -0.7107 -1.0710
12971TIP3    H260329   2.875   4.659  15.222  0.9454  0.2812  0.1205
12972TIP3   OH260330   0.442   1.604   4.426 -0.2208  0.7222 -0.5143
12972TIP3    H160331   0.413   1.537   4.488 -0.7591 -0.4804 -1.9958
12972TIP3    H260332   0.533   1.582   4.407 -0.0791  1.0437 -0.2170
12973TIP3   OH260333   0.226   4.814   2.670 -0.0476  0.4537 -0.1340
12973TIP3    H160334   0.291   4.864   2.621 -0.3962  0.8802 -0.1626
12973TIP3    H260335   0.276   4.774   2.742  0.3241  0.4297 -0.4031
12974TIP3   OH260336   0.688   2.155   4.906 -0.1760 -0.5867  0.2405
12974TIP3    H160337   0.727   2.072   4.934 -0.7776  0.1024  3.5109
12974TIP3    H260338   0.753   2.221   4.928  0.6141 -0.0921 -3.0123
12975TIP3   OH260339   5.811   4.583   2.174  0.2470  0.1688  0.4216
12975TIP3    H160340   5.789   4.491   2.191 -0.4889  0.2628  0.0440
12975TIP3    H260341   5.899   4.581   2.137  0.4033 -0.3463  0.8136
12976TIP3   OH260342   3.508   4.387  14.748 -0.4181 -0.3624  0.4620
12976TIP3    H160343   3.515   4.466  14.802 -0.8673 -0.7541  1.1128
12976TIP3    H260344   3.596   4.350  14.749 -0.1881  0.1679  0.0956
12977TIP3   OH260345   0.938   5.724   2.725 -0.4879 -0.0572 -0.2070
12977TIP3    H160346   0.963   5.816   2.727  1.2152 -0.4914  1.4512
12977TIP3    H260347   0.905   5.706   2.813 -0.5498 -1.0840 -0.4284
12978TIP3   OH260348   5.192   6.628   4.959  0.4873  0.1721  0.2055
12978TIP3    H160349   5.264   6.639   5.021 -1.4272  2.5818  2.2298
12978TIP3    H260350   5.228   6.656   4.875  2.4534 -0.7255  0.6937
12979TIP3   OH260351   5.189   3.976   3.013  0.3183 -0.7367 -0.5664
12979TIP3    H160352   5.123   3.982   2.943  1.3756  0.5020 -1.5029
12979TIP3    H260353   5.140   3.991   3.094 -0.9685 -2.3875 -0.9862
12980TIP3   OH260354   5.669   0.311   5.260  0.3036  0.1538  0.0343
12980TIP3    H160355   5.660   0.216   5.271  1.4945 -0.0082 -0.2171
12980TIP3    H260356   5.597   0.336   5.203 -1.4450 -0.2095  1.9753
12981TIP3   OH260357   1.006   4.635   4.894 -0.5123 -0.6610  0.1603
12981TIP3    H160358   1.064   4.570   4.933 -0.6661 -0.6589  0.3966
12981TIP3    H260359   0.918   4.604   4.916 -0.5771  0.6971  2.0827
12982TIP3   OH260360   2.573   0.231   2.713 -0.3523 -0.5650  0.1513
12982TIP3    H160361   2.621   0.177   2.775  0.0835  1.0388  1.2570
12982TIP3    H260362   2.517   0.287   2.767 -0.3319  0.5244 -0.9061
12983TIP3   OH260363   0.633   6.309  17.197 -0.4480 -0.0248  0.3824
12983TIP3    H160364   0.550   6.328  17.241 -0.0036  2.1180  0.4127
12983TIP3    H260365   0.627   6.355  17.113  0.9601  0.7556  0.6822
12984TIP3   OH260366   5.609   6.766  14.606  0.0071  0.3273  0.0677
12984TIP3    H160367   5.572   6.806  14.685  1.3072  1.3253  0.2034
12984TIP3    H260368   5.545   6.785  14.538 -1.5459 -1.2707  0.9976
12985TIP3   OH260369   3.718   6.323  15.993 -0.2185 -0.1655 -0.0354
12985TIP3    H160370   3.805   6.363  15.991  1.3507 -3.2681  0.5590
12985TIP3    H260371   3.691   6.319  15.901  0.3625  0.5705 -0.2446
12986TIP3   OH260372   2.290   1.674  13.646 -0.1468  0.1623  0.1073
12986TIP3    H160373   2.247   1.588  13.642 -0.7124  0.4581 -0.3839
12986TIP3    H260374   2.254   1.715  13.725  1.2234 -0.6101  1.1610
12987TIP3   OH260375   2.252   2.927  12.287 -0.8929 -0.1164 -0.4816
12987TIP3    H160376   2.309   2.917  12.363  0.4646 -2.5535 -1.6909
12987TIP3    H260377   2.167   2.952  12.323  0.1220  0.5082  1.6527
12988TIP3   OH260378   2.915   1.440  11.104  0.0214 -0.1245 -0.3548
12988TIP3    H160379   2.917   1.421  11.010 -2.4044 -2.2619 -0.0697
12988TIP3    H260380   2.968   1.371  11.143 -0.6217 -0.4449 -0.0343
12989TIP3   OH260381   4.119   3.287   4.582  0.1265 -0.4977  0.4203
12989TIP3    H160382   4.172   3.360   4.549  2.4629 -3.1526 -2.3251
12989TIP3    H260383   4.152   3.272   4.671 -1.4163  2.5069  1.6287
12990TIP3   OH260384   3.710   2.902  11.966  0.6634 -0.2712 -0.1781
12990TIP3    H160385   3.762   2.954  11.905 -0.4332  0.1567 -0.7769
12990TIP3    H260386   3.721   2.812  11.936  0.5412 -0.1171 -0.6990
12991TIP3   OH260387   5.399   0.479   4.346  0.0321  0.0916 -0.0001
12991TIP3    H160388   5.424   0.549   4.406 -0.3481 -1.2589  1.8391
12991TIP3    H260389   5.330   0.517   4.292 -0.5570  0.9966  1.3221
12992TIP3   OH260390   3.620   2.538   5.798 -0.0776  0.6660  0.5907
12992TIP3    H160391   3.570   2.601   5.849  0.1118  0.9328  0.4494
12992TIP3    H260392   3.624   2.576   5.710 -0.3749  0.2243  0.3835
12993TIP3   OH260393   1.878   3.063   0.864  0.4389  0.6292  0.4213
12993TIP3    H160394   1.791   3.080   0.900  0.1202  1.8263 -0.8118
12993TIP3    H260395   1.915   2.996   0.922 -0.6296  1.3178  1.9869
12994TIP3   OH260396   3.046   0.263  12.673 -0.4974  0.4107 -0.0252
12994TIP3    H160397   3.102   0.339  12.690  0.8794 -0.1047 -1.9730
12994TIP3    H260398   3.103   0.200  12.629 -1.9518 -1.2300  0.3147
12995TIP3   OH260399   5.474   2.470  16.275  0.0586  0.6720  0.5895
12995TIP3    H160400   5.484   2.378  16.297 -1.9214  0.1431 -0.4749
12995TIP3    H260401   5.469   2.515  16.359  1.7662 -0.0702  1.1181
12996TIP3   OH260402   1.377   3.748  14.191 -0.0175  0.2407 -0.2427
12996TIP3    H160403   1.300   3.803  14.207 -0.6475 -0.9451  1.0976
12996TIP3    H260404   1.420   3.743  14.277 -0.0877 -1.4794 -0.2792
12997TIP3   OH260405   1.678   5.269  11.728  0.0922 -0.3302  0.3799
12997TIP3    H160406   1.630   5.266  11.811  1.4783  1.8732  1.3540
12997TIP3    H260407   1.727   5.351  11.732  1.4944 -0.9743 -1.9226
12998TIP3   OH260408   2.150   4.460  15.620  0.2995 -0.1346 -0.0425
12998TIP3    H160409   2.145   4.535  15.679  1.7786  0.3072 -0.4296
12998TIP3    H260410   2.107   4.389  15.667 -0.4015  0.7379  0.6718
12999TIP3   OH260411   2.139   4.385   6.446 -0.0557 -0.5378 -0.3584
12999TIP3    H160412   2.170   4.421   6.529 -0.6112 -0.2578 -0.2716
12999TIP3    H260413   2.073   4.447   6.415 -0.2082 -0.8951 -0.7687
13000TIP3   OH260414   6.260   1.239   5.141  0.9392  0.1465 -0.2117
13000TIP3    H160415   6.271   1.278   5.054  0.0617  0.8588 -0.0179
13000TIP3    H260416   6.330   1.279   5.194  0.9690  0.3279 -0.3883
13001TIP3   OH260417   1.677   1.303   3.074  0.2304  0.4724  0.1008
13001TIP3    H160418   1.727   1.383   3.089 -0.7643  1.2498 -0.6176
13001TIP3    H260419   1.682   1.289   2.979  0.5823 -0.4529  0.2463
13002TIP3   OH260420   1.665   4.798  13.621  0.0539 -0.2916  0.1883
13002TIP3    H160421   1.682   4.704  13.626 -0.6312 -0.4542 -0.3106
13002TIP3    H260422   1.577   4.808  13.658  0.1561  0.1682  0.3143
13003TIP3   OH260423   2.887   1.790   1.175 -0.3291 -0.1772 -0.1222
13003TIP3    H160424   2.913   1.716   1.120 -0.1567 -0.6573  0.5947
13003TIP3    H260425   2.841   1.750   1.249 -1.6916  0.5464 -0.5508
13004TIP3   OH260426   0.625   4.052  12.985 -0.4209 -0.3654  0.0334
13004TIP3    H160427   0.539   4.016  13.004 -0.3209 -0.4426  0.3488
13004TIP3    H260428   0.659   3.998  12.914 -0.5070 -0.5227  0.1116
13005TIP3   OH260429   3.400   1.502   1.997  0.0546  0.2387 -0.7076
13005TIP3    H160430   3.365   1.460   2.076  0.0136  0.2618 -0.7135
13005TIP3    H260431   3.476   1.449   1.974  0.6019  0.7613 -0.1337
13006TIP3   OH260432   3.684   0.278   0.414 -0.0995  0.0737  0.0185
13006TIP3    H160433   3.676   0.353   0.473 -1.1976  0.0371 -0.0630
13006TIP3    H260434   3.622   0.297   0.344 -2.8130 -2.3497  1.5587
13007TIP3   OH260435   2.574   2.383   1.905 -0.1518 -0.1353 -0.2862
13007TIP3    H160436   2.590   2.316   1.839  0.7309 -0.2878  0.0588
13007TIP3    H260437   2.479   2.386   1.914 -0.2231 -1.0949 -0.5612
13008TIP3   OH260438   4.184   3.097  16.240  0.9525 -0.5579 -0.6439
13008TIP3    H160439   4.168   3.008  16.210  0.7985  0.3179 -3.4896
13008TIP3    H260440   4.235   3.137  16.169 -0.3512  2.0375 -0.2439
13009TIP3   OH260441   0.848   0.033   6.317  0.0466  0.4675 -0.1190
13009TIP3    H160442   0.914   0.059   6.253  1.5246 -0.1781  1.0450
13009TIP3    H260443   0.833  -0.060   6.300  0.0790  0.4119  0.1425
13010TIP3   OH260444   0.413   2.320   1.804  0.4499  0.5754 -0.2757
13010TIP3    H160445   0.318   2.310   1.792  0.6254 -0.3368 -0.9870
13010TIP3    H260446   0.442   2.368   1.727  0.6120  0.5826 -0.2107
13011TIP3   OH260447   0.055   4.284  15.790  0.0497 -0.0310 -0.3589
13011TIP3    H160448   0.036   4.345  15.861  1.5428 -1.0612  0.9767
13011TIP3    H260449  -0.031   4.264  15.752 -0.6876  1.1549  0.6172
13012TIP3   OH260450   4.367   5.081   4.892 -0.3826 -0.0335 -0.4267
13012TIP3    H160451   4.325   5.161   4.923  1.6387  1.1391 -0.5390
13012TIP3    H260452   4.355   5.018   4.963 -0.0830  1.0764  0.6295
13013TIP3   OH260453   4.615   5.967  17.150 -0.2779  0.0106 -0.2416
13013TIP3    H160454   4.563   6.033  17.196  2.4646  2.1930 -0.0293
13013TIP3    H260455   4.586   5.971  17.059 -0.0326  1.6987 -0.2666
13014TIP3   OH260456   4.687   1.250  15.958  0.2944 -0.0751  0.8326
13014TIP3    H160457   4.717   1.223  16.045 -1.1468 -1.2440  0.9951
13014TIP3    H260458   4.623   1.319  15.976  2.3899  2.1324  0.4976
13015TIP3   OH260459   1.210   1.477   3.736 -0.1330  0.3614 -0.2095
13015TIP3    H160460   1.120   1.500   3.761  0.1233  1.5634 -0.3255
13015TIP3    H260461   1.200   1.409   3.670 -1.0184  1.3617 -1.1399
13016TIP3   OH260462   6.670   3.734  13.079 -0.3846  0.6673 -0.5387
13016TIP3    H160463   6.601   3.690  13.029 -2.8102  0.8291  2.3492
13016TIP3    H260464   6.625   3.808  13.120  2.2617  2.5017 -0.7544
13017TIP3   OH260465   2.012   4.482   0.068  0.9123 -0.3273 -0.1773
13017TIP3    H160466   1.924   4.449   0.051  0.6060  0.3786 -0.0169
13017TIP3    H260467   2.026   4.466   0.161  1.8492 -2.4690 -0.6199
13018TIP3   OH260468   1.280   5.145  16.563 -0.8027 -0.2995  0.4166
13018TIP3    H160469   1.365   5.189  16.560 -0.5832 -0.7398 -2.3851
13018TIP3    H260470   1.222   5.208  16.607  0.1621  1.6100 -0.9182
13019TIP3   OH260471   5.414   0.751  15.562 -0.0967  0.2791  0.0499
13019TIP3    H160472   5.458   0.666  15.562  0.1509  0.3072  2.8850
13019TIP3    H260473   5.321   0.730  15.566 -0.2546  0.2220 -2.4057
13020TIP3   OH260474   6.270   4.773  11.384  0.0992 -0.3660 -0.4720
13020TIP3    H160475   6.232   4.823  11.456  0.6090  1.4588 -1.4305
13020TIP3    H260476   6.224   4.689  11.387 -1.2434  0.3687  0.7905
13021TIP3   OH260477   6.251   2.516  12.390  0.0432  0.4757 -0.2690
13021TIP3    H160478   6.250   2.558  12.476  0.1787  1.0907 -0.5629
13021TIP3    H260479   6.328   2.459  12.393 -0.8505 -0.7343  0.5832
13022TIP3   OH260480   0.335   4.121   5.986  0.5269  0.0787  0.0201
13022TIP3    H160481   0.327   4.048   5.925 -0.4443  1.0401 -1.0733
13022TIP3    H260482   0.377   4.084   6.063 -1.0218 -1.9279 -0.0079
13023TIP3   OH260483   4.149   3.887   5.694 -0.4756  0.6331  0.5099
13023TIP3    H160484   4.151   3.964   5.636  0.3454  1.1271  1.1797
13023TIP3    H260485   4.227   3.837   5.669  0.7627  1.6278  2.1954
13024TIP3   OH260486   4.318   3.219   1.538 -0.2751  0.3347 -0.4755
13024TIP3    H160487   4.259   3.221   1.613  0.7147 -0.1043  0.3313
13024TIP3    H260488   4.393   3.272   1.563 -0.1669  0.6287 -1.3683
13025TIP3   OH260489   4.073   3.700   0.336 -0.1450  0.0294  0.8562
13025TIP3    H160490   3.991   3.725   0.294  0.4370 -0.3866 -0.5619
13025TIP3    H260491   4.141   3.726   0.274  0.9398  1.8406  2.6648
13026TIP3   OH260492   6.445   5.619   2.242  0.0684 -0.0419 -0.0170
13026TIP3    H160493   6.485   5.688   2.190  1.7582  0.1832  1.4752
13026TIP3    H260494   6.406   5.559   2.178  0.4710  1.1514 -1.4178
13027TIP3   OH260495   5.449   6.120  14.606 -0.1220 -0.8825 -0.1102
13027TIP3    H160496   5.529   6.143  14.560 -0.7332 -1.9413 -1.8182
13027TIP3    H260497   5.381   6.173  14.564 -0.7888 -2.3046 -0.8986
13028TIP3   OH260498   0.052   3.480  12.484  0.3191 -0.5837 -0.0387
13028TIP3    H160499   0.049   3.560  12.431  3.6364  0.1890  0.7175
13028TIP3    H260500  -0.005   3.497  12.558  1.2147  1.2442  0.2626
13029TIP3   OH260501   1.927   6.102  15.196 -0.2907 -0.1281 -0.3902
13029TIP3    H160502   1.888   6.169  15.252 -0.1957 -0.4928  0.1129
13029TIP3    H260503   2.004   6.144  15.159  0.3634 -0.2920  0.7474
13030TIP3   OH260504   0.657   0.905   2.942  0.7686  0.0218 -0.3490
13030TIP3    H160505   0.611   0.961   3.004 -1.3975 -2.1989  0.2234
13030TIP3    H260506   0.748   0.905   2.971 -0.4135 -2.4182  4.2172
13031TIP3   OH260507   2.913   0.986  15.500 -0.2953 -0.0635 -0.3467
13031TIP3    H160508   2.845   1.002  15.434  1.0182  0.9773 -1.5045
13031TIP3    H260509   2.987   1.039  15.472  0.6762 -0.3854  1.4347
13032TIP3   OH260510   0.432   5.600  11.422  0.7271 -0.1787  0.4283
13032TIP3    H160511   0.501   5.652  11.463  1.7357  1.2260 -2.6690
13032TIP3    H260512   0.363   5.664  11.402 -0.8224 -1.2616  1.9778
13033TIP3   OH260513   6.721   0.005   2.423  0.3106 -0.2199 -0.3029
13033TIP3    H160514   6.626  -0.002   2.412  0.1900  1.5952 -0.8539
13033TIP3    H260515   6.732   0.034   2.513  0.4317 -1.4333  0.0913
13034TIP3   OH260516   3.792   6.182   0.144  0.1494 -0.6885 -0.3912
13034TIP3    H160517   3.723   6.191   0.209 -0.2797 -0.6842 -0.8430
13034TIP3    H260518   3.773   6.250   0.079  2.8045  2.0597  1.4266
13035TIP3   OH260519   1.718   2.702   1.632  0.2802 -0.3849 -0.6615
13035TIP3    H160520   1.718   2.622   1.579  2.8305  0.7821 -2.6759
13035TIP3    H260521   1.715   2.773   1.568 -0.2288  1.1577  0.9845
13036TIP3   OH260522   5.816   3.197  12.353 -0.0439 -0.1011 -0.5691
13036TIP3    H160523   5.880   3.130  12.377  0.0925  0.2925  0.2187
13036TIP3    H260524   5.869   3.270  12.321  0.0345  0.7275  1.2967
13037TIP3   OH260525   5.341   5.614   3.113  0.3863  0.4261 -0.0645
13037TIP3    H160526   5.251   5.645   3.117  0.4291  0.4834  0.6949
13037TIP3    H260527   5.386   5.675   3.055 -0.0609  0.3960 -0.4443
13038TIP3   OH260528   5.975   3.605   2.637  0.4883 -0.3364 -0.1606
13038TIP3    H160529   6.032   3.575   2.707  2.0854 -1.4819 -1.8742
13038TIP3    H260530   5.957   3.527   2.585 -0.4773  0.5123 -1.1604
13039TIP3   OH260531   5.025   4.043  16.132 -1.0739 -0.0648 -0.0387
13039TIP3    H160532   5.058   4.121  16.088  3.6947 -1.2599  0.8676
13039TIP3    H260533   5.017   4.068  16.224  0.5036 -0.5555  0.2615
13040TIP3   OH260534   5.061   3.110   5.252  0.4591 -0.1189 -0.2316
13040TIP3    H160535   5.076   3.015   5.255  3.3081  0.2489  2.0345
13040TIP3    H260536   5.015   3.129   5.334 -0.6092  0.4490 -0.9417
13041TIP3   OH260537   4.547   3.028  13.540 -0.5254 -0.0617  0.1331
13041TIP3    H160538   4.613   2.964  13.511 -1.0525 -0.1257 -0.9962
13041TIP3    H260539   4.509   3.061  13.458 -0.0993  1.8973  0.6593
13042TIP3   OH260540   4.228   6.487  12.372 -0.0688  0.1071  0.1055
13042TIP3    H160541   4.177   6.407  12.379  1.1457 -1.0636 -2.6943
13042TIP3    H260542   4.165   6.558  12.384 -1.9187 -1.2817 -0.9186
13043TIP3   OH260543   2.473   5.763   4.237 -1.0212  0.1616 -0.4187
13043TIP3    H160544   2.466   5.707   4.314  0.7788 -2.0791 -1.7630
13043TIP3    H260545   2.387   5.760   4.196 -1.7411  0.6874  0.9902
13044TIP3   OH260546   4.822   4.189  12.171  0.0521 -0.3035  0.0098
13044TIP3    H160547   4.901   4.156  12.126 -0.1721 -1.6979  0.5763
13044TIP3    H260548   4.791   4.114  12.222  0.5700  1.3111  2.9035
13045TIP3   OH260549   0.810   1.495   2.833 -0.0897 -0.0376  0.0432
13045TIP3    H160550   0.808   1.468   2.925 -1.7886 -0.8732 -0.1948
13045TIP3    H260551   0.829   1.415   2.785 -1.5962 -0.1355 -0.4512
13046TIP3   OH260552   2.635   0.781  13.864 -0.2149  0.0778  0.0896
13046TIP3    H160553   2.564   0.813  13.919 -0.2306 -0.5549  0.4419
13046TIP3    H260554   2.664   0.700  13.905  1.1787  0.6671  0.3346
13047TIP3   OH260555   1.961   6.190  13.607 -0.6249 -0.3480 -0.0398
13047TIP3    H160556   2.050   6.156  13.603 -0.2127  0.6798 -0.1270
13047TIP3    H260557   1.916   6.150  13.533 -0.0435 -0.3723 -0.3918
13048TIP3   OH260558   6.202   4.779  17.061  0.4125  0.0677  0.9420
13048TIP3    H160559   6.272   4.772  16.996  0.8118 -1.0224  1.4781
13048TIP3    H260560   6.176   4.689  17.079 -1.0117  0.4357  0.9014
13049TIP3   OH260561   3.232   3.663   3.954 -0.0954  0.7205  0.2662
13049TIP3    H160562   3.264   3.657   3.864 -1.9475 -1.0551 -0.3559
13049TIP3    H260563   3.303   3.705   4.002  2.1092 -0.7973 -1.4800
13050TIP3   OH260564   6.213   5.252  12.923  0.3218  0.1762 -0.6009
13050TIP3    H160565   6.181   5.304  12.997  2.1965 -1.6565  1.6507
13050TIP3    H260566   6.170   5.167  12.933 -0.4091  0.2655 -2.4771
13051TIP3   OH260567   1.173   2.258   1.488 -0.5615  0.4629  0.5978
13051TIP3    H160568   1.175   2.238   1.394 -1.0310  0.0953  0.6580
13051TIP3    H260569   1.102   2.204   1.522  0.5994 -0.5886  1.4410
13052TIP3   OH260570   5.220   0.591  12.415  0.2317  0.3861  0.5836
13052TIP3    H160571   5.251   0.654  12.350 -0.1281 -0.5229 -0.4931
13052TIP3    H260572   5.163   0.642  12.472  0.9121  1.3024  0.4698
13053TIP3   OH260573   1.284   2.403  14.900  0.7687  0.4414 -0.4337
13053TIP3    H160574   1.379   2.416  14.905  0.9831 -0.0539 -2.5528
13053TIP3    H260575   1.265   2.340  14.969  1.6969  1.7682  1.1191
13054TIP3   OH260576   4.540   2.386  12.157 -0.3511  0.0662  0.3653
13054TIP3    H160577   4.528   2.297  12.122 -0.6952  0.3666 -0.2990
13054TIP3    H260578   4.568   2.372  12.248 -1.4522 -0.7231  0.6084
13055TIP3   OH260579   0.560   3.395   1.444  0.0283  0.0013 -0.7667
13055TIP3    H160580   0.476   3.350   1.447  0.3133 -0.5199 -0.4052
13055TIP3    H260581   0.610   3.350   1.376  0.2422 -0.1013 -0.5444
13056TIP3   OH260582   1.937   3.327   1.116  0.2221 -0.3782 -0.7844
13056TIP3    H160583   2.011   3.270   1.138  0.0848  0.5106  2.3833
13056TIP3    H260584   1.873   3.312   1.186 -1.1505  1.4009 -1.5740
13057TIP3   OH260585   3.122   2.652  16.786  0.4512  0.1946 -0.1547
13057TIP3    H160586   3.063   2.716  16.825  0.5034  0.5065 -0.5741
13057TIP3    H260587   3.207   2.697  16.783  0.1868  0.6518 -1.7518
13058TIP3   OH260588   5.890   0.620  12.561 -1.0481  0.4990  0.4855
13058TIP3    H160589   5.948   0.591  12.490  1.5188  2.3452  1.6722
13058TIP3    H260590   5.840   0.692  12.523  1.2418  2.3595  0.7409
13059TIP3   OH260591   4.369   2.033   4.786 -0.7362 -0.2051  0.2386
13059TIP3    H160592   4.309   2.068   4.720  2.1241  2.8761 -1.0102
13059TIP3    H260593   4.411   1.959   4.743 -0.2466  0.6139 -0.7206
13060TIP3   OH260594   4.585   3.801  16.097 -0.3387 -0.2503  0.1155
13060TIP3    H160595   4.622   3.715  16.074  1.7975  0.7171 -0.3067
13060TIP3    H260596   4.612   3.814  16.188 -1.0702 -0.2238  0.3304
13061TIP3   OH260597   5.980   5.702   4.911 -0.7190 -0.4250  0.2423
13061TIP3    H160598   6.042   5.634   4.885  0.2287  0.2370  0.6977
13061TIP3    H260599   6.029   5.757   4.972 -1.3959  0.7590 -0.2474
13062TIP3   OH260600   2.802   3.547   1.122 -0.3881 -0.0304 -0.6103
13062TIP3    H160601   2.710   3.564   1.144 -0.0769  1.1033 -0.1178
13062TIP3    H260602   2.845   3.632   1.134  0.9836 -0.8407  0.4648
13063TIP3   OH260603   5.283   6.667  11.812  0.2203  0.5558  0.0344
13063TIP3    H160604   5.292   6.739  11.749 -1.0714 -0.1582 -1.0065
13063TIP3    H260605   5.371   6.632  11.821  0.6051  1.3250 -0.5856
13064TIP3   OH260606   4.598   0.593  16.589  0.2691  0.4336 -0.5265
13064TIP3    H160607   4.588   0.670  16.644  0.8018  0.7300 -0.8467
13064TIP3    H260608   4.639   0.528  16.645 -2.4465 -0.5138  0.5549
13065TIP3   OH260609   1.880   0.313  11.611 -0.0104 -0.4756  0.2420
13065TIP3    H160610   1.883   0.361  11.528 -1.3233  0.9465  0.9719
13065TIP3    H260611   1.945   0.355  11.666  0.8768 -1.4357 -0.0416
13066TIP3   OH260612   4.186   2.228   0.667 -0.4076 -0.0457 -1.0730
13066TIP3    H160613   4.197   2.149   0.718  0.3520 -1.0048 -2.6426
13066TIP3    H260614   4.129   2.283   0.720  1.2743 -0.4472  1.3457
13067TIP3   OH260615   5.711   1.522   6.528 -0.1558  0.2539 -0.8574
13067TIP3    H160616   5.697   1.613   6.556 -0.0289  0.3476 -1.0995
13067TIP3    H260617   5.625   1.493   6.499 -0.5876 -0.2527  0.7956
13068TIP3   OH260618   4.039   6.173   1.257  0.6463  0.3506  0.2749
13068TIP3    H160619   3.993   6.123   1.324  2.0198 -0.5131  0.6160
13068TIP3    H260620   3.996   6.149   1.175  0.8172 -0.8640  0.5216
13069TIP3   OH260621   4.059   4.275   1.299 -0.7035  0.5593  0.2927
13069TIP3    H160622   4.068   4.333   1.224  0.1865  0.5221  0.3574
13069TIP3    H260623   4.106   4.195   1.274 -1.5502  0.0245  0.3674
13070TIP3   OH260624   2.590   5.687  11.242  0.1251  0.1869  0.7950
13070TIP3    H160625   2.591   5.663  11.334 -0.3254  0.8479  0.9822
13070TIP3    H260626   2.564   5.779  11.242  3.1529  1.1675  0.2281
13071TIP3   OH260627   2.887   2.155   2.119  0.6636  0.2518 -0.3444
13071TIP3    H160628   2.955   2.108   2.168  0.7867  0.5572 -0.2205
13071TIP3    H260629   2.917   2.245   2.116 -0.3174  0.6430  0.7709
13072TIP3   OH260630   3.442   5.566  11.282  0.2622  0.0096 -0.0269
13072TIP3    H160631   3.427   5.590  11.191 -2.1114 -1.6572 -0.1451
13072TIP3    H260632   3.359   5.530  11.312  2.0377 -3.1786  1.6072
13073TIP3   OH260633   4.582   5.447  14.186  0.0946 -0.1311 -0.5856
13073TIP3    H160634   4.626   5.362  14.189  4.0483  1.7157  0.6308
13073TIP3    H260635   4.605   5.483  14.100 -1.5241 -0.1990 -1.0822
13074TIP3   OH260636   4.300   3.337   0.615 -0.0977 -0.3500  0.3366
13074TIP3    H160637   4.353   3.380   0.682  0.4439  0.5375 -0.6312
13074TIP3    H260638   4.245   3.275   0.664  0.3792  0.1674  1.5721
13075TIP3   OH260639   2.864   2.147  14.499 -0.3667  0.1685 -0.3734
13075TIP3    H160640   2.871   2.239  14.473  1.0256 -0.1265 -1.1677
13075TIP3    H260641   2.866   2.099  14.416 -1.2849 -0.5758  0.0241
13076TIP3   OH260642   5.382   3.715  15.616  0.0487 -0.1173  0.2029
13076TIP3    H160643   5.382   3.794  15.561 -0.2521 -0.7906 -0.7933
13076TIP3    H260644   5.445   3.656  15.574 -0.3075 -0.7082  0.4818
13077TIP3   OH260645   4.761   1.101   5.940  0.3694 -0.0927 -0.2997
13077TIP3    H160646   4.736   1.121   5.850 -0.5130 -0.0143 -0.0490
13077TIP3    H260647   4.790   1.184   5.976 -1.4197  0.3736  0.1497
13078TIP3   OH260648   2.028   4.427   0.335 -0.5453 -0.0682  0.0257
13078TIP3    H160649   1.992   4.478   0.408 -0.6449  0.5341 -0.4391
13078TIP3    H260650   2.122   4.423   0.353 -0.7311 -1.0381  0.8676
13079TIP3   OH260651   1.833   5.182   5.316  0.0408  0.2652  0.2926
13079TIP3    H160652   1.876   5.128   5.251  1.8396  0.2359  1.4520
13079TIP3    H260653   1.894   5.254   5.332 -1.0849  1.1404  0.7799
13080TIP3   OH260654   3.499   1.248   6.162 -0.7549  0.2927  0.0596
13080TIP3    H160655   3.544   1.305   6.224 -0.4125 -0.2567  0.3289
13080TIP3    H260656   3.568   1.220   6.101 -0.6290 -0.8268  0.6778
13081TIP3   OH260657   2.491   4.835   4.300 -0.0036 -0.2983 -0.4677
13081TIP3    H160658   2.555   4.786   4.350  1.6774  1.8197 -0.3949
13081TIP3    H260659   2.410   4.826   4.350  0.4141 -2.2560 -0.0632
13082TIP3   OH260660   6.596   2.938   3.602 -0.1832  0.1827 -0.0248
13082TIP3    H160661   6.548   2.984   3.670 -2.5235 -0.2654 -1.2624
13082TIP3    H260662   6.540   2.864   3.579  1.8766 -1.3347 -0.4730
13083TIP3   OH260663   2.486   1.530   5.048  0.4216 -0.1991 -0.2094
13083TIP3    H160664   2.449   1.513   4.962 -1.6065  0.3343  0.5050
13083TIP3    H260665   2.512   1.444   5.081 -0.4663 -0.6301 -0.6238
13084TIP3   OH260666   3.596   0.898  12.672 -0.1529  0.5392  0.5948
13084TIP3    H160667   3.600   0.810  12.709 -0.2444  1.1616  2.1447
13084TIP3    H260668   3.660   0.896  12.600 -0.6469 -0.9690  0.1645
13085TIP3   OH260669   3.318   5.574   0.304  0.5841  0.9776 -0.3561
13085TIP3    H160670   3.232   5.532   0.312  1.0278  0.0814 -0.1654
13085TIP3    H260671   3.300   5.667   0.317 -0.2505  0.7183  0.4855
13086TIP3   OH260672   2.733   1.346   2.567 -0.1158  0.1688  0.2974
13086TIP3    H160673   2.743   1.312   2.478 -4.8015 -1.0210 -0.0342
13086TIP3    H260674   2.714   1.269   2.620  0.5583  1.0887  1.9351
13087TIP3   OH260675   2.382   6.590  15.477  0.1208 -0.2575 -0.1772
13087TIP3    H160676   2.463   6.611  15.429 -0.7517  0.3787 -1.4289
13087TIP3    H260677   2.346   6.515  15.430 -0.7928  0.4236 -0.5813
13088TIP3   OH260678   4.604   2.381   2.990 -0.2567 -0.4584 -0.4285
13088TIP3    H160679   4.552   2.345   2.918 -0.2428  0.3578 -0.8538
13088TIP3    H260680   4.637   2.464   2.956  0.2835 -0.3770  0.2934
13089TIP3   OH260681   6.012   3.176   1.107  0.2114  0.9868 -0.2738
13089TIP3    H160682   6.017   3.214   1.020 -0.2495  0.8614 -0.3563
13089TIP3    H260683   5.920   3.152   1.118  0.0905  1.7969  0.5829
13090TIP3   OH260684   2.641   1.231   4.695 -0.6534 -0.5253  0.2636
13090TIP3    H160685   2.627   1.137   4.708  1.4591 -0.7971  1.1995
13090TIP3    H260686   2.709   1.236   4.628 -0.6002  0.3226  0.3684
13091TIP3   OH260687   4.679   6.213   4.140  0.5549  0.1718 -0.2828
13091TIP3    H160688   4.642   6.294   4.176  1.7304  0.4564  0.3281
13091TIP3    H260689   4.725   6.241   4.061  1.5435  0.2151  0.3020
13092TIP3   OH260690   1.168   3.348   0.014  0.4441  0.2269  0.0986
13092TIP3    H160691   1.150   3.436  -0.020  0.8959  0.1042 -0.4714
13092TIP3    H260692   1.223   3.307  -0.053 -0.4480 -0.7928 -0.0258
13093TIP3   OH260693   5.099   0.602   3.392 -0.1205 -0.3958 -0.3261
13093TIP3    H160694   5.058   0.616   3.477 -0.4051  1.8128 -0.7806
13093TIP3    H260695   5.027   0.597   3.330  0.0987 -1.7626 -0.5156
13094TIP3   OH260696   0.299   0.587  13.946 -0.0233 -0.0362 -0.3707
13094TIP3    H160697   0.285   0.553  13.858 -1.1025  1.0517 -0.6474
13094TIP3    H260698   0.283   0.681  13.938 -1.4081 -0.0919  1.2346
13095TIP3   OH260699   1.930   5.201   5.808  0.1788 -0.0305 -0.1543
13095TIP3    H160700   1.963   5.270   5.750  0.3330  0.4827  0.5379
13095TIP3    H260701   2.002   5.183   5.868 -0.3182  0.1469  0.5120
13096TIP3   OH260702   6.450   2.633   1.618  0.4287  0.2367  0.5332
13096TIP3    H160703   6.522   2.579   1.649  0.4493 -0.6559 -0.9884
13096TIP3    H260704   6.377   2.572   1.609  0.1277  0.6816 -0.1027
13097TIP3   OH260705   0.404   6.380  16.646 -0.0038  0.0381  0.0597
13097TIP3    H160706   0.374   6.334  16.724  1.5953 -1.5084 -0.1571
13097TIP3    H260707   0.355   6.339  16.574 -1.7143  1.6801  0.2042
13098TIP3   OH260708   2.330   3.300  11.398  0.0615  0.2690  0.6289
13098TIP3    H160709   2.399   3.335  11.342 -1.5045 -1.2073 -2.4960
13098TIP3    H260710   2.353   3.207  11.408  0.6268  0.6284  3.0503
13099TIP3   OH260711   1.744   5.065   3.583 -0.1922  0.7360 -0.0430
13099TIP3    H160712   1.836   5.091   3.580  1.1708 -3.3266 -2.2027
13099TIP3    H260713   1.728   5.025   3.497 -3.6639  0.3500  0.6462
13100TIP3   OH260714   6.600   5.611   4.789  0.1005  0.4453  0.1138
13100TIP3    H160715   6.627   5.521   4.769  0.2105 -0.1049  2.3513
13100TIP3    H260716   6.664   5.640   4.854  0.0966  2.1851 -0.6302
13101TIP3   OH260717   6.180   1.614  16.157  0.0156  0.5819  0.2248
13101TIP3    H160718   6.116   1.553  16.120 -1.0417  1.1298  1.1154
13101TIP3    H260719   6.173   1.602  16.252  0.4067  1.4717  0.3747
13102TIP3   OH260720   3.949   5.632  14.957  0.5425  0.0264  0.2435
13102TIP3    H160721   3.910   5.609  14.873 -0.4709  0.5395  0.5577
13102TIP3    H260722   3.881   5.610  15.022  0.3117  1.9571  0.7115
13103TIP3   OH260723   4.484   6.535   2.822 -0.1911  0.2612 -0.1554
13103TIP3    H160724   4.402   6.492   2.801  0.8304 -1.1251 -1.4781
13103TIP3    H260725   4.500   6.512   2.914  1.1384 -3.8254 -1.1956
13104TIP3   OH260726   4.152   6.776  13.147  0.0760 -0.5246  0.3468
13104TIP3    H160727   4.212   6.709  13.178  1.0921  0.1289 -0.1849
13104TIP3    H260728   4.068   6.753  13.189  0.4044 -2.0661  0.2307
13105TIP3   OH260729   6.637   3.417   2.701 -0.3738  0.1321 -0.2771
13105TIP3    H160730   6.623   3.352   2.632 -1.5700  1.1876 -1.0705
13105TIP3    H260731   6.572   3.394   2.768  1.8174 -1.8547  1.3023
13106TIP3   OH260732   2.555   0.122   6.030 -0.0331 -0.0540  0.0642
13106TIP3    H160733   2.528   0.208   6.062 -0.5436 -0.3478  0.4431
13106TIP3    H260734   2.528   0.061   6.099  0.6333 -0.4784 -0.0441
13107TIP3   OH260735   1.752   3.020  16.782 -0.0266 -0.4888 -0.6042
13107TIP3    H160736   1.688   3.086  16.809  1.2425  0.1254  1.1630
13107TIP3    H260737   1.746   2.952  16.850  2.5728  0.5982  0.8782
13108TIP3   OH260738   1.566   0.855   6.383  0.3057 -0.3271  0.1199
13108TIP3    H160739   1.561   0.951   6.384  0.9138 -0.2591 -1.2349
13108TIP3    H260740   1.642   0.835   6.437 -0.9352 -0.1719  1.9943
13109TIP3   OH260741   5.698   4.464  10.419  0.5173 -0.3265 -0.0783
13109TIP3    H160742   5.755   4.465  10.343  0.4933 -0.8295 -0.1031
13109TIP3    H260743   5.701   4.374  10.451 -0.7497 -0.5261 -0.4466
13110TIP3   OH260744   2.755   0.117  11.250  0.0009  0.4440 -0.2682
13110TIP3    H160745   2.803   0.198  11.262  1.7653 -0.5012 -0.5987
13110TIP3    H260746   2.819   0.048  11.267 -1.4320 -0.8853 -0.0331
13111TIP3   OH260747   3.100   6.321   4.586  0.2397  0.1336  0.1199
13111TIP3    H160748   3.042   6.347   4.515 -0.6376 -0.6166  0.5347
13111TIP3    H260749   3.111   6.227   4.575  0.0519 -0.0031  0.9941
13112TIP3   OH260750   4.758   3.032   1.712  0.1215  0.1856  0.6099
13112TIP3    H160751   4.674   3.020   1.668 -0.1172  2.0319  0.4988
13112TIP3    H260752   4.790   3.116   1.680  1.4725  0.0499  1.5317
13113TIP3   OH260753   0.746   0.516  16.725  0.1851  0.7534 -0.1754
13113TIP3    H160754   0.685   0.587  16.708  1.0153  1.5822  0.2656
13113TIP3    H260755   0.798   0.545  16.799  1.1169  0.0603 -0.5289
13114TIP3   OH260756   0.113   2.118  11.608  0.2451  0.0592 -0.0082
13114TIP3    H160757   0.044   2.168  11.652  0.2429  0.8608 -0.9131
13114TIP3    H260758   0.066   2.050  11.560  0.1525  0.0487  0.0953
13115TIP3   OH260759   1.785   0.670   0.473 -0.2590 -0.4644  0.3486
13115TIP3    H160760   1.804   0.755   0.513 -1.0573 -0.0099 -0.2004
13115TIP3    H260761   1.756   0.692   0.384  2.3421 -1.4735 -0.8834
13116TIP3   OH260762   6.367   2.759  14.656 -0.0292  0.4126 -0.4934
13116TIP3    H160763   6.329   2.671  14.657 -0.5090  0.6231  0.1754
13116TIP3    H260764   6.292   2.818  14.662  0.3953  0.8390  1.1246
13117TIP3   OH260765   5.836   0.238  13.484 -0.0823  0.4123 -0.3141
13117TIP3    H160766   5.907   0.224  13.547  1.5749 -0.6523 -2.3042
13117TIP3    H260767   5.764   0.184  13.517  0.5950  0.1907  0.8748
13118TIP3   OH260768   0.577   0.244   4.958 -0.4585 -0.0296 -0.3296
13118TIP3    H160769   0.632   0.306   5.006  0.6830  0.2148 -1.8926
13118TIP3    H260770   0.521   0.298   4.903 -1.6602 -0.3116  0.5817
13119TIP3   OH260771   0.659   5.093   5.740 -0.1822  0.0597  0.3622
13119TIP3    H160772   0.700   5.014   5.705  2.1054  0.2238  2.3979
13119TIP3    H260773   0.613   5.063   5.819 -0.6695  0.5392  0.2698
13120TIP3   OH260774   4.808   0.445   2.447  0.9957 -0.0585 -0.4794
13120TIP3    H160775   4.723   0.479   2.420  1.4320 -0.6608 -2.7956
13120TIP3    H260776   4.790   0.357   2.480  0.6566  0.0449 -0.3924
13121TIP3   OH260777   6.196   2.456  17.143  0.3203  0.4689 -0.5262
13121TIP3    H160778   6.118   2.408  17.169  0.3356  1.1515  0.8735
13121TIP3    H260779   6.172   2.548  17.154  0.9730  0.7199 -1.1296
13122TIP3   OH260780   6.076   2.110   4.299  0.6798  0.0613  0.4935
13122TIP3    H160781   6.116   2.057   4.368 -1.5468  0.8478  2.5297
13122TIP3    H260782   6.030   2.180   4.345 -1.4820  0.2767 -1.7152
13123TIP3   OH260783   6.266   2.164   4.114  0.0695  0.1101  0.5408
13123TIP3    H160784   6.275   2.258   4.129 -0.4181  0.3304 -0.4331
13123TIP3    H260785   6.193   2.137   4.169 -0.9618  0.6731 -0.4955
13124TIP3   OH260786   3.727   4.046  10.744 -0.3599  0.2399  0.0270
13124TIP3    H160787   3.746   3.956  10.717  1.7607  0.2009  1.4171
13124TIP3    H260788   3.633   4.055  10.733 -0.4176 -1.6513 -1.5613
13125TIP3   OH260789   6.099   2.497  16.743  0.3556  0.2735 -0.0189
13125TIP3    H160790   6.071   2.519  16.654  0.5593  3.1601  0.5272
13125TIP3    H260791   6.021   2.514  16.797  0.8295  0.5845  0.5814
13126TIP3   OH260792   0.651   2.828  15.149 -0.1127  0.0438 -0.0664
13126TIP3    H160793   0.735   2.835  15.196 -0.0869 -1.3384  0.1372
13126TIP3    H260794   0.671   2.773  15.074 -0.5169  0.9648 -0.8659
13127TIP3   OH260795   5.452   1.930   0.098 -0.3061 -0.5145 -0.0529
13127TIP3    H160796   5.491   2.001   0.148  0.7824  0.0836 -1.7013
13127TIP3    H260797   5.380   1.899   0.154 -0.0533  1.0608  1.2285
13128TIP3   OH260798   0.765   0.607  14.330  0.6813 -0.3219  0.5776
13128TIP3    H160799   0.724   0.693  14.321  0.6322 -0.4159 -0.2250
13128TIP3    H260800   0.848   0.624  14.375  0.7908  0.1886  0.1964
13129TIP3   OH260801   6.073   2.686  11.344  0.1928 -0.1542 -0.6591
13129TIP3    H160802   6.106   2.596  11.347 -3.1830 -1.5033  0.8049
13129TIP3    H260803   6.040   2.696  11.255 -0.0950 -0.6955 -0.6237
13130TIP3   OH260804   6.481   6.201  11.902 -0.3204  0.1879 -0.2749
13130TIP3    H160805   6.491   6.279  11.847  1.0712 -0.7472 -1.4483
13130TIP3    H260806   6.389   6.177  11.895 -1.0573  2.3680  1.0811
13131TIP3   OH260807   1.998   5.130  16.970 -0.7777  0.2704  0.2358
13131TIP3    H160808   2.060   5.072  17.015  0.2465  0.3378 -1.0280
13131TIP3    H260809   2.014   5.216  17.009  0.6702  0.4874 -0.7361
13132TIP3   OH260810   6.277   5.583  14.144 -0.0981  0.3036  0.2437
13132TIP3    H160811   6.197   5.548  14.104  0.0943  1.4554 -1.2097
13132TIP3    H260812   6.259   5.581  14.238 -1.0633 -1.2782  0.0647
13133TIP3   OH260813   2.464   3.656  14.389 -0.0617 -0.2532  0.9649
13133TIP3    H160814   2.397   3.723  14.401  0.4384  0.5265 -0.3829
13133TIP3    H260815   2.492   3.666  14.298  2.6359  0.1884  1.7380
13134TIP3   OH260816   5.344   2.976  13.247  0.2705 -0.0387  0.1509
13134TIP3    H160817   5.338   2.968  13.152  3.8263  1.0719 -0.3304
13134TIP3    H260818   5.299   3.057  13.268  0.7586  0.5102 -0.8428
13135TIP3   OH260819   5.634   1.188   1.398 -0.5558  0.3692 -0.2822
13135TIP3    H160820   5.707   1.182   1.337 -0.9073  0.9138 -0.7631
13135TIP3    H260821   5.581   1.110   1.380 -0.2850  0.1604 -0.1782
13136TIP3   OH260822   1.503   5.261  11.970  0.7483 -0.2106  0.5403
13136TIP3    H160823   1.438   5.192  11.962 -1.4847  1.9652 -2.4622
13136TIP3    H260824   1.485   5.302  12.055  0.3790 -1.6167  1.1663
13137TIP3   OH260825   0.944   1.739   4.817  0.2495 -0.8782 -0.4752
13137TIP3    H160826   0.922   1.647   4.828 -1.5531 -0.2334  2.8152
13137TIP3    H260827   0.928   1.757   4.724 -1.5756 -3.3750 -0.7476
13138TIP3   OH260828   3.350   6.079  10.703 -0.6940  0.0388 -0.1150
13138TIP3    H160829   3.416   6.062  10.770  0.2445 -0.5565 -1.1696
13138TIP3    H260830   3.307   6.160  10.732  0.3101  0.2909  0.7175
13139TIP3   OH260831   4.365   1.508  14.668 -0.8524  0.3975  0.9862
13139TIP3    H160832   4.309   1.479  14.740 -0.0250 -1.9748  0.7499
13139TIP3    H260833   4.338   1.455  14.594  1.7649 -0.9964  0.9020
13140TIP3   OH260834   3.584   1.222  14.822  0.1830 -0.3080  0.4492
13140TIP3    H160835   3.490   1.233  14.833  0.4609  1.1116  1.6033
13140TIP3    H260836   3.614   1.304  14.785  0.8369 -1.1679 -1.0123
13141TIP3   OH260837   1.825   0.703  11.207  0.1914 -0.3016  0.1086
13141TIP3    H160838   1.861   0.641  11.271 -0.0646  2.7620  3.5854
13141TIP3    H260839   1.731   0.704  11.225 -0.0648 -0.2182 -1.1728
13142TIP3   OH260840   1.792   0.952  13.494  0.4759  0.5507 -0.2555
13142TIP3    H160841   1.887   0.960  13.488  0.5556 -0.8206 -1.4851
13142TIP3    H260842   1.776   0.895  13.570  0.7280 -0.1951 -0.7466
13143TIP3   OH260843   5.041   3.028   4.424  0.2732 -0.1007 -0.1021
13143TIP3    H160844   4.972   2.970   4.391 -1.1172  2.0966 -1.3324
13143TIP3    H260845   5.006   3.116   4.410  2.9053  1.0843  0.2966
13144TIP3   OH260846   4.473   6.180  12.946  0.0236 -0.8729  0.2149
13144TIP3    H160847   4.508   6.094  12.922  1.6393 -0.5203  1.1226
13144TIP3    H260848   4.509   6.197  13.033 -0.1817  0.7652  0.0190
13145TIP3   OH260849   1.242   1.545  16.178 -0.6082  0.0904 -0.0533
13145TIP3    H160850   1.301   1.581  16.244 -0.3350  0.8250 -0.6824
13145TIP3    H260851   1.300   1.504  16.114 -0.8590 -0.4391  0.0585
13146TIP3   OH260852   2.117   4.590  14.107  0.1721 -0.5498  0.3738
13146TIP3    H160853   2.165   4.532  14.048  1.7519  0.7331  0.3277
13146TIP3    H260854   2.130   4.552  14.194  0.8598 -0.4976  0.2988
13147TIP3   OH260855   3.975   6.164   3.777 -0.1149  0.3801 -0.2348
13147TIP3    H160856   4.002   6.255   3.767 -2.3252  1.4869  2.3788
13147TIP3    H260857   4.047   6.122   3.823 -0.2050  1.6437  1.1473
13148TIP3   OH260858   0.367   3.551  15.457  0.4224  0.3374  0.5722
13148TIP3    H160859   0.461   3.535  15.469  1.2068  2.1378 -2.2207
13148TIP3    H260860   0.361   3.645  15.438 -2.1228  0.4876  1.7470
13149TIP3   OH260861   0.214   0.462  10.604 -0.5105 -1.0046 -0.0909
13149TIP3    H160862   0.305   0.471  10.575  0.1862 -1.2244  1.8451
13149TIP3    H260863   0.167   0.430  10.527  0.8421  0.0564 -1.4149
13150TIP3   OH260864   0.388   5.787   1.505 -0.3777 -0.0022  0.5835
13150TIP3    H160865   0.441   5.727   1.453 -0.8508 -0.6301  0.8280
13150TIP3    H260866   0.413   5.769   1.595  1.1632  1.7511  0.5821
13151TIP3   OH260867   4.340   5.774  13.473 -0.2519 -0.1749  0.4470
13151TIP3    H160868   4.318   5.855  13.519 -1.0822 -0.2411  0.2008
13151TIP3    H260869   4.271   5.765  13.408  0.4794 -0.4862 -0.2955
13152TIP3   OH260870   2.060   5.570   1.464  0.1063  0.2597  0.2274
13152TIP3    H160871   2.095   5.560   1.375  0.6457 -0.1258  0.4809
13152TIP3    H260872   2.137   5.564   1.521 -0.2484  0.4214  0.7278
13153TIP3   OH260873   1.224   3.368  16.313  0.2408  0.5021  0.2287
13153TIP3    H160874   1.153   3.309  16.289 -0.6843  2.0618 -0.9813
13153TIP3    H260875   1.199   3.402  16.399  0.1067  0.1891  0.3152
13154TIP3   OH260876   1.969   2.188   0.329  0.3717 -0.0677  0.4140
13154TIP3    H160877   1.913   2.121   0.290  0.9955 -0.1021 -0.4384
13154TIP3    H260878   2.047   2.142   0.357  1.5771  0.5220 -1.7529
13155TIP3   OH260879   0.521   5.426   2.014  0.1845 -0.2919 -0.3826
13155TIP3    H160880   0.612   5.402   1.995 -0.3314 -0.7466 -2.5209
13155TIP3    H260881   0.514   5.421   2.110  2.9169  1.6452  0.0456
13156TIP3   OH260882   0.910   0.210   5.073 -0.5668  0.1242  0.7490
13156TIP3    H160883   0.946   0.209   4.984 -1.0417  1.6942  0.5130
13156TIP3    H260884   0.881   0.120   5.088 -1.1638 -0.0018 -0.9858
13157TIP3   OH260885   6.470   5.347   5.566  0.6189  0.5542 -0.2574
13157TIP3    H160886   6.412   5.390   5.504  0.0491 -0.3500 -0.3690
13157TIP3    H260887   6.531   5.297   5.511 -3.2946 -4.9849 -0.3964
13158TIP3   OH260888   5.097   3.895   0.917 -0.1239  0.2059  0.3853
13158TIP3    H160889   5.090   3.973   0.862 -1.0287 -0.5531 -0.6144
13158TIP3    H260890   5.059   3.825   0.865 -1.3183 -0.4961  2.1043
13159TIP3   OH260891   4.896   0.349   5.536 -0.0535  0.1736  0.1597
13159TIP3    H160892   4.979   0.361   5.491 -0.3679 -0.3053 -0.5589
13159TIP3    H260893   4.844   0.426   5.514 -1.2059 -1.2308 -2.5490
13160TIP3   OH260894   1.002   1.649   4.193  0.0679  0.0371  0.3512
13160TIP3    H160895   1.020   1.728   4.244 -1.3875  1.6336 -1.4100
13160TIP3    H260896   1.011   1.577   4.254 -0.9678  1.7710  2.6912
13161TIP3   OH260897   2.945   5.387  11.824 -0.5739  0.0225 -0.1049
13161TIP3    H160898   2.973   5.459  11.880 -1.4431 -0.7736  1.4158
13161TIP3    H260899   2.987   5.309  11.860 -0.7992 -0.4515 -0.8274
13162TIP3   OH260900   4.935   6.404  13.327  0.1621  0.1055  0.4536
13162TIP3    H160901   4.869   6.424  13.261 -1.7286  0.2452  2.2844
13162TIP3    H260902   4.938   6.309  13.330 -1.1612  0.0793  1.4624
13163TIP3   OH260903   5.510   4.182   2.115 -0.1805  0.3592  0.0690
13163TIP3    H160904   5.439   4.120   2.133 -0.0068 -0.0803 -0.6988
13163TIP3    H260905   5.487   4.221   2.030 -0.1478  1.1537  0.4166
13164TIP3   OH260906   0.277   1.980   3.920  0.1183  0.0851 -0.5783
13164TIP3    H160907   0.346   1.965   3.855  0.0384  0.8514 -0.8588
13164TIP3    H260908   0.324   1.998   4.001  0.2178 -1.0151 -0.3802
13165TIP3   OH260909   3.430   0.121   5.216  0.4680 -0.4859  0.8262
13165TIP3    H160910   3.366   0.120   5.288  0.9812  0.3923  1.3242
13165TIP3    H260911   3.514   0.102   5.259  0.8950  0.8030  0.6146
13166TIP3   OH260912   0.328   4.262  12.105 -0.0683 -0.1915  0.4797
13166TIP3    H160913   0.342   4.200  12.033 -0.1511 -1.3561  1.4238
13166TIP3    H260914   0.408   4.314  12.108 -0.2980  0.2770 -0.8082
13167TIP3   OH260915   2.125   2.164  15.147 -0.1598 -0.2359 -0.2896
13167TIP3    H160916   2.171   2.109  15.210 -1.1274 -2.1346 -1.1811
13167TIP3    H260917   2.089   2.236  15.199  0.0149 -1.1427  1.1174
13168TIP3   OH260918   4.159   3.200   4.289  0.0282 -0.1927 -0.1526
13168TIP3    H160919   4.158   3.135   4.359 -0.4211 -0.8143 -0.7303
13168TIP3    H260920   4.102   3.270   4.322 -1.5748 -1.2385 -0.5777
13169TIP3   OH260921   2.520   1.395   1.115  0.2792  0.4288 -0.1286
13169TIP3    H160922   2.425   1.396   1.109  0.2726  1.5759 -0.0693
13169TIP3    H260923   2.547   1.483   1.089  1.3551 -0.0106 -0.5815
13170TIP3   OH260924   4.781   2.357  13.408  0.4900 -0.4594 -0.5374
13170TIP3    H160925   4.732   2.438  13.397 -0.5360 -0.8430  0.8486
13170TIP3    H260926   4.801   2.328  13.319 -0.2125  0.6655 -1.0775
13171TIP3   OH260927   6.660   3.315   4.532  0.0684 -0.3326 -0.0901
13171TIP3    H160928   6.610   3.355   4.461  0.5695 -2.2409 -1.5878
13171TIP3    H260929   6.598   3.254   4.573  0.3679 -0.7205 -0.2079
13172TIP3   OH260930   3.914   3.899   3.332  0.3953 -0.1827 -0.3280
13172TIP3    H160931   3.868   3.983   3.338  1.9236  0.8726 -2.2757
13172TIP3    H260932   3.892   3.866   3.245  0.5005 -1.4107  0.0909
13173TIP3   OH260933   5.016   0.841  12.088 -0.0889  0.6361  0.1865
13173TIP3    H160934   5.078   0.882  12.149 -0.0064  1.4346 -0.4282
13173TIP3    H260935   5.019   0.896  12.010 -1.1155  0.3169 -0.0866
13174TIP3   OH260936   4.537   4.347   2.697  0.2669 -0.0501 -0.0902
13174TIP3    H160937   4.536   4.400   2.617 -1.7224 -1.6230 -1.2181
13174TIP3    H260938   4.456   4.370   2.742 -0.4582 -1.7771 -0.4291
13175TIP3   OH260939   5.622   1.128   5.027 -0.0356  0.6445  0.4716
13175TIP3    H160940   5.688   1.101   4.963  0.1919  0.8609  0.6140
13175TIP3    H260941   5.539   1.104   4.987  0.0931  0.9736  0.0030
13176TIP3   OH260942   3.488   0.341   0.222  0.1056 -0.4289 -0.2265
13176TIP3    H160943   3.401   0.381   0.230  0.5894  0.6149 -0.0301
13176TIP3    H260944   3.531   0.393   0.154  0.5939 -0.9261 -0.2999
13177TIP3   OH260945   3.252   0.410  11.473 -0.0172 -0.0497 -0.0470
13177TIP3    H160946   3.334   0.449  11.502 -1.4159  2.0473  1.3397
13177TIP3    H260947   3.192   0.420  11.548 -1.2644 -2.4916 -0.6064
13178TIP3   OH260948   0.994   4.333   3.845  0.2343  0.0142  0.0249
13178TIP3    H160949   0.933   4.270   3.882  0.5417  0.6789  1.7817
13178TIP3    H260950   0.995   4.315   3.751 -2.1351 -0.4412  0.0459
13179TIP3   OH260951   0.071   2.415   2.031  0.1744 -0.8204  0.0115
13179TIP3    H160952   0.018   2.481   2.076 -1.0393  0.0824 -2.5586
13179TIP3    H260953   0.143   2.396   2.092 -1.2235  0.4565  2.1754
13180TIP3   OH260954   2.269   2.990  15.463 -0.1619 -0.5918  0.2722
13180TIP3    H160955   2.185   2.969  15.424 -0.4866  0.0287  0.6207
13180TIP3    H260956   2.333   2.946  15.407 -0.6101  0.2027 -0.9147
13181TIP3   OH260957   1.356   2.748   0.141 -0.7267 -1.0584 -0.4105
13181TIP3    H160958   1.292   2.811   0.109  1.1260  0.6739 -0.8815
13181TIP3    H260959   1.421   2.742   0.071  0.8982 -0.8848  1.0253
13182TIP3   OH260960   6.154   0.682  15.300 -0.5112 -0.4900 -0.0702
13182TIP3    H160961   6.095   0.611  15.326  1.1708 -1.6726  0.6979
13182TIP3    H260962   6.191   0.653  15.217 -0.6713  0.0429 -0.3317
13183TIP3   OH260963   5.469   6.493  14.351 -0.3337 -0.4121 -0.4650
13183TIP3    H160964   5.488   6.408  14.311  1.9557  0.0311 -0.4662
13183TIP3    H260965   5.460   6.553  14.276 -0.1599 -0.3398 -0.4297
13184TIP3   OH260966   0.837   0.914   3.159 -0.3335 -0.5099  0.0524
13184TIP3    H160967   0.900   0.872   3.218  0.4997  0.0231 -0.4412
13184TIP3    H260968   0.889   0.977   3.109 -1.0835 -0.7141 -1.0190
13185TIP3   OH260969   5.703   5.583   2.611 -0.4683  0.0705 -0.2988
13185TIP3    H160970   5.657   5.656   2.569 -0.5462  0.9153  1.1807
13185TIP3    H260971   5.636   5.515   2.620 -0.8707  0.4839 -0.1075
13186TIP3   OH260972   4.069   4.527  16.402 -0.6639  0.0042  0.2075
13186TIP3    H160973   4.094   4.457  16.462 -1.3819 -0.9340 -0.5573
13186TIP3    H260974   4.141   4.533  16.340  0.1085  1.0173  1.1559
13187TIP3   OH260975   5.659   4.289   1.191  0.1311 -0.4570 -0.4665
13187TIP3    H160976   5.666   4.227   1.263  1.9899 -0.0367 -0.2431
13187TIP3    H260977   5.715   4.254   1.123  0.5188  0.5203 -0.6662
13188TIP3   OH260978   6.036   1.867   4.027  0.3320 -0.4571  0.1913
13188TIP3    H160979   6.116   1.896   3.984  1.1696 -0.5560  1.6259
13188TIP3    H260980   6.053   1.776   4.052 -0.1912 -0.4559  0.5709
13189TIP3   OH260981   2.624   6.430  13.351 -0.4421 -0.2555 -0.5399
13189TIP3    H160982   2.661   6.354  13.396 -0.0296  0.8536  1.0833
13189TIP3    H260983   2.568   6.471  13.417  1.1881  2.1626 -0.5488
13190TIP3   OH260984   4.056   0.371   3.860 -0.3017 -0.2795  0.3744
13190TIP3    H160985   3.983   0.397   3.804 -0.1283  0.2934  0.4140
13190TIP3    H260986   4.055   0.434   3.932  1.5170  1.0787 -0.6987
13191TIP3   OH260987   5.812   1.160  15.598  0.1763  0.1976 -0.4668
13191TIP3    H160988   5.854   1.074  15.590 -0.3437 -0.0522 -0.6167
13191TIP3    H260989   5.864   1.207  15.663  0.5722 -0.1703 -0.5172
13192TIP3   OH260990   5.766   5.847  11.383  0.3667  0.3287 -0.3280
13192TIP3    H160991   5.809   5.822  11.302  0.2935 -0.4736 -0.1285
13192TIP3    H260992   5.795   5.782  11.447  0.2428  0.8142  0.2334
13193TIP3   OH260993   4.411   1.571   3.966 -0.6984 -0.1622 -0.4325
13193TIP3    H160994   4.468   1.648   3.977 -0.4378 -0.5763  1.6776
13193TIP3    H260995   4.412   1.554   3.872  0.0845  1.7716 -0.8403
13194TIP3   OH260996   6.654   2.887  13.133  0.3067  0.1244 -0.0580
13194TIP3    H160997   6.642   2.953  13.201 -0.0944  0.2482 -0.2469
13194TIP3    H260998   6.746   2.861  13.141  0.1331 -0.2411  0.8821
13195TIP3   OH260999   2.178   0.858   4.384  0.7759  0.3572 -0.3841
13195TIP3    H161000   2.159   0.771   4.419 -0.4219  0.7106 -0.1093
13195TIP3    H261001   2.268   0.853   4.353  0.2080 -1.4855 -1.8937
13196TIP3   OH261002   4.075   1.785  14.741 -0.5815 -0.6338 -0.2045
13196TIP3    H161003   4.113   1.872  14.726 -2.7081  0.4450  0.2804
13196TIP3    H261004   4.134   1.744  14.804  0.3297  0.5656 -0.2455
13197TIP3   OH261005   3.397   3.315  12.085 -0.4566  0.6635 -0.8210
13197TIP3    H161006   3.434   3.231  12.056 -1.0968  0.9420 -2.5781
13197TIP3    H261007   3.338   3.291  12.156 -0.9925 -0.4634 -1.6058
13198TIP3   OH261008   2.228   4.683  16.968 -0.3431 -0.2583 -0.2545
13198TIP3    H161009   2.183   4.674  17.052  0.4753 -0.0039  0.2282
13198TIP3    H261010   2.257   4.594  16.946 -1.2916 -0.4664 -0.6969
13199TIP3   OH261011   1.869   3.728  16.433 -0.2317  0.4542 -0.1274
13199TIP3    H161012   1.801   3.785  16.398 -0.1319  0.7445  0.1426
13199TIP3    H261013   1.946   3.747  16.380 -0.6871 -0.8250 -1.3030
13200TIP3   OH261014   3.175   1.818  15.089  0.2486  0.2513  0.1412
13200TIP3    H161015   3.236   1.838  15.018  1.0860 -0.5241  0.6148
13200TIP3    H261016   3.137   1.903  15.112 -0.2734  0.4757 -1.4226
13201TIP3   OH261017   2.570   4.271   2.728  0.3927 -0.8174  0.1464
13201TIP3    H161018   2.605   4.359   2.716  1.1768 -1.3478 -1.8179
13201TIP3    H261019   2.647   4.214   2.726 -0.3295 -1.8185 -2.1470
13202TIP3   OH261020   3.839   1.826   3.625  0.2559 -0.3981  0.9377
13202TIP3    H161021   3.858   1.801   3.535 -3.0013 -0.8840  0.2805
13202TIP3    H261022   3.827   1.742   3.671 -0.2478 -0.1423  1.2859
13203TIP3   OH261023   1.531   2.441  14.602 -0.1883  0.0080  0.1128
13203TIP3    H161024   1.620   2.407  14.604 -0.4855 -1.0057 -1.6959
13203TIP3    H261025   1.517   2.467  14.511 -2.0709 -0.8685  0.0984
13204TIP3   OH261026   6.007   5.474  14.182 -0.1088  0.3650 -0.2980
13204TIP3    H161027   6.029   5.382  14.166 -1.3792  0.1367 -0.8299
13204TIP3    H261028   5.980   5.476  14.274  2.3074  0.7181  0.4826
13205TIP3   OH261029   6.214   5.198   5.371  0.3732 -0.1288  0.1535
13205TIP3    H161030   6.238   5.290   5.385 -1.2768  0.3501 -0.0020
13205TIP3    H261031   6.179   5.195   5.282 -0.4674 -0.7153  0.4965
13206TIP3   OH261032   1.955   2.528  13.515  0.1711  0.3090  0.2518
13206TIP3    H161033   2.013   2.507  13.588  0.7047 -0.0827 -0.2686
13206TIP3    H261034   1.914   2.445  13.492  0.3138  0.3466 -0.1498
13207TIP3   OH261035   1.186   3.967   5.226  0.2828 -0.2125  0.4629
13207TIP3    H161036   1.228   3.897   5.277  1.5110 -1.6746 -2.3108
13207TIP3    H261037   1.237   4.045   5.247  1.4853 -1.0032  0.6302
13208TIP3   OH261038   3.043   0.745   5.880  0.1168 -0.3527 -0.1217
13208TIP3    H161039   3.032   0.763   5.973 -1.4152 -0.8099 -0.1830
13208TIP3    H261040   2.980   0.803   5.837 -1.4499 -2.2851 -0.6271
13209TIP3   OH261041   1.168   5.129   4.891 -0.0746 -0.0769  0.1834
13209TIP3    H161042   1.185   5.050   4.942 -0.5841 -0.1700  0.2151
13209TIP3    H261043   1.106   5.102   4.824  1.4984 -0.2406 -1.2757
13210TIP3   OH261044   6.350   5.253   3.979  0.0032 -0.4502  0.3306
13210TIP3    H161045   6.354   5.348   3.965 -1.8926 -0.3004  0.4863
13210TIP3    H261046   6.438   5.229   4.006  0.1173  1.5991  2.0928
13211TIP3   OH261047   5.942   1.759   2.343 -0.2517  0.0301 -0.2702
13211TIP3    H161048   5.996   1.818   2.291 -1.3178  0.4569 -0.9191
13211TIP3    H261049   5.986   1.756   2.429  1.0688 -0.0417 -0.9151
13212TIP3   OH261050   4.582   2.334   3.896 -0.2973  0.3801 -0.2957
13212TIP3    H161051   4.652   2.399   3.886  1.2158 -1.3807 -1.9175
13212TIP3    H261052   4.557   2.311   3.807 -1.5734 -0.4773  0.2518
13213TIP3   OH261053   1.142   0.088  14.569 -0.0710 -0.5857 -0.4576
13213TIP3    H161054   1.175  -0.001  14.567 -1.1660 -0.9911 -1.6646
13213TIP3    H261055   1.145   0.113  14.662  3.5381 -0.5585 -0.4562
13214TIP3   OH261056   2.661   1.083  13.798 -0.2540  0.7100 -0.0607
13214TIP3    H161057   2.577   1.039  13.790 -0.7866  1.7031 -0.0935
13214TIP3    H261058   2.647   1.169  13.759  0.6109  1.1059  0.4733
13215TIP3   OH261059   1.607   0.597   1.182  0.2676 -0.2623 -0.7327
13215TIP3    H161060   1.670   0.596   1.254 -1.0195 -1.8207  0.4614
13215TIP3    H261061   1.629   0.520   1.130 -1.0126 -1.2421  0.1026
13216TIP3   OH261062   0.950   3.760   1.052 -0.2354  0.1005  0.7112
13216TIP3    H161063   0.948   3.672   1.015 -0.6868  0.3036  0.2418
13216TIP3    H261064   1.016   3.755   1.121  0.2963 -0.3996  0.1789
13217TIP3   OH261065   5.952   0.266  11.095 -0.3120 -0.5786 -0.5817
13217TIP3    H161066   5.860   0.239  11.096 -0.4429 -0.2280 -1.6779
13217TIP3    H261067   5.949   0.360  11.115 -0.3814 -0.1646 -2.3437
13218TIP3   OH261068   1.837   2.791  16.050  0.2955  0.0136 -0.1462
13218TIP3    H161069   1.764   2.851  16.035  1.3005  1.4069  0.3180
13218TIP3    H261070   1.882   2.827  16.126  0.2526 -2.0428  0.9306
13219TIP3   OH261071   1.868   4.555   5.856 -0.0933  0.8165  0.2810
13219TIP3    H161072   1.802   4.615   5.890 -0.4379  0.3966  0.3610
13219TIP3    H261073   1.846   4.470   5.895  0.7106  0.7422  0.6045
13220TIP3   OH261074   0.728   2.387   0.639 -0.0977  0.1614 -0.0441
13220TIP3    H161075   0.799   2.424   0.587  0.1359  0.0068  0.1591
13220TIP3    H261076   0.681   2.462   0.673 -0.6471  0.2683 -1.0022
13221TIP3   OH261077   1.907   5.535   0.938  0.0715  0.5566 -0.1166
13221TIP3    H161078   1.929   5.453   0.894  0.3311  0.1606  0.7328
13221TIP3    H261079   1.897   5.510   1.030 -0.4455  1.3714  0.0543
13222TIP3   OH261080   6.550   2.413   2.130 -0.4550  0.1394 -0.0130
13222TIP3    H161081   6.603   2.347   2.174 -1.5826 -0.5422  0.3540
13222TIP3    H261082   6.577   2.496   2.169  1.2300 -0.0428 -0.7326
13223TIP3   OH261083   2.300   6.002   0.747  0.3852  0.2832  0.0046
13223TIP3    H161084   2.240   6.016   0.820  0.7459 -1.1304  0.5974
13223TIP3    H261085   2.246   5.964   0.678  0.3025  0.4487 -0.0241
13224TIP3   OH261086   5.654   4.528  14.371  0.0753 -0.4694  0.5233
13224TIP3    H161087   5.650   4.480  14.289 -0.3723  1.4724 -0.6590
13224TIP3    H261088   5.605   4.609  14.355  1.9750  1.0726  1.8903
13225TIP3   OH261089   4.251   4.038   0.394  0.4051 -0.3698  0.0624
13225TIP3    H161090   4.312   4.000   0.457 -1.2226 -0.4162  1.7169
13225TIP3    H261091   4.165   4.005   0.421 -0.5959  1.3045 -0.8805
13226TIP3   OH261092   6.606   2.415  13.965 -0.1698 -0.1306 -0.0236
13226TIP3    H161093   6.608   2.337  14.019  0.2231 -0.3296 -0.3243
13226TIP3    H261094   6.659   2.393  13.888  0.4203  0.6301  0.1560
13227TIP3   OH261095   1.562   5.871  14.935  0.7597 -0.3044 -0.0704
13227TIP3    H161096   1.524   5.876  15.023  1.4246  2.0325  0.1483
13227TIP3    H261097   1.486   5.870  14.876  0.1068 -5.3185  0.4081
13228TIP3   OH261098   2.225   5.306  14.877 -0.0233  0.0902  0.2650
13228TIP3    H161099   2.137   5.329  14.905  0.7258  2.5010  0.8529
13228TIP3    H261100   2.242   5.360  14.800  2.5226  3.3872  2.8315
13229TIP3   OH261101   2.269   6.077  17.072  0.1074 -0.0799 -0.8691
13229TIP3    H161102   2.316   6.159  17.081 -0.0607 -0.0905  0.3204
13229TIP3    H261103   2.219   6.069  17.154 -1.3626 -0.4343 -1.7706
13230TIP3   OH261104   4.127   5.256   0.602  0.1627  0.4628 -0.7950
13230TIP3    H161105   4.053   5.212   0.643  0.6935 -0.4649 -0.7992
13230TIP3    H261106   4.164   5.191   0.542 -0.0132  1.4553 -2.0467
13231TIP3   OH261107   3.382   3.292  13.801 -0.6438  0.0950 -0.1364
13231TIP3    H161108   3.347   3.279  13.713 -0.0397  0.0162 -0.3687
13231TIP3    H261109   3.359   3.211  13.848  0.3815 -0.5390 -0.6767
13232TIP3   OH261110   6.415   5.420   4.804  0.5851 -0.0248 -0.5198
13232TIP3    H161111   6.477   5.356   4.840  0.9285  0.7219  0.2498
13232TIP3    H261112   6.448   5.505   4.833 -0.1924  0.4685 -1.0294
13233TIP3   OH261113   6.354   5.060  16.582  0.0279  0.3438  0.5196
13233TIP3    H161114   6.318   5.122  16.519  0.1857 -0.8374 -0.7952
13233TIP3    H261115   6.280   5.035  16.637  0.0171  1.8346  1.2144
13234TIP3   OH261116   3.310   3.706  15.232  0.4138  0.3088 -0.1053
13234TIP3    H161117   3.243   3.737  15.293  1.4578  0.8523  0.7965
13234TIP3    H261118   3.299   3.611  15.230 -0.4679  0.3996 -0.0888
13235TIP3   OH261119   5.931   1.973  16.673  0.4986 -0.2797  0.3569
13235TIP3    H161120   5.877   2.036  16.625  0.3007  0.1380  1.1104
13235TIP3    H261121   6.015   1.973  16.626 -0.3395 -1.4284 -1.2340
13236TIP3   OH261122   4.675   3.772   5.925 -0.3450  0.3353 -0.3849
13236TIP3    H161123   4.719   3.795   6.007 -0.8009  1.3154 -0.3988
13236TIP3    H261124   4.618   3.699   5.948 -0.2299  0.3933  0.0975
13237TIP3   OH261125   1.689   6.483   0.903 -0.0004  0.2001  0.0555
13237TIP3    H161126   1.676   6.494   0.809  0.7815  1.3148  0.0621
13237TIP3    H261127   1.609   6.516   0.943 -0.4847 -0.6111 -0.2174
13238TIP3   OH261128   2.322   3.478  16.774 -0.0481 -0.3027  0.0985
13238TIP3    H161129   2.335   3.494  16.681  0.6562 -0.1837  0.2154
13238TIP3    H261130   2.401   3.512  16.816 -0.8315  0.6380  0.8441
13239TIP3   OH261131   1.729   3.002  14.034  0.2415 -0.1781 -0.4827
13239TIP3    H161132   1.667   3.073  14.014 -0.6459 -0.5203  0.8604
13239TIP3    H261133   1.812   3.047  14.050  0.0374  0.4192 -1.0691
13240TIP3   OH261134   6.541   5.931   1.760 -0.1094 -0.4507  0.2210
13240TIP3    H161135   6.480   5.991   1.716 -1.3167 -0.9632  1.1689
13240TIP3    H261136   6.628   5.966   1.737 -0.7596  1.0850 -0.0536
13241TIP3   OH261137   0.512   2.672  16.027 -0.2326 -0.1772 -0.0827
13241TIP3    H161138   0.440   2.615  16.054  0.2088 -0.8647 -0.3276
13241TIP3    H261139   0.473   2.734  15.966 -0.7564 -0.1022  0.3267
13242TIP3   OH261140   3.826   1.213   5.317  0.5789 -0.0106 -0.0913
13242TIP3    H161141   3.737   1.178   5.312  0.6706 -0.5083  1.1757
13242TIP3    H261142   3.815   1.308   5.317  0.0968 -0.0633 -0.5393
13243TIP3   OH261143   1.170   4.824   1.779  0.0392  0.0192  0.2654
13243TIP3    H161144   1.249   4.877   1.780 -0.6456  1.0635  0.7935
13243TIP3    H261145   1.193   4.747   1.727  0.6496  1.4773 -1.7340
13244TIP3   OH261146   1.419   2.760   3.782 -0.4891 -0.3044  0.3523
13244TIP3    H161147   1.484   2.690   3.787 -0.4057 -0.3277 -0.8420
13244TIP3    H261148   1.335   2.714   3.792 -0.3597 -0.2407  2.1873
13245TIP3   OH261149   1.983   0.143   1.774 -0.0849  0.0993 -0.2799
13245TIP3    H161150   2.026   0.141   1.859 -1.4513  2.5503  0.5865
13245TIP3    H261151   1.890   0.142   1.794 -0.5213  3.3346 -1.4484
13246TIP3   OH261152   2.222   3.190  15.009  0.4207 -0.0257 -0.6330
13246TIP3    H161153   2.276   3.216  15.083 -1.5570  1.3255  0.4284
13246TIP3    H261154   2.262   3.232  14.933  1.4407  0.0651 -0.0618
13247TIP3   OH261155   2.362   0.911  14.248 -0.3382  0.0747 -0.2820
13247TIP3    H161156   2.450   0.887  14.277 -0.3107 -0.1531 -0.5575
13247TIP3    H261157   2.340   0.988  14.301  1.2460  2.0953 -2.3576
13248TIP3   OH261158   2.101   4.452   2.051 -0.1697 -0.0838  0.1015
13248TIP3    H161159   2.114   4.361   2.075  1.2110  0.0467 -0.0916
13248TIP3    H261160   2.163   4.468   1.979 -0.4418  0.9783  0.0751
13249TIP3   OH261161   0.110   1.064  17.178 -0.4185 -0.3781 -0.9921
13249TIP3    H161162   0.058   1.076  17.258 -0.9115 -0.8261 -1.2371
13249TIP3    H261163   0.072   0.986  17.137 -1.2504  0.7552 -2.4754
13250TIP3   OH261164   5.960   1.484  11.810 -0.8824 -0.0549  0.2775
13250TIP3    H161165   5.956   1.579  11.820  1.4976  0.1400  0.0216
13250TIP3    H261166   6.008   1.454  11.888 -0.3820 -0.8562 -0.3274
13251TIP3   OH261167   1.154   6.630  15.105 -0.4849  0.0148  0.2928
13251TIP3    H161168   1.247   6.609  15.096 -0.6843 -0.5771 -0.5415
13251TIP3    H261169   1.131   6.672  15.023 -1.1145 -0.4820  0.2069
13252TIP3   OH261170   3.600   5.712  15.171  0.0786 -0.1856  0.5067
13252TIP3    H161171   3.572   5.735  15.260 -0.9209 -0.9092  0.3911
13252TIP3    H261172   3.520   5.713  15.119  0.7664  1.0676 -0.6014
13253TIP3   OH261173   6.579   3.025   0.375 -1.0530  0.4871 -0.3727
13253TIP3    H161174   6.595   2.943   0.422 -0.4616  0.3980 -0.7098
13253TIP3    H261175   6.657   3.078   0.395 -0.4238  0.1643 -1.8378
13254TIP3   OH261176   2.075   3.563   1.101  0.7510 -0.0766  0.2248
13254TIP3    H161177   2.063   3.607   1.017  1.2627  0.7624  0.5770
13254TIP3    H261178   2.012   3.491   1.099 -2.3327  2.3776  0.8328
13255TIP3   OH261179   5.784   0.069  12.422  0.0327  0.0065 -0.4126
13255TIP3    H161180   5.858   0.009  12.427  0.9462  1.1546  1.8827
13255TIP3    H261181   5.708   0.013  12.404  1.1894 -1.4593 -0.9225
13256TIP3   OH261182   2.678   5.194  15.723 -0.2333 -0.1924 -0.2254
13256TIP3    H161183   2.692   5.127  15.790 -2.2152 -1.9027 -1.4122
13256TIP3    H261184   2.615   5.255  15.762  0.5917  0.3024  0.3756
13257TIP3   OH261185   0.455   4.624   6.229 -0.5128  0.6900 -0.3557
13257TIP3    H161186   0.549   4.614   6.214 -0.3364 -1.3791  1.5325
13257TIP3    H261187   0.448   4.663   6.316 -1.2978 -1.4822  0.6383
13258TIP3   OH261188   5.098   6.010   0.124  0.4948 -0.4702 -0.0835
13258TIP3    H161189   5.077   5.917   0.133 -0.2768 -0.2068  1.0888
13258TIP3    H261190   5.145   6.032   0.204  1.0121  0.0800 -0.5217
13259TIP3   OH261191   5.622   4.727  15.060  0.5501 -0.4577 -0.0878
13259TIP3    H161192   5.709   4.692  15.037 -0.0502 -1.6432 -0.6468
13259TIP3    H261193   5.639   4.816  15.088  2.0547 -0.9125  0.5526
13260TIP3   OH261194   2.878   5.270   0.495 -0.1304  0.3973 -0.0211
13260TIP3    H161195   2.963   5.235   0.522 -0.4032 -0.3930 -0.1442
13260TIP3    H261196   2.815   5.210   0.535 -0.6845  1.6543  1.0627
13261TIP3   OH261197   4.368   2.832   5.456 -0.2141  0.3724  0.0471
13261TIP3    H161198   4.358   2.872   5.370 -0.9503 -0.1542 -0.1162
13261TIP3    H261199   4.369   2.738   5.440  1.3652  0.2877  0.4495
13262TIP3   OH261200   1.841   5.484  15.593 -0.5837 -0.0864  0.0820
13262TIP3    H161201   1.757   5.456  15.556 -1.2737 -0.4048  1.8348
13262TIP3    H261202   1.843   5.579  15.579 -1.0336 -0.1294 -0.3220
13263TIP3   OH261203   0.877   0.472  15.008 -0.2674  0.3313  0.2912
13263TIP3    H161204   0.787   0.488  15.038 -0.6095 -2.1351  0.8096
13263TIP3    H261205   0.929   0.473  15.089 -0.3500 -1.1581  0.3962
13264TIP3   OH261206   6.244   4.523  11.774  0.4358 -0.2822 -0.1956
13264TIP3    H161207   6.165   4.570  11.747  0.5524  0.3665  0.5310
13264TIP3    H261208   6.316   4.575  11.738  0.6175  0.9784  1.8352
13265TIP3   OH261209   3.578   0.050   0.811  0.0104 -0.0455  0.1799
13265TIP3    H161210   3.540   0.136   0.831 -0.2998  0.2000 -1.3783
13265TIP3    H261211   3.502  -0.008   0.803  0.1668 -0.2682  0.3241
13266TIP3   OH261212   0.381   5.794  10.448  0.1859  0.2996 -0.7226
13266TIP3    H161213   0.367   5.703  10.473  0.7754  0.2479 -0.5635
13266TIP3    H261214   0.369   5.795  10.353 -0.8154  0.2545 -0.6000
13267TIP3   OH261215   2.324   4.036  10.943 -0.3022 -0.4984 -0.0670
13267TIP3    H161216   2.283   4.113  10.903 -0.3487 -0.4410  0.0880
13267TIP3    H261217   2.263   3.965  10.928 -0.1044 -0.5781 -0.5066
13268TIP3   OH261218   0.082   2.175  14.484  0.8918  0.0556  0.3396
13268TIP3    H161219   0.158   2.232  14.492  0.1788  1.0902 -0.0699
13268TIP3    H261220   0.012   2.232  14.452 -0.2722 -0.7089  1.4464
13269TIP3   OH261221   3.505   1.371   3.622 -0.2373 -0.3863  0.1187
13269TIP3    H161222   3.594   1.401   3.637 -0.5342 -0.5139  2.5272
13269TIP3    H261223   3.454   1.451   3.610  0.2967 -0.3439 -2.2363
13270TIP3   OH261224   5.712   2.081  11.394 -0.1994 -0.0129 -0.9467
13270TIP3    H161225   5.763   2.005  11.366  0.6289  0.6919 -1.4013
13270TIP3    H261226   5.778   2.146  11.421 -0.9339 -0.3125  1.8095
13271TIP3   OH261227   5.073   0.802  15.055  0.4172  0.0708  0.1549
13271TIP3    H161228   5.147   0.744  15.076  0.8817 -0.1357 -1.8734
13271TIP3    H261229   5.114   0.884  15.029 -0.1687  0.6124  0.9062
13272TIP3   OH261230   4.776   4.020  17.136 -0.0176 -0.0205  0.1902
13272TIP3    H161231   4.695   4.064  17.162 -0.1001 -0.6993  1.1079
13272TIP3    H261232   4.819   3.998  17.218  0.2660 -1.1947 -0.2519
13273TIP3   OH261233   5.605   2.977  16.299 -0.1384 -0.2074 -0.7699
13273TIP3    H161234   5.678   2.918  16.316 -0.2907  0.3634  2.2462
13273TIP3    H261235   5.645   3.063  16.290 -0.4193  0.3689  2.4362
13274TIP3   OH261236   2.286   1.650   0.954  0.3151  0.0227 -0.1144
13274TIP3    H161237   2.210   1.674   1.007 -0.0942  0.3609 -0.8362
13274TIP3    H261238   2.280   1.555   0.943  1.5415 -0.3810  2.1532
13275TIP3   OH261239   6.129   2.174  16.718 -0.3458  0.3724  0.1156
13275TIP3    H161240   6.100   2.257  16.679 -0.4897  0.7791  1.0639
13275TIP3    H261241   6.204   2.148  16.664 -1.3720  0.1983 -1.2823
13276TIP3   OH261242   3.194   6.500  14.903  0.2272 -0.6299  0.0198
13276TIP3    H161243   3.237   6.547  14.974 -1.6660  0.0290  0.7975
13276TIP3    H261244   3.137   6.566  14.862  1.4871 -0.8935 -2.3655
13277TIP3   OH261245   4.239   2.180  13.586 -0.2001  0.4654  0.3702
13277TIP3    H161246   4.277   2.237  13.653 -3.2251 -0.0184  2.7448
13277TIP3    H261247   4.206   2.240  13.519 -0.0088  1.2169  0.9328
13278TIP3   OH261248   4.157   6.675   3.687  0.4160 -0.5282 -0.6722
13278TIP3    H161249   4.079   6.663   3.741  2.1716 -2.0339  1.6819
13278TIP3    H261250   4.195   6.757   3.716 -0.4502  0.4503 -2.1481
13279TIP3   OH261251   5.438   4.694   1.512  0.3064 -0.3670  0.6610
13279TIP3    H161252   5.441   4.760   1.582  1.1109 -0.8568  1.0935
13279TIP3    H261253   5.525   4.698   1.472  0.2327 -0.9117  0.4463
13280TIP3   OH261254   1.339   5.165   2.219 -0.2721 -0.3046  0.3430
13280TIP3    H161255   1.358   5.089   2.165 -2.4398 -1.3406  0.9385
13280TIP3    H261256   1.310   5.129   2.303  2.3879  1.2361  2.0903
13281TIP3   OH261257   1.933   4.505  15.377 -0.2266  0.0079 -0.1434
13281TIP3    H161258   2.000   4.510  15.445 -0.8636 -2.1356  0.6997
13281TIP3    H261259   1.882   4.428  15.398 -1.6324  0.3466 -2.0145
13282TIP3   OH261260   0.657   1.911   4.359 -0.3177  0.6284 -0.0538
13282TIP3    H161261   0.676   1.823   4.390  0.8132  1.1043  0.6756
13282TIP3    H261262   0.697   1.915   4.272  1.3633  1.0119  0.7004
13283TIP3   OH261263   6.537   6.719   4.128  0.1419 -0.0343  0.2360
13283TIP3    H161264   6.605   6.775   4.166  1.2211 -1.4633  0.4821
13283TIP3    H261265   6.575   6.631   4.129 -1.2400 -0.6737 -0.7860
13284TIP3   OH261266   0.300   1.715  14.342  0.2512 -0.8219 -0.6186
13284TIP3    H161267   0.219   1.671  14.367  1.2533 -2.0813  0.5684
13284TIP3    H261268   0.318   1.682  14.254 -1.1515  0.4645 -1.4393
13285TIP3   OH261269   2.832   0.067  10.540  0.2749  0.1821 -0.5826
13285TIP3    H161270   2.801   0.144  10.492 -0.6307  0.2932  0.1395
13285TIP3    H261271   2.751   0.021  10.564  0.8154 -1.4408 -1.6996
13286TIP3   OH261272   2.195   5.615   0.469  0.0894  1.1367 -0.4733
13286TIP3    H161273   2.101   5.602   0.471  0.2076  0.2542 -0.3203
13286TIP3    H261274   2.217   5.619   0.376  0.1576 -0.7641 -0.5818
13287TIP3   OH261275   1.624   1.179   5.589 -0.1239  0.1756  0.2389
13287TIP3    H161276   1.649   1.256   5.641 -0.4137 -0.3321  1.1587
13287TIP3    H261277   1.678   1.184   5.511  0.7734  0.6496  0.8701
13288TIP3   OH261278   2.350   6.768  11.976 -0.2411  0.7867  0.1871
13288TIP3    H161279   2.424   6.827  11.963 -0.1742  1.0534  1.6160
13288TIP3    H261280   2.273   6.823  11.964 -0.1899  0.9172  0.4556
13289TIP3   OH261281   6.644   5.633  16.973  0.4837  0.1137  0.2490
13289TIP3    H161282   6.633   5.538  16.979 -0.7588  0.2924  1.2193
13289TIP3    H261283   6.631   5.664  17.062 -0.4988  1.3092 -0.2841
13290TIP3   OH261284   1.267   0.506   4.344 -0.2440 -0.1765  0.1420
13290TIP3    H161285   1.314   0.425   4.324  0.1142  0.4378 -1.7222
13290TIP3    H261286   1.265   0.554   4.261  0.3313  2.1386  1.3642
13291TIP3   OH261287   0.604   1.530   1.129  0.1176  0.2402  0.5393
13291TIP3    H161288   0.567   1.507   1.044  1.4049  0.7814 -0.2012
13291TIP3    H261289   0.678   1.470   1.139  0.2099  0.4447  1.0901
13292TIP3   OH261290   6.340   3.285   0.089 -0.2957 -0.0700  0.2783
13292TIP3    H161291   6.416   3.271   0.032  0.5401  2.2411  0.6926
13292TIP3    H261292   6.334   3.205   0.141  3.5597  0.5320  2.0545
13293TIP3   OH261293   1.670   6.581  13.570  0.4785 -1.1640 -0.0910
13293TIP3    H161294   1.656   6.638  13.495  1.6591  0.3159  0.7500
13293TIP3    H261295   1.750   6.533  13.550  1.4610  0.0934  0.6666
13294TIP3   OH261296   4.622   3.683  16.818 -0.0309 -0.1621  0.9340
13294TIP3    H161297   4.622   3.641  16.732  0.0670 -0.6884  1.1896
13294TIP3    H261298   4.711   3.719  16.827 -0.5127  1.3303  0.1294
13295TIP3   OH261299   1.043   3.223  16.563 -0.0890  0.4104 -0.0677
13295TIP3    H161300   0.985   3.260  16.630  0.2857 -0.0741  0.5430
13295TIP3    H261301   1.106   3.292  16.544  2.2484 -0.6269  2.9779
13296TIP3   OH261302   3.931   5.319   0.225 -0.6236 -0.2459 -0.2523
13296TIP3    H161303   3.897   5.334   0.137 -0.6776 -0.6418 -0.3006
13296TIP3    H261304   4.007   5.262   0.212  1.1249  1.9467 -0.3179
13297TIP3   OH261305   3.641   5.639   5.546  0.1625  0.1428 -0.5702
13297TIP3    H161306   3.588   5.657   5.624 -0.6807 -0.8081 -0.9015
13297TIP3    H261307   3.731   5.652   5.574  0.1116 -2.9154  1.3908
13298TIP3   OH261308   5.934   4.410   2.959 -0.0175 -0.0493 -0.2037
13298TIP3    H161309   5.965   4.326   2.994 -1.3605 -1.0000 -1.2276
13298TIP3    H261310   5.840   4.410   2.975 -0.3400  0.4122 -1.9103
13299TIP3   OH261311   3.033   0.221   6.383  0.6799 -0.0343  0.0693
13299TIP3    H161312   3.108   0.255   6.334  1.0051 -0.9110 -0.0460
13299TIP3    H261313   2.959   0.232   6.323  0.9452 -0.4006 -0.3261
13300TIP3   OH261314   3.396   3.069  11.819 -0.3771  0.0676 -0.0803
13300TIP3    H161315   3.301   3.076  11.827 -0.3986  1.2378 -1.0962
13300TIP3    H261316   3.424   3.155  11.786  1.3716  0.9542  3.1616
13301TIP3   OH261317   6.242   5.285   1.396 -0.6058  0.3341  0.3073
13301TIP3    H161318   6.154   5.268   1.361 -0.5830 -0.6771  0.7165
13301TIP3    H261319   6.263   5.207   1.446  0.4261  0.6895  0.4408
13302TIP3   OH261320   5.324   6.544   2.521  0.6065 -0.2275 -0.0558
13302TIP3    H161321   5.260   6.558   2.590  0.6177 -1.2819  0.1882
13302TIP3    H261322   5.304   6.457   2.487  0.7739  0.1711 -1.2068
13303TIP3   OH261323   4.962   5.617  12.159  0.7100 -0.0898 -0.3226
13303TIP3    H161324   4.939   5.528  12.132  1.9312 -0.9731  1.3954
13303TIP3    H261325   5.009   5.653  12.083 -0.7059 -0.4878 -1.4341
13304TIP3   OH261326   6.434   4.286   2.170  0.7927  0.0811 -0.4758
13304TIP3    H161327   6.479   4.306   2.252  1.1742  2.1392 -1.1173
13304TIP3    H261328   6.350   4.331   2.177  1.6533  2.0707 -1.9794
13305TIP3   OH261329   5.836   5.827  12.714 -0.4376  0.0705 -0.4695
13305TIP3    H161330   5.913   5.875  12.682 -0.8295  0.9237 -0.1356
13305TIP3    H261331   5.792   5.797  12.634  0.4062 -0.7077 -0.6594
13306TIP3   OH261332   2.755   0.046   0.059 -0.0995  0.0757 -0.5563
13306TIP3    H161333   2.753   0.067   0.152 -0.1392 -1.4813 -0.1861
13306TIP3    H261334   2.774   0.130   0.016 -3.2943  1.5512  0.5877
13307TIP3   OH261335   3.060   3.301  13.331 -0.2048 -0.5086  0.4347
13307TIP3    H161336   3.034   3.392  13.314  0.4258 -0.5980 -1.2564
13307TIP3    H261337   2.978   3.252  13.329 -0.4188 -0.1436 -0.0194
13308TIP3   OH261338   2.633   5.606  14.565  0.5063 -0.1992  0.1966
13308TIP3    H161339   2.725   5.632  14.567  0.3206  0.5145 -0.0672
13308TIP3    H261340   2.591   5.663  14.628  0.4813 -1.5667  1.4647
13309TIP3   OH261341   0.116   5.050   0.987  0.1879 -0.2251  0.5082
13309TIP3    H161342   0.053   4.999   1.038  2.3157 -2.5349  1.0233
13309TIP3    H261343   0.201   5.011   1.007  1.4854  0.7351 -2.4850
13310TIP3   OH261344   6.420   6.551   5.467 -0.6536 -0.0340 -0.2125
13310TIP3    H161345   6.329   6.523   5.461 -1.6183  2.9291 -0.8461
13310TIP3    H261346   6.447   6.527   5.555 -1.6880 -1.8410 -0.3444
13311TIP3   OH261347   5.380   4.311   2.578 -0.2196 -0.2905  0.3887
13311TIP3    H161348   5.425   4.328   2.495 -0.1484 -1.0762  0.2664
13311TIP3    H261349   5.301   4.365   2.573 -0.1579 -0.2399 -0.1361
13312TIP3   OH261350   2.255   4.904   4.912  0.2995 -0.4221  0.1811
13312TIP3    H161351   2.232   4.991   4.882 -1.5674 -0.3217  1.7628
13312TIP3    H261352   2.184   4.848   4.880  0.6789 -1.0917  0.4879
13313TIP3   OH261353   4.241   5.484   0.399  0.1296 -0.5148 -0.4531
13313TIP3    H161354   4.261   5.418   0.332 -1.0634  0.1408 -1.4921
13313TIP3    H261355   4.198   5.434   0.469  1.6997 -1.2641  0.0355
13314TIP3   OH261356   3.931   3.093   2.620  0.7085  0.1527 -0.2343
13314TIP3    H161357   4.003   3.132   2.670  1.0785 -1.3965  0.4860
13314TIP3    H261358   3.865   3.072   2.687 -1.0267  2.6904 -0.9992
13315TIP3   OH261359   4.719   2.532   0.421  0.5285 -0.0733 -0.1554
13315TIP3    H161360   4.633   2.530   0.463  1.1503 -0.3702  1.1613
13315TIP3    H261361   4.700   2.524   0.328 -0.8004 -1.5729  0.2011
13316TIP3   OH261362   2.511   4.905   0.391 -0.0184 -0.1620 -0.5236
13316TIP3    H161363   2.510   5.001   0.390 -0.2400 -0.1526 -0.0312
13316TIP3    H261364   2.577   4.883   0.457 -0.5239 -0.3327 -0.0644
13317TIP3   OH261365   0.522   2.885   5.473  0.5296  0.2324  0.3927
13317TIP3    H161366   0.531   2.918   5.383  1.2377  0.2713  0.4734
13317TIP3    H261367   0.443   2.832   5.471 -0.1621  1.2393  0.0490
13318TIP3   OH261368   5.545   1.029  15.121 -0.0682  0.1398 -0.0754
13318TIP3    H161369   5.510   0.980  15.047  2.2892 -2.1057  0.1270
13318TIP3    H261370   5.614   1.083  15.082  2.7777 -2.7252  0.5166
13319TIP3   OH261371   5.587   1.210  12.237  0.2468  0.1512 -0.3183
13319TIP3    H161372   5.638   1.269  12.292 -0.6441 -0.0037  0.6918
13319TIP3    H261373   5.579   1.256  12.153  2.4106 -0.0193 -0.6636
13320TIP3   OH261374   3.530   2.297   3.181 -0.2079  0.2268  0.2806
13320TIP3    H161375   3.484   2.286   3.098 -0.3501  0.2250  0.3594
13320TIP3    H261376   3.623   2.295   3.157 -0.2444 -0.0805  0.1607
13321TIP3   OH261377   5.792   6.775   6.589 -0.1576  0.5495  0.0773
13321TIP3    H161378   5.702   6.748   6.610 -0.2346  1.9653  1.8678
13321TIP3    H261379   5.833   6.696   6.553 -1.2550 -1.0472  2.0554
13322TIP3   OH261380   5.421   0.619  12.648 -0.3084  0.0279 -0.5484
13322TIP3    H161381   5.379   0.585  12.569  0.2350 -0.7403 -0.5192
13322TIP3    H261382   5.453   0.542  12.694 -0.5806  0.4680  0.4113
13323TIP3   OH261383   3.522   1.528  16.204  0.1667  0.2962  0.0866
13323TIP3    H161384   3.560   1.442  16.226 -2.3491 -0.8725  0.1725
13323TIP3    H261385   3.542   1.539  16.111 -0.8628 -1.2066 -0.3587
13324TIP3   OH261386   2.436   0.696   4.250  0.3175 -0.2652  0.3272
13324TIP3    H161387   2.498   0.699   4.177  0.5818 -2.3736  0.4220
13324TIP3    H261388   2.351   0.682   4.210  0.2590  0.0046  0.3531
13325TIP3   OH261389   2.554   4.083  12.757 -0.0732 -0.1740  0.0984
13325TIP3    H161390   2.550   4.092  12.661  1.6774  2.0906  0.1537
13325TIP3    H261391   2.520   3.995  12.774 -2.3379  0.0866 -2.4230
13326TIP3   OH261392   6.670   4.611   0.455 -0.2244  0.1314 -0.0462
13326TIP3    H161393   6.758   4.646   0.445 -0.2889 -0.1156 -1.7622
13326TIP3    H261394   6.614   4.689   0.458 -0.1895  0.2892 -1.9686
13327TIP3   OH261395   3.369   4.655  10.419  0.3323 -0.0841  0.3032
13327TIP3    H161396   3.408   4.740  10.440 -0.2598  0.7782 -1.8430
13327TIP3    H261397   3.442   4.603  10.387  0.6454 -0.3269  1.3627
13328TIP3   OH261398   4.530   2.501  17.027 -0.3274 -0.4435  0.0449
13328TIP3    H161399   4.549   2.407  17.023 -0.8628 -0.5323 -0.6363
13328TIP3    H261400   4.587   2.534  17.096 -1.1858 -1.5264  1.3341
13329TIP3   OH261401   5.453   0.857   0.964  0.1563 -0.0915 -0.4570
13329TIP3    H161402   5.466   0.763   0.977 -0.8139 -0.1825 -0.0905
13329TIP3    H261403   5.401   0.864   0.884 -0.8866  0.0538  0.2137
13330TIP3   OH261404   4.419   1.155  17.211  0.2212  0.1885  0.1106
13330TIP3    H161405   4.421   1.141  17.117 -0.1373  0.8940 -0.0118
13330TIP3    H261406   4.446   1.246  17.223 -2.6641  1.1010  0.4234
13331TIP3   OH261407   2.049   0.080  10.957 -0.2691  0.3315 -0.3232
13331TIP3    H161408   2.012   0.004  10.912  0.3826  1.1224 -2.3225
13331TIP3    H261409   1.980   0.146  10.952 -0.7756 -0.0524  1.2703
13332TIP3   OH261410   2.708   0.626   0.200  0.7197 -0.1080 -0.0106
13332TIP3    H161411   2.713   0.531   0.215  0.2931 -0.0956  0.2363
13332TIP3    H261412   2.640   0.656   0.261  0.0347  0.1829 -0.8977
13333TIP3   OH261413   4.200   6.085  12.871  0.0390 -0.3334  0.2487
13333TIP3    H161414   4.284   6.131  12.871  0.3767 -0.9409  0.6775
13333TIP3    H261415   4.203   6.029  12.949 -0.8044 -0.2855  0.3284
13334TIP3   OH261416   2.870   1.017  13.985  0.4099  0.1347  0.5229
13334TIP3    H161417   2.924   0.940  13.965 -0.2172 -0.3042  0.4774
13334TIP3    H261418   2.800   1.013  13.920 -0.2822  0.0774  1.2660
13335TIP3   OH261419   3.065   5.885  11.254 -0.2111  0.0235 -0.1829
13335TIP3    H161420   3.129   5.889  11.325 -1.4256 -2.0522  1.1255
13335TIP3    H261421   3.086   5.805  11.207 -0.4474  0.5304 -1.1975
13336TIP3   OH261422   1.274   3.010  16.308  0.1310 -0.2174  0.4444
13336TIP3    H161423   1.322   3.081  16.351  0.9020 -0.2833 -0.2947
13336TIP3    H261424   1.275   3.033  16.215 -0.5471 -0.6544  0.3275
13337TIP3   OH261425   2.029   3.513   0.283  0.8345 -0.1721 -0.0230
13337TIP3    H161426   2.086   3.571   0.332 -0.0023  0.2433  0.4865
13337TIP3    H261427   2.047   3.426   0.319  1.8865 -0.2079 -0.5943
13338TIP3   OH261428   4.970   1.025  15.269  0.3001  0.3565  0.2853
13338TIP3    H161429   4.952   0.953  15.209  1.9246  0.7425 -0.7233
13338TIP3    H261430   4.968   1.103  15.213 -1.6489  1.1691  1.3888
13339TIP3   OH261431   2.725   3.838   0.404 -0.5420  0.4327  0.3298
13339TIP3    H161432   2.636   3.833   0.438 -0.2941  0.6325  1.0271
13339TIP3    H261433   2.772   3.892   0.468  0.5603 -1.2610  1.0385
13340TIP3   OH261434   4.531   3.010   0.772  0.6550  0.0659  0.2063
13340TIP3    H161435   4.478   2.965   0.705  0.4895  0.9467 -0.2680
13340TIP3    H261436   4.593   2.943   0.801  0.3859 -0.4928 -0.4543
13341TIP3   OH261437   6.163   6.534  14.712  0.3416  0.0526  0.3175
13341TIP3    H161438   6.136   6.581  14.791  3.1113  0.9017  0.8691
13341TIP3    H261439   6.141   6.443  14.730 -0.0978  0.3787  1.5698
13342TIP3   OH261440   3.081   3.562   5.453  0.3098 -0.1072  0.2077
13342TIP3    H161441   3.089   3.474   5.416 -0.2837 -0.1553  0.1809
13342TIP3    H261442   3.121   3.556   5.539 -0.9743 -0.7737  0.7762
13343TIP3   OH261443   0.071   5.527  13.494  0.4400  0.3836  0.4633
13343TIP3    H161444   0.060   5.621  13.510  2.1467  0.8318 -0.6853
13343TIP3    H261445   0.015   5.509  13.419  0.7115  0.6601  0.1928
13344TIP3   OH261446   0.371   2.388  14.825  0.1787  0.1316  0.7168
13344TIP3    H161447   0.397   2.443  14.899 -1.7397  0.2763  1.3238
13344TIP3    H261448   0.434   2.411  14.756  1.8145  0.2342  2.1497
13345TIP3   OH261449   1.114   1.746  14.380 -0.1576  0.1532  0.5221
13345TIP3    H161450   1.077   1.712  14.461 -0.0582 -0.2385  0.4079
13345TIP3    H261451   1.138   1.668  14.330  1.1896  0.3953  0.7568
13346TIP3   OH261452   3.112   3.658   4.436  0.0223 -0.0447 -0.0834
13346TIP3    H161453   3.180   3.687   4.497 -1.2711  1.1478  0.8810
13346TIP3    H261454   3.031   3.690   4.475 -1.2200 -2.2531 -0.6841
13347TIP3   OH261455   2.893   4.913   1.839  0.2996 -0.3625 -0.3404
13347TIP3    H161456   2.933   4.995   1.809  1.0485  0.0740  1.6941
13347TIP3    H261457   2.837   4.939   1.913 -1.5581 -1.3607 -1.3231
13348TIP3   OH261458   4.907   6.462  14.332  0.2382  0.0033 -0.3500
13348TIP3    H161459   4.860   6.399  14.387  0.1816 -0.0861 -0.4989
13348TIP3    H261460   4.848   6.536  14.325  1.0284  0.8298  1.2949
13349TIP3   OH261461   0.204   4.625  13.293  0.1208 -0.7748 -0.0448
13349TIP3    H161462   0.230   4.581  13.374  0.3108 -0.9596 -0.2052
13349TIP3    H261463   0.132   4.683  13.319  0.8505 -0.0722  0.4473
13350TIP3   OH261464   2.462   2.847  16.114 -0.6397  0.7997 -0.3717
13350TIP3    H161465   2.452   2.808  16.027 -2.6571  0.6866 -0.1307
13350TIP3    H261466   2.395   2.915  16.118 -1.1308  0.2625  1.3957
13351TIP3   OH261467   6.722   0.685   3.386 -0.4753  0.5919 -0.5145
13351TIP3    H161468   6.720   0.741   3.308 -0.0163  0.1170 -0.8715
13351TIP3    H261469   6.654   0.620   3.370  0.7030 -0.4967 -1.2818
13352TIP3   OH261470   3.481   0.811  16.683  0.2008  0.1572  0.1688
13352TIP3    H161471   3.569   0.775  16.696  0.6895  1.5992  1.0017
13352TIP3    H261472   3.493   0.906  16.684 -1.5392  0.4143  1.7492
13353TIP3   OH261473   5.024   4.085  13.650  0.0241 -0.3783  0.5918
13353TIP3    H161474   5.031   4.065  13.556 -0.3878 -1.9391  0.8763
13353TIP3    H261475   5.013   4.180  13.653 -2.4907 -0.5272 -1.0954
13354TIP3   OH261476   5.902   5.601  14.419  0.4309  0.2672  0.1411
13354TIP3    H161477   5.835   5.645  14.471  1.1876  1.3270  0.2520
13354TIP3    H261478   5.899   5.644  14.334  1.3425  0.7105  0.3267
13355TIP3   OH261479   4.156   5.176  12.059 -0.5318  0.5512 -0.1635
13355TIP3    H161480   4.169   5.271  12.062 -0.3363  0.5044  1.4471
13355TIP3    H261481   4.072   5.164  12.015 -1.6665  1.6316  1.5593
13356TIP3   OH261482   2.907   6.030   3.429 -0.1077 -0.2989  0.4908
13356TIP3    H161483   2.971   5.966   3.400 -0.0470  0.0802 -0.2347
13356TIP3    H261484   2.822   5.992   3.405 -0.0124  0.7170 -1.7685
13357TIP3   OH261485   6.369   6.271  14.627  0.1684 -0.5286 -0.2669
13357TIP3    H161486   6.314   6.245  14.552  0.4653  0.2277 -0.7593
13357TIP3    H261487   6.424   6.341  14.592 -0.6485  0.7974  1.0402
13358TIP3   OH261488   0.074   1.191   1.878  0.7177 -0.0976  0.1236
13358TIP3    H161489   0.104   1.111   1.921 -0.7163 -1.0830 -0.6317
13358TIP3    H261490  -0.020   1.195   1.898  0.6541  1.0808 -0.3500
13359TIP3   OH261491   2.951   1.164   3.670 -0.3071  0.1950 -0.1500
13359TIP3    H161492   2.913   1.125   3.749 -1.3824 -0.4952 -0.9861
13359TIP3    H261493   2.886   1.227   3.641 -0.0636  0.2097 -0.6659
13360TIP3   OH261494   6.358   2.714  15.356  0.0911  0.3984 -0.3301
13360TIP3    H161495   6.285   2.713  15.295  0.3285 -0.0702 -0.6203
13360TIP3    H261496   6.430   2.754  15.307 -0.2758  1.9804  0.3437
13361TIP3   OH261497   5.512   2.931   2.799  0.4355 -0.3246  0.1897
13361TIP3    H161498   5.590   2.947   2.853  1.6460  1.6382 -1.9879
13361TIP3    H261499   5.544   2.932   2.709 -2.2499  1.6989 -0.8526
13362TIP3   OH261500   2.602   3.095  12.475 -0.6014 -0.3437  0.5668
13362TIP3    H161501   2.532   3.031  12.472 -0.9763  0.0909 -1.0512
13362TIP3    H261502   2.566   3.172  12.431  0.5098  0.2725  0.6971
13363TIP3   OH261503   2.961   1.733  10.578  0.3126  0.1069  0.0579
13363TIP3    H161504   3.004   1.784  10.509 -0.4066  0.2158 -0.3203
13363TIP3    H261505   3.012   1.751  10.657 -0.7100  2.5374  0.2431
13364TIP3   OH261506   0.104   5.034  12.723 -0.1270 -0.3733 -0.1812
13364TIP3    H161507   0.050   5.010  12.648  1.1774  1.1878 -1.7152
13364TIP3    H261508   0.171   4.966  12.727 -0.1864 -0.4526 -0.4770
13365TIP3   OH261509   6.713   6.148   2.110 -0.0776  0.2481 -0.4764
13365TIP3    H161510   6.732   6.054   2.121  1.5279  0.1792 -2.9821
13365TIP3    H261511   6.623   6.151   2.079  0.5622 -0.7340 -2.6219
13366TIP3   OH261512   5.420   1.230   5.735 -0.5089  0.4742  0.0029
13366TIP3    H161513   5.467   1.277   5.665  1.5774 -2.9130 -1.0758
13366TIP3    H261514   5.367   1.166   5.688 -0.8502 -0.3607  1.4923
13367TIP3   OH261515   5.527   6.344   2.341 -0.1858 -0.0755  0.1541
13367TIP3    H161516   5.433   6.349   2.322  0.2134  0.2664 -2.0456
13367TIP3    H261517   5.550   6.431   2.373 -0.5659 -0.0830  0.4538
13368TIP3   OH261518   3.596   0.862   3.801  0.0524 -0.0795  0.5360
13368TIP3    H161519   3.649   0.783   3.792  0.4426  0.2630 -0.2201
13368TIP3    H261520   3.646   0.918   3.860  0.8502  0.4826 -0.6239
13369TIP3   OH261521   5.157   2.601   3.636  0.2975 -0.3323 -0.2263
13369TIP3    H161522   5.123   2.613   3.725 -1.5884  0.1158 -0.9481
13369TIP3    H261523   5.244   2.641   3.638 -0.2236  0.8236  1.1055
13370TIP3   OH261524   0.817   5.698   1.153 -0.2395 -0.0880  0.2043
13370TIP3    H161525   0.804   5.788   1.183  2.4707  0.8574 -1.0738
13370TIP3    H261526   0.817   5.646   1.233  0.3859  1.4137  1.2368
13371TIP3   OH261527   3.734   0.308  15.792 -0.1286  0.4287 -0.0063
13371TIP3    H161528   3.725   0.223  15.748 -1.2925  1.2124 -1.3703
13371TIP3    H261529   3.717   0.372  15.723  0.5510  1.7816  1.0427
13372TIP3   OH261530   4.088   5.314  13.349  0.3648 -0.5365 -0.3606
13372TIP3    H161531   3.997   5.325  13.377 -0.1882 -0.1596 -2.1097
13372TIP3    H261532   4.140   5.342  13.424 -1.0011  2.5185 -0.4009
13373TIP3   OH261533   3.841   0.898   5.179  0.4791 -0.1015  0.0286
13373TIP3    H161534   3.750   0.873   5.161  0.6438 -0.8531  0.1927
13373TIP3    H261535   3.836   0.948   5.261 -0.1597  2.5473 -1.5277
13374TIP3   OH261536   5.159   3.784   1.500  0.0792 -0.6197 -0.2645
13374TIP3    H161537   5.175   3.877   1.480 -0.3911 -0.7114 -1.1228
13374TIP3    H261538   5.068   3.781   1.528 -0.5077 -1.0845 -2.1122
13375TIP3   OH261539   4.987   0.028  16.668  0.4602  0.3535  0.1297
13375TIP3    H161540   5.009  -0.021  16.589  1.0045  0.5180  0.1763
13375TIP3    H261541   4.905  -0.011  16.698 -0.2359  0.9023 -1.0186
13376TIP3   OH261542   0.233   5.720  13.670 -0.0375 -0.2234 -0.1137
13376TIP3    H161543   0.305   5.723  13.607  1.7843  2.2279  1.8865
13376TIP3    H261544   0.161   5.767  13.627  1.6350  2.6753  0.0227
13377TIP3   OH261545   2.406   1.726   0.520 -0.4119  0.0425 -0.6182
13377TIP3    H161546   2.423   1.807   0.474 -2.3769  1.4549  0.9419
13377TIP3    H261547   2.359   1.672   0.457  1.5755 -0.2648 -1.9162
13378TIP3   OH261548   3.976   5.550  14.433  0.2879 -0.1657 -0.4177
13378TIP3    H161549   4.067   5.580  14.430 -0.4023  2.2137 -0.0453
13378TIP3    H261550   3.937   5.585  14.353 -0.1638 -1.7906 -0.9426
13379TIP3   OH261551   6.609   3.367   4.807  0.3732 -0.7434 -1.0170
13379TIP3    H161552   6.573   3.292   4.759  0.2242 -1.0843 -0.3921
13379TIP3    H261553   6.550   3.378   4.882  1.0437 -0.7314 -0.4772
13380TIP3   OH261554   0.280   0.962   4.915 -0.0708 -0.5120 -0.5154
13380TIP3    H161555   0.343   0.933   4.981 -0.0364  0.4494 -0.1050
13380TIP3    H261556   0.211   0.895   4.916  0.7274 -1.3511 -0.6728
13381TIP3   OH261557   3.915   5.786  11.611  0.4012  0.4403  0.0153
13381TIP3    H161558   3.893   5.737  11.532  2.9269  1.1079 -1.2059
13381TIP3    H261559   3.895   5.877  11.589  1.1625  0.6348  0.0880
13382TIP3   OH261560   2.347   5.044  14.855 -0.2386 -0.0785  0.2504
13382TIP3    H161561   2.311   5.133  14.852  1.3651  0.6910  1.6975
13382TIP3    H261562   2.436   5.052  14.820 -0.3993 -1.3215 -0.5090
13383TIP3   OH261563   2.231   3.137   1.730  0.2528  0.1150 -0.5867
13383TIP3    H161564   2.251   3.189   1.652  1.6484 -0.4800 -0.6707
13383TIP3    H261565   2.265   3.049   1.709 -0.8511 -0.4808  0.0550
13384TIP3   OH261566   1.393   1.035   5.607  0.2598 -0.2068  0.6603
13384TIP3    H161567   1.328   1.101   5.629  0.6648  0.1446  0.8269
13384TIP3    H261568   1.475   1.084   5.601  0.3811 -0.5039 -0.3540
13385TIP3   OH261569   0.097   1.381  15.747 -0.4473 -0.1755 -0.5252
13385TIP3    H161570   0.015   1.382  15.796 -0.1286 -0.4419  0.0329
13385TIP3    H261571   0.101   1.465  15.703 -0.4095  0.3651  0.4865
13386TIP3   OH261572   6.327   6.429   4.154 -0.2335 -0.0067  0.2574
13386TIP3    H161573   6.240   6.468   4.161 -0.6061 -0.6324 -0.6980
13386TIP3    H261574   6.348   6.400   4.243 -0.3922  1.3825  0.7803
13387TIP3   OH261575   2.296   0.245  10.996 -0.4207 -0.1480 -0.2785
13387TIP3    H161576   2.202   0.232  10.994 -0.3304 -0.8126 -2.6206
13387TIP3    H261577   2.332   0.165  10.959  1.0456  0.3751 -0.0576
13388TIP3   OH261578   4.676   0.450  16.823  0.0013  0.0958 -0.3383
13388TIP3    H161579   4.605   0.493  16.871  1.0327  0.0731  1.2715
13388TIP3    H261580   4.751   0.510  16.833  0.0899  0.4514 -2.5666
13389TIP3   OH261581   3.811   3.812  15.075 -0.2657 -0.2129 -0.4907
13389TIP3    H161582   3.785   3.777  15.160 -2.6578  0.7449 -0.7391
13389TIP3    H261583   3.904   3.835  15.086 -0.3252 -0.7541  1.6163
13390TIP3   OH261584   1.706   0.302   3.755  0.5644  0.4155 -0.3225
13390TIP3    H161585   1.740   0.341   3.674  0.4232  0.6931 -0.2485
13390TIP3    H261586   1.754   0.346   3.825  1.0062 -0.1399 -0.2675
13391TIP3   OH261587   3.476   0.134  13.264 -0.4563  0.1057 -0.1820
13391TIP3    H161588   3.537   0.090  13.205 -0.8862 -2.0790  0.8904
13391TIP3    H261589   3.502   0.226  13.262  1.6043 -0.4470 -1.2469
13392TIP3   OH261590   4.492   2.527  13.067 -0.4592  0.4833 -0.9946
13392TIP3    H161591   4.523   2.437  13.080  0.4480  0.9962  0.8831
13392TIP3    H261592   4.569   2.581  13.086 -1.2474  1.6712 -1.0999
13393TIP3   OH261593   0.696   5.600   0.267 -0.6488 -0.3772  0.2499
13393TIP3    H161594   0.661   5.663   0.331  1.9018  1.0963  0.3377
13393TIP3    H261595   0.690   5.646   0.183  0.4499 -0.3258  0.1881
13394TIP3   OH261596   5.390   5.460  14.215 -0.1515 -0.3636  0.4157
13394TIP3    H161597   5.483   5.473  14.232  0.0683 -0.2772 -0.7782
13394TIP3    H261598   5.356   5.549  14.198 -0.1580 -0.5252 -0.4912
13395TIP3   OH261599   0.742   5.098  14.723  0.2746  0.2725  0.0442
13395TIP3    H161600   0.696   5.051  14.654  0.4660 -0.0123  0.1097
13395TIP3    H261601   0.741   5.190  14.694 -1.1928  0.4424  0.5086
13396TIP3   OH261602   5.157   5.139   2.399 -0.0516  0.1450 -0.4262
13396TIP3    H161603   5.061   5.147   2.400 -0.1109 -0.3873 -1.1832
13396TIP3    H261604   5.189   5.228   2.409 -0.6373  0.4236 -0.9772
13397TIP3   OH261605   4.979   5.806  11.538 -0.0357 -0.2719 -0.0655
13397TIP3    H161606   4.886   5.828  11.534  0.0938  0.0854 -1.4827
13397TIP3    H261607   4.983   5.733  11.600 -1.0891  0.4927  0.9514
13398TIP3   OH261608   0.860   5.311  16.172  0.1919  0.1948  0.3196
13398TIP3    H161609   0.881   5.267  16.254  0.0971  0.5199  0.5221
13398TIP3    H261610   0.900   5.257  16.104  1.2752  0.5467  0.6573
13399TIP3   OH261611   4.927   2.626  16.950 -0.0979  0.1188  0.0566
13399TIP3    H161612   5.018   2.605  16.968 -0.1414 -0.9918 -0.8932
13399TIP3    H261613   4.892   2.656  17.033  1.2960  1.2057  0.2859
13400TIP3   OH261614   1.965   0.765   5.736 -0.5682  0.1547 -0.3543
13400TIP3    H161615   1.943   0.846   5.783 -1.1226  0.4161 -1.0560
13400TIP3    H261616   1.962   0.789   5.644 -1.1903 -0.7788 -0.5868
13401TIP3   OH261617   2.256   3.754  11.763 -0.3520  0.5888 -0.5832
13401TIP3    H161618   2.251   3.664  11.732  0.0132  0.6052 -0.7041
13401TIP3    H261619   2.292   3.803  11.688  0.9731  0.5494  0.0045
13402TIP3   OH261620   3.890   2.173   3.569 -0.6110 -0.0632 -0.5175
13402TIP3    H161621   3.899   2.109   3.639  1.0076  0.1180 -0.5236
13402TIP3    H261622   3.839   2.128   3.501 -0.1494 -1.0615 -0.2157
13403TIP3   OH261623   0.364   0.889  16.056 -0.1920 -0.3948  0.1632
13403TIP3    H161624   0.393   0.970  16.015 -3.0573  0.1449 -1.0716
13403TIP3    H261625   0.345   0.914  16.147  1.2388 -0.3124  0.4535
13404TIP3   OH261626   6.579   1.462   4.251 -0.3135 -0.0089  0.0189
13404TIP3    H161627   6.655   1.466   4.194 -0.1739  0.1896  0.2210
13404TIP3    H261628   6.591   1.381   4.302 -0.2194  0.0411  0.0760
13405TIP3   OH261629   3.576   0.322   6.507  0.6519 -0.2188 -0.2874
13405TIP3    H161630   3.503   0.368   6.547  1.3035  0.6061 -0.0190
13405TIP3    H261631   3.645   0.388   6.499  0.9475 -0.6685 -1.6949
13406TIP3   OH261632   3.585   3.950  16.419  0.1668 -0.4188 -0.4259
13406TIP3    H161633   3.509   3.894  16.438 -1.0434  0.7821 -1.4689
13406TIP3    H261634   3.643   3.937  16.494 -1.2960 -1.0004  0.6714
13407TIP3   OH261635   2.369   2.183  11.265 -0.0411  0.4056  0.8122
13407TIP3    H161636   2.324   2.150  11.187  0.7501  0.0292  0.5149
13407TIP3    H261637   2.433   2.246  11.231  1.2461 -0.7544  1.0199
13408TIP3   OH261638   3.774   0.936   1.938  0.0112  0.3767  0.0602
13408TIP3    H161639   3.743   0.973   1.855 -2.4273 -0.2290  0.5945
13408TIP3    H261640   3.693   0.913   1.985  1.3295 -0.1401  2.2232
13409TIP3   OH261641   0.758   2.946  14.176  0.1287  0.4034 -0.5060
13409TIP3    H161642   0.827   2.988  14.227 -0.1048 -1.5034  1.5639
13409TIP3    H261643   0.790   2.857  14.162 -1.0339  0.0882 -1.3026
13410TIP3   OH261644   0.065   3.120  17.152 -0.1402 -0.1326 -0.5101
13410TIP3    H161645   0.131   3.051  17.140 -1.3858 -1.1092 -2.1376
13410TIP3    H261646   0.014   3.091  17.228 -0.4525 -0.8859 -0.9844
13411TIP3   OH261647   2.543   5.789  10.690 -0.7214 -0.1257 -0.0876
13411TIP3    H161648   2.551   5.871  10.738 -0.5623 -0.3469  0.2686
13411TIP3    H261649   2.459   5.796  10.644  0.4904  1.3449 -2.2246
13412TIP3   OH261650   4.921   4.158   2.188 -0.5688  0.3789  0.1160
13412TIP3    H161651   4.993   4.158   2.252 -0.8036 -0.6735  0.4073
13412TIP3    H261652   4.909   4.250   2.165  0.7265  0.5984  0.2299
13413TIP3   OH261653   0.177   3.561   2.937 -0.2694 -0.8475  0.4055
13413TIP3    H161654   0.207   3.651   2.926  0.6721 -0.9668  1.7826
13413TIP3    H261655   0.194   3.520   2.852 -1.0383  0.3413 -0.3520
13414TIP3   OH261656   4.635   6.348   0.253  0.3396 -0.1750  0.6506
13414TIP3    H161657   4.585   6.425   0.228  0.5803 -0.5880 -1.3108
13414TIP3    H261658   4.575   6.297   0.307 -0.8237  0.0864 -0.3443
13415TIP3   OH261659   3.759   3.309   1.729  0.2357  0.0572 -0.3989
13415TIP3    H161660   3.754   3.242   1.661 -1.3278  0.2261 -0.4930
13415TIP3    H261661   3.745   3.262   1.811  1.2170 -0.0160 -0.2640
13416TIP3   OH261662   4.710   1.817   6.220  0.2492  0.5657  0.3501
13416TIP3    H161663   4.707   1.910   6.239 -0.1387  0.1723  2.5733
13416TIP3    H261664   4.782   1.784   6.275 -0.2862 -0.5747  0.3936
13417TIP3   OH261665   6.410   1.548  12.516  0.0486 -0.0676 -0.0135
13417TIP3    H161666   6.477   1.542  12.448  0.9439 -1.3405  0.9267
13417TIP3    H261667   6.353   1.473  12.500 -1.8860  1.5856 -1.4630
13418TIP3   OH261668   5.882   3.344   2.455  0.3175 -0.1448 -0.4056
13418TIP3    H161669   5.847   3.258   2.431  0.0240  0.1779 -1.1560
13418TIP3    H261670   5.970   3.324   2.490 -1.2963 -1.2161  3.6766
13419TIP3   OH261671   5.849   0.637  12.071 -0.0324 -0.0900  0.0300
13419TIP3    H161672   5.759   0.640  12.039  0.2251  1.7025 -0.6493
13419TIP3    H261673   5.857   0.713  12.128  0.6905 -0.9894  1.1897
13420TIP3   OH261674   0.967   0.161  16.542 -0.2352  0.3441 -0.0812
13420TIP3    H161675   0.977   0.154  16.637  1.1186  1.7446 -0.0823
13420TIP3    H261676   0.892   0.220  16.529  0.6812  1.6008  0.1706
13421TIP3   OH261677   0.958   1.533  13.609  0.3688  0.2558 -0.3803
13421TIP3    H161678   0.984   1.508  13.698  1.6319  0.3944 -0.6850
13421TIP3    H261679   1.038   1.571  13.571  0.0237 -0.3492 -1.7679
13422TIP3   OH261680   5.631   6.159  13.985  0.0314  0.1770 -0.4555
13422TIP3    H161681   5.567   6.206  13.932  1.3871  2.1474 -0.4338
13422TIP3    H261682   5.663   6.224  14.048 -0.1787 -1.5928  1.5833
13423TIP3   OH261683   0.932   3.637   2.653  0.1228 -0.2721  0.1311
13423TIP3    H161684   0.841   3.666   2.644 -0.9198 -3.0955  0.2700
13423TIP3    H261685   0.949   3.642   2.747 -0.1894 -0.4540  0.2021
13424TIP3   OH261686   0.747   0.091  11.269 -0.0641  0.2543 -0.3350
13424TIP3    H161687   0.823   0.033  11.277 -0.0430  0.3529  0.2474
13424TIP3    H261688   0.774   0.157  11.204 -0.2310 -0.5882 -1.2783
13425TIP3   OH261689   6.010   3.786   3.879 -0.3112  0.0161  0.0994
13425TIP3    H161690   6.097   3.753   3.859 -0.2577  1.0254 -1.5622
13425TIP3    H261691   6.026   3.865   3.932 -0.2533 -0.2452  0.4715
13426TIP3   OH261692   6.768   6.211   2.825  0.2713  0.0469 -0.7566
13426TIP3    H161693   6.793   6.297   2.791  1.2515 -0.3862 -1.1710
13426TIP3    H261694   6.794   6.214   2.918 -1.6415  0.9285 -0.1906
13427TIP3   OH261695   3.038   5.059  14.248 -0.1487  0.0776  0.4028
13427TIP3    H161696   3.020   5.115  14.173 -0.3598  0.6314  0.8593
13427TIP3    H261697   3.019   5.114  14.324 -1.6091 -1.0034  0.8682
13428TIP3   OH261698   3.828   4.263   5.905  0.6525 -0.1143 -0.2285
13428TIP3    H161699   3.859   4.353   5.905  2.1008 -0.5864  0.3726
13428TIP3    H261700   3.880   4.219   5.973 -0.4658 -1.2574 -0.0576
13429TIP3   OH261701   6.152   5.715   4.254 -0.0367 -0.3352 -0.1557
13429TIP3    H161702   6.098   5.697   4.331  0.4481  0.8012  0.4808
13429TIP3    H261703   6.112   5.665   4.183 -0.5298 -1.3541  0.8241
13430TIP3   OH261704   1.213   1.425  14.522  0.3565 -0.1462 -0.4033
13430TIP3    H161705   1.160   1.491  14.566 -0.5899 -1.5179  0.5486
13430TIP3    H261706   1.192   1.436  14.429 -0.5387  0.2243 -0.1612
13431TIP3   OH261707   3.071   1.302   5.886  0.3819 -0.4020 -0.3595
13431TIP3    H161708   3.163   1.292   5.859  1.1047  2.1077  0.8083
13431TIP3    H261709   3.026   1.330   5.807  0.7798 -0.9282 -0.7796
13432TIP3   OH261710   2.133   2.418  11.263  0.0508  0.2703 -0.3605
13432TIP3    H161711   2.043   2.385  11.260 -0.0407  0.5385 -0.7257
13432TIP3    H261712   2.159   2.423  11.171  1.0223 -1.3462 -0.2162
13433TIP3   OH261713   3.853   3.537   4.562  0.0574  0.0935  0.1363
13433TIP3    H161714   3.765   3.554   4.529  0.5690  1.3517 -0.6591
13433TIP3    H261715   3.851   3.446   4.593 -1.1266 -0.3309 -1.1192
13434TIP3   OH261716   2.124   3.979   0.681 -1.0342  0.1284 -0.4304
13434TIP3    H161717   2.034   3.963   0.652 -0.6077 -0.0363 -1.7559
13434TIP3    H261718   2.173   3.990   0.599 -0.0440  1.3059  0.2904
13435TIP3   OH261719   4.760   6.523  13.562  0.7955  0.2298  0.0048
13435TIP3    H161720   4.783   6.459  13.494  2.9535 -1.7320  2.3596
13435TIP3    H261721   4.818   6.598  13.544 -0.5079  0.8706 -1.7564
13436TIP3   OH261722   2.532   6.238  16.056  0.3608 -0.3491  0.0099
13436TIP3    H161723   2.447   6.198  16.075 -0.6060  1.8610  0.5611
13436TIP3    H261724   2.525   6.268  15.965 -0.4301  2.0299  0.7925
13437TIP3   OH261725   5.557   4.877   4.723  0.0371  0.4176  0.5180
13437TIP3    H161726   5.563   4.810   4.792 -0.9147  1.2446  1.4382
13437TIP3    H261727   5.469   4.912   4.732 -0.4780 -0.1377 -1.8136
13438TIP3   OH261728   2.683   0.297  15.629 -0.6291  0.2518 -0.0221
13438TIP3    H161729   2.635   0.358  15.685  0.6613  0.8967  0.4333
13438TIP3    H261730   2.710   0.349  15.554  0.6222  0.3057  0.4459
13439TIP3   OH261731   1.633   5.783   2.591  0.0221 -0.0372 -0.3087
13439TIP3    H161732   1.617   5.732   2.512 -1.4320 -0.9716  0.5385
13439TIP3    H261733   1.550   5.828   2.608 -0.4102 -1.4653  1.7801
13440TIP3   OH261734   5.337   0.641   2.351  0.4447 -0.1436  0.3737
13440TIP3    H161735   5.242   0.643   2.339  0.4684 -0.5470  0.0801
13440TIP3    H261736   5.372   0.677   2.270  0.5396  0.1235  0.5334
13441TIP3   OH261737   4.104   2.334  14.625 -0.2108 -0.3148  0.3797
13441TIP3    H161738   4.039   2.377  14.569  1.2125 -0.4488 -1.4905
13441TIP3    H261739   4.076   2.243  14.629  1.2262 -1.0463 -2.7981
13442TIP3   OH261740   4.645   0.051  16.923 -0.1650  0.3982 -0.1009
13442TIP3    H161741   4.577   0.016  16.981 -0.1590  0.0815 -0.2821
13442TIP3    H261742   4.596   0.083  16.846 -0.2889  1.8753  0.5618
13443TIP3   OH261743   4.303   3.200  15.988  0.2982  0.2881 -0.0825
13443TIP3    H161744   4.375   3.143  15.959  0.0493 -0.6924  1.1187
13443TIP3    H261745   4.347   3.271  16.036  0.4950 -0.2391  0.5385
13444TIP3   OH261746   0.474   5.649   3.005 -0.2531  0.2005  0.2036
13444TIP3    H161747   0.563   5.639   3.039  0.3812 -0.6110 -1.5591
13444TIP3    H261748   0.442   5.731   3.044  1.5923  0.9773  0.1814
13445TIP3   OH261749   6.014   3.170  11.816  0.0493 -0.3379  0.1860
13445TIP3    H161750   6.077   3.220  11.764 -0.5411  0.0602 -0.1589
13445TIP3    H261751   6.014   3.214  11.902 -1.4532  1.1605 -0.5079
13446TIP3   OH261752   1.580   5.480  14.144  0.1898 -0.1281 -0.3858
13446TIP3    H161753   1.494   5.510  14.115  0.1344  0.7113  0.5740
13446TIP3    H261754   1.575   5.385  14.138 -0.5742 -0.0607 -0.9734
13447TIP3   OH261755   6.274   2.277  10.820  0.3210  0.3048  0.1629
13447TIP3    H161756   6.274   2.311  10.910  1.0131  1.2828 -0.1793
13447TIP3    H261757   6.188   2.300  10.786  0.7228  1.6310 -0.0094
13448TIP3   OH261758   3.310   6.332   3.924 -0.2138 -0.9883  0.2239
13448TIP3    H161759   3.356   6.408   3.959  0.8925 -1.1741 -0.7573
13448TIP3    H261760   3.286   6.280   4.001  0.4972 -0.4750  0.7965
13449TIP3   OH261761   0.338   0.939   0.178 -0.2379 -0.0281  0.3958
13449TIP3    H161762   0.296   0.906   0.098 -0.6720 -1.7161  1.2572
13449TIP3    H261763   0.303   0.883   0.248  2.5324 -0.7310  1.3360
13450TIP3   OH261764   5.962   4.693  11.356 -0.0582 -0.1685  0.1979
13450TIP3    H161765   5.912   4.759  11.404 -0.0599 -0.4484  0.5935
13450TIP3    H261766   6.034   4.741  11.316  0.6455 -0.0978  1.4818
13451TIP3   OH261767   2.915   5.128  14.977 -0.1222 -0.0898  0.1439
13451TIP3    H161768   2.910   5.177  15.058  1.0788 -1.5354  1.1445
13451TIP3    H261769   2.999   5.152  14.939  0.6397 -1.5581  0.8186
13452TIP3   OH261770   5.892   6.552  14.020 -0.1058 -0.2127 -0.4680
13452TIP3    H161771   5.914   6.544  14.113 -1.4312  0.4373 -0.0646
13452TIP3    H261772   5.857   6.641  14.012 -1.4863 -0.7882 -1.2502
13453TIP3   OH261773   4.631   3.270   1.930 -0.3488  0.4062 -0.5479
13453TIP3    H161774   4.580   3.350   1.946 -0.7650 -0.5303  4.0303
13453TIP3    H261775   4.567   3.208   1.895 -1.6471  0.3329  1.7397
13454TIP3   OH261776   4.970   2.518  12.856 -0.2225  0.2016  0.0834
13454TIP3    H161777   4.905   2.451  12.836 -1.5848  1.5659 -0.2700
13454TIP3    H261778   5.019   2.483  12.931 -0.1510 -1.6341 -0.7723
13455TIP3   OH261779   4.805   4.944   3.201 -0.6558  0.4623 -0.1215
13455TIP3    H161780   4.714   4.920   3.223 -0.3656 -1.5914 -0.9487
13455TIP3    H261781   4.805   4.952   3.106  0.3070 -0.9249 -0.2552
13456TIP3   OH261782   6.660   2.724  12.296  0.1245 -0.1293  0.2542
13456TIP3    H161783   6.752   2.732  12.271 -0.4173  1.9231 -1.4760
13456TIP3    H261784   6.652   2.775  12.377  0.0744  2.3103 -1.1645
13457TIP3   OH261785   6.748   2.886   4.726 -0.1629 -0.0163 -0.2885
13457TIP3    H161786   6.812   2.956   4.739 -1.1228  1.1258 -1.4176
13457TIP3    H261787   6.773   2.845   4.644  0.0232 -0.5765  0.0486
13458TIP3   OH261788   4.515   4.921   5.855 -0.1489  0.0430 -0.1992
13458TIP3    H161789   4.499   5.005   5.898 -0.5532 -0.2508  0.2265
13458TIP3    H261790   4.599   4.892   5.890  0.3231  0.5740 -0.8443
13459TIP3   OH261791   1.649   4.279  13.990  0.6584  0.5106  0.2423
13459TIP3    H161792   1.629   4.247  14.077  1.2112  0.4920  0.3645
13459TIP3    H261793   1.726   4.229  13.962  0.8843  0.9738  0.0127
13460TIP3   OH261794   6.542   4.612   2.309  0.3760  0.2219  0.2767
13460TIP3    H161795   6.600   4.541   2.337 -1.5810 -1.4806  0.3146
13460TIP3    H261796   6.513   4.654   2.390 -0.0702 -0.3164  0.4027
13461TIP3   OH261797   5.461   2.557   4.030  0.1510  0.2649 -0.5182
13461TIP3    H161798   5.371   2.546   4.060  0.2851 -0.7212 -0.4657
13461TIP3    H261799   5.456   2.548   3.935  0.4177 -1.4695 -0.3939
13462TIP3   OH261800   1.170   1.003  11.676 -0.0483 -0.0074  0.5778
13462TIP3    H161801   1.175   0.955  11.759 -0.2427 -2.5548 -0.7968
13462TIP3    H261802   1.202   0.942  11.611  2.4019  2.7285 -1.0344
13463TIP3   OH261803   2.039   6.304   2.415 -0.0531  0.2441  0.8919
13463TIP3    H161804   2.082   6.322   2.499 -0.0583  0.7515  0.7923
13463TIP3    H261805   1.950   6.280   2.438  0.4733 -1.5983  1.1531
13464TIP3   OH261806   0.684   5.013   5.390  0.2209 -0.4890  0.5017
13464TIP3    H161807   0.641   4.987   5.309  0.7383 -0.9435  0.3661
13464TIP3    H261808   0.624   5.076   5.430 -1.0969 -1.9031  0.8448
13465TIP3   OH261809   2.452   5.391  12.233 -0.0913 -0.1740  0.0193
13465TIP3    H161810   2.368   5.346  12.243  0.2243 -0.4802  1.4237
13465TIP3    H261811   2.451   5.424  12.143 -1.6810 -0.2425 -0.0114
13466TIP3   OH261812   2.298   3.866   4.199 -0.6303  0.3456  0.4412
13466TIP3    H161813   2.315   3.959   4.208 -1.1693  0.5065 -0.1704
13466TIP3    H261814   2.205   3.855   4.219 -0.1187 -0.4050  2.8111
13467TIP3   OH261815   0.436   5.072   3.526  0.3821 -0.2582  0.0737
13467TIP3    H161816   0.463   5.042   3.613 -1.2843 -0.1540  0.6729
13467TIP3    H261817   0.422   4.992   3.476  1.0807 -0.3229 -0.0326
13468TIP3   OH261818   2.593   1.510   2.788  0.2832  0.6301 -0.3655
13468TIP3    H161819   2.651   1.465   2.726 -0.5218  1.5686 -1.8663
13468TIP3    H261820   2.638   1.504   2.872  1.2073 -1.0684 -0.9383
13469TIP3   OH261821   6.594   5.422   3.046  0.1028 -0.7420 -0.3193
13469TIP3    H161822   6.548   5.354   2.997 -0.2931 -0.5001 -0.2839
13469TIP3    H261823   6.643   5.471   2.980  0.4771 -1.1270 -0.3324
13470TIP3   OH261824   3.523   5.892   0.203  0.0849 -0.1937  0.4240
13470TIP3    H161825   3.616   5.894   0.179 -0.1849 -1.4955 -0.9253
13470TIP3    H261826   3.481   5.953   0.142  0.2023  1.5596  2.0203
13471TIP3   OH261827   2.725   4.597   4.993  0.4668  0.4122  0.2440
13471TIP3    H161828   2.747   4.671   4.935 -2.4444  1.2909  0.1114
13471TIP3    H261829   2.715   4.523   4.934  2.6927 -0.0073  0.2987
13472TIP3   OH261830   4.035   3.206  11.862  0.1213  0.1161 -0.5867
13472TIP3    H161831   4.096   3.233  11.792  1.6943 -0.7384  0.3898
13472TIP3    H261832   4.092   3.167  11.929 -0.6599  4.6476  3.2181
13473TIP3   OH261833   0.000   4.181   3.274  0.0849 -0.0922 -0.3944
13473TIP3    H161834  -0.057   4.211   3.344 -1.1068 -1.1600 -0.8736
13473TIP3    H261835   0.047   4.106   3.312  1.6440  1.1178  0.1826
13474TIP3   OH261836   2.868   1.698   3.853 -0.1001 -0.3094  0.4084
13474TIP3    H161837   2.910   1.612   3.860 -0.1107 -0.5586 -1.8490
13474TIP3    H261838   2.839   1.703   3.762 -1.3147  1.5499  0.8458
13475TIP3   OH261839   2.208   0.752   2.474  0.4150  0.3923  0.4803
13475TIP3    H161840   2.167   0.745   2.388 -0.3312 -0.0110  0.8535
13475TIP3    H261841   2.234   0.844   2.480 -0.7140  0.7484  0.3353
13476TIP3   OH261842   1.372   4.862   3.344 -0.0393  0.1090  0.1509
13476TIP3    H161843   1.364   4.952   3.313 -1.4187  0.8623  2.3827
13476TIP3    H261844   1.460   4.856   3.382  0.1508  0.4351 -0.2465
13477TIP3   OH261845   3.903   3.348   1.431 -0.2180  0.0733  0.0375
13477TIP3    H161846   3.843   3.417   1.459  0.3459  0.4129  0.4326
13477TIP3    H261847   3.979   3.394   1.398 -0.4207 -0.3501 -1.0552
13478TIP3   OH261848   0.057   4.718  14.382 -0.4211 -0.0021 -0.1502
13478TIP3    H161849   0.040   4.807  14.351 -0.5249  0.8481  2.2133
13478TIP3    H261850   0.140   4.723  14.429  0.3326 -1.5108 -1.2251
13479TIP3   OH261851   6.108   0.587  13.133  0.1391  0.2434  0.1595
13479TIP3    H161852   6.149   0.533  13.065  1.4877  0.5959  0.6548
13479TIP3    H261853   6.143   0.675  13.117 -0.8226  0.6597  0.3087
13480TIP3   OH261854   2.335   0.066   3.257  0.3455 -0.5537  0.0596
13480TIP3    H161855   2.305   0.132   3.321 -0.2429  1.2885 -1.9852
13480TIP3    H261856   2.426   0.050   3.280 -0.1813 -0.8942  2.0973
13481TIP3   OH261857   4.076   3.631  13.361 -0.2395  0.3762  0.2598
13481TIP3    H161858   3.986   3.656  13.338  0.3784  1.4349 -1.2072
13481TIP3    H261859   4.096   3.683  13.439  0.3183  3.1796 -1.5693
13482TIP3   OH261860   4.270   4.886   6.045 -0.1897  0.6177 -0.0825
13482TIP3    H161861   4.300   4.849   5.962  1.7476  0.6599  0.5552
13482TIP3    H261862   4.276   4.813   6.107  1.7061  1.4121  0.7422
13483TIP3   OH261863   6.569   5.474  11.618 -0.0139  0.3812  0.1281
13483TIP3    H161864   6.492   5.422  11.596 -0.4949  0.6509  1.1055
13483TIP3    H261865   6.626   5.414  11.667  0.8735 -0.1045 -1.4182
13484TIP3   OH261866   2.774   0.323  15.102 -0.0532 -1.2389 -0.0906
13484TIP3    H161867   2.809   0.285  15.021  0.1816 -0.7668 -0.2142
13484TIP3    H261868   2.824   0.403  15.115 -1.0996 -0.5270 -0.2838
13485TIP3   OH261869   0.331   6.581  11.152  0.0660  0.1588  0.1533
13485TIP3    H161870   0.238   6.597  11.168  0.2427  0.4075  0.9758
13485TIP3    H261871   0.364   6.665  11.119 -0.5151 -0.6272 -2.7530
13486TIP3   OH261872   4.250   2.721   4.681  0.2415  0.2666  0.0485
13486TIP3    H161873   4.294   2.740   4.598 -0.3525 -1.2962 -0.6617
13486TIP3    H261874   4.171   2.775   4.679  0.6832  0.9194  0.0201
13487TIP3   OH261875   3.126   3.033   6.203  0.0301 -0.0582 -0.0357
13487TIP3    H161876   3.114   3.082   6.121  0.6904 -2.0783 -1.4333
13487TIP3    H261877   3.192   3.082   6.251  0.6654  0.4631 -1.3702
13488TIP3   OH261878   4.950   2.744  13.300  0.2946 -0.4934 -0.1685
13488TIP3    H161879   5.013   2.809  13.268 -0.5849  0.1753 -0.5851
13488TIP3    H261880   4.997   2.661  13.296  1.4377  0.1018  0.3494
13489TIP3   OH261881   0.604   1.997   1.475 -0.3838 -0.5269 -0.0951
13489TIP3    H161882   0.624   2.058   1.547 -0.2765 -1.2863  0.5348
13489TIP3    H261883   0.666   2.020   1.406 -1.6451  1.3993 -0.6681
13490TIP3   OH261884   6.699   3.268  14.279  0.9172 -0.1073 -0.3177
13490TIP3    H161885   6.670   3.227  14.360 -0.4554  1.5604  0.1039
13490TIP3    H261886   6.682   3.362  14.292  1.6522  0.3290 -2.1313
13491TIP3   OH261887   5.473   2.546   1.558  0.2281 -0.8456 -0.1000
13491TIP3    H161888   5.479   2.594   1.640  0.7074 -0.0014 -0.6152
13491TIP3    H261889   5.564   2.534   1.531  0.1388 -2.3524  0.1796
13492TIP3   OH261890   6.349   5.515   3.186 -0.2784 -0.2542 -0.1869
13492TIP3    H161891   6.372   5.456   3.115  2.0793 -2.1512  1.9638
13492TIP3    H261892   6.280   5.470   3.234  0.2592 -0.4346  0.4300
13493TIP3   OH261893   1.256   3.788   0.025 -0.6552  0.6614 -0.4834
13493TIP3    H161894   1.214   3.775   0.110 -0.4670 -0.2702 -0.5197
13493TIP3    H261895   1.222   3.872  -0.006 -0.5406  1.1289  0.6145
13494TIP3   OH261896   4.166   4.115   5.250 -0.1362 -1.0569 -0.5817
13494TIP3    H161897   4.071   4.108   5.248 -0.2004 -0.8769  0.7890
13494TIP3    H261898   4.188   4.116   5.343  1.1220  0.1614 -0.8622
13495TIP3   OH261899   3.203   5.191  11.227  0.4264  0.6222 -0.2774
13495TIP3    H161900   3.255   5.123  11.270 -0.2510  0.9529  1.1263
13495TIP3    H261901   3.264   5.231  11.164  1.2543 -0.3244 -0.1102
13496TIP3   OH261902   1.057   5.854  16.704  0.5368 -0.4552 -0.0602
13496TIP3    H161903   1.138   5.905  16.700  0.6957 -0.5951  1.0687
13496TIP3    H261904   1.025   5.867  16.793 -1.2332  0.4082 -0.7858
13497TIP3   OH261905   6.482   2.801  13.572  0.1573 -0.4319  0.1732
13497TIP3    H161906   6.460   2.725  13.627 -0.1480 -0.4321  0.0486
13497TIP3    H261907   6.544   2.851  13.626  0.5254 -0.8763  0.1747
13498TIP3   OH261908   1.174   0.550   2.608  0.0153  0.5116  0.1489
13498TIP3    H161909   1.087   0.564   2.571  0.5254  1.3305 -0.7910
13498TIP3    H261910   1.230   0.534   2.532  0.3020 -2.3900  0.8455
13499TIP3   OH261911   0.088   5.106  11.646 -0.2700 -0.2926 -0.1434
13499TIP3    H161912   0.007   5.101  11.596 -0.2764 -0.0845 -0.1550
13499TIP3    H261913   0.107   5.200  11.653  0.1773 -0.3520 -0.4804
13500TIP3   OH261914   0.787   3.949   3.293 -0.2591  0.0356 -0.0854
13500TIP3    H161915   0.857   3.886   3.277 -0.1635  0.5624 -2.0090
13500TIP3    H261916   0.823   4.033   3.265 -0.6252  0.8766  1.7904
13501TIP3   OH261917   0.759   1.413  12.794  0.6698 -0.1188 -0.2776
13501TIP3    H161918   0.698   1.381  12.861 -0.5423  0.0042 -1.2835
13501TIP3    H261919   0.841   1.426  12.841  0.2101 -1.2603  0.9121
13502TIP3   OH261920   1.421   1.924   0.195 -0.5225 -0.1346 -0.0436
13502TIP3    H161921   1.475   1.974   0.255 -0.3044  1.1537 -1.2505
13502TIP3    H261922   1.342   1.977   0.183  0.0188  0.3573 -1.8968
13503TIP3   OH261923   1.233   1.904  13.973  0.3702 -0.0166  1.1219
13503TIP3    H161924   1.203   1.987  13.937  0.1090  0.1415  1.6988
13503TIP3    H261925   1.157   1.869  14.020  0.3720 -0.7450  0.5981
13504TIP3   OH261926   5.990   4.795  16.835 -0.0121 -0.2847  0.0047
13504TIP3    H161927   5.940   4.717  16.861 -0.5769 -0.3317 -1.2024
13504TIP3    H261928   6.067   4.759  16.790 -1.3658 -0.1737 -2.5722
13505TIP3   OH261929   6.511   0.511   3.565  0.3472 -0.2747  0.4228
13505TIP3    H161930   6.522   0.480   3.655  0.5823 -0.6901  0.2566
13505TIP3    H261931   6.546   0.440   3.511 -0.0434 -0.1432 -0.0064
13506TIP3   OH261932   1.977   4.926   5.725  0.0900 -0.2497  0.5176
13506TIP3    H161933   1.925   5.002   5.752 -2.9827 -1.5868 -1.0784
13506TIP3    H261934   1.966   4.922   5.630  1.8125 -1.5903  0.3254
13507TIP3   OH261935   3.571   6.169  11.885 -0.3128  0.2536 -0.2660
13507TIP3    H161936   3.498   6.108  11.887  0.7712 -1.1220  2.6151
13507TIP3    H261937   3.545   6.239  11.945 -0.5929  1.4948 -1.7897
13508TIP3   OH261938   6.565   5.467  16.115 -0.0835  0.0680  0.7939
13508TIP3    H161939   6.579   5.378  16.148 -0.3548 -0.2128  0.1718
13508TIP3    H261940   6.635   5.518  16.155  0.6351 -0.6114  0.4426
13509TIP3   OH261941   4.674   4.029   1.603  0.0497 -0.5380 -0.5092
13509TIP3    H161942   4.708   4.092   1.539  0.2801 -0.7662 -0.6147
13509TIP3    H261943   4.752   3.986   1.637  0.4335  2.5830  3.1784
13510TIP3   OH261944   3.528   3.873  15.870 -0.0560  0.5592  0.0164
13510TIP3    H161945   3.607   3.840  15.828 -1.6390 -0.1392 -2.6451
13510TIP3    H261946   3.543   3.967  15.879  0.5654  0.6608 -1.7651
13511TIP3   OH261947   0.831   3.827   3.965 -0.4023 -0.6696  0.3111
13511TIP3    H161948   0.856   3.916   3.942 -1.4024 -0.5028 -0.2059
13511TIP3    H261949   0.760   3.838   4.028 -0.2684 -1.1109  0.5449
13512TIP3   OH261950   2.091   6.454  16.897 -0.5061 -0.1692  0.7755
13512TIP3    H161951   2.124   6.515  16.831 -2.3821  1.8912  1.6443
13512TIP3    H261952   2.122   6.490  16.980  0.9870 -2.1963  1.1947
13513TIP3   OH261953   2.893   3.743   5.736  0.2948 -0.3302  0.0217
13513TIP3    H161954   2.798   3.738   5.748 -0.0719  1.2067 -1.8378
13513TIP3    H261955   2.906   3.735   5.642  2.0119 -0.2436  0.2209
13514TIP3   OH261956   4.066   5.695  17.075  0.6183  0.0049 -0.7061
13514TIP3    H161957   4.076   5.646  16.993  2.0589  0.9207 -1.1136
13514TIP3    H261958   4.016   5.773  17.050 -0.2147 -0.4141 -0.3963
13515TIP3   OH261959   6.311   3.757  12.770  0.1453 -0.1085  0.5749
13515TIP3    H161960   6.274   3.823  12.712  1.2821 -0.3401 -0.4699
13515TIP3    H261961   6.281   3.781  12.858 -0.8113  0.8169  0.0044
13516TIP3   OH261962   1.454   2.823  15.101  0.2804  0.0242 -0.2393
13516TIP3    H161963   1.429   2.792  15.188  0.0198 -0.0145 -0.3272
13516TIP3    H261964   1.540   2.864  15.113  1.0400 -1.4613 -0.2664
13517TIP3   OH261965   6.580   2.559  17.217  0.1916 -0.1314  0.0665
13517TIP3    H161966   6.540   2.570  17.131 -0.5870  1.1070  0.5678
13517TIP3    H261967   6.629   2.640  17.231  0.1912 -0.2645  0.8528
13518TIP3   OH261968   5.573   0.581  12.318 -0.5062 -0.6821 -0.4270
13518TIP3    H161969   5.494   0.600  12.269 -0.7377 -1.6707 -0.4542
13518TIP3    H261970   5.562   0.492  12.349 -1.5727  0.6462  3.6775
13519TIP3   OH261971   3.492   0.954   2.757 -0.7683  0.2056 -0.0288
13519TIP3    H161972   3.464   1.045   2.757  1.3251  0.9049 -0.6134
13519TIP3    H261973   3.551   0.946   2.831  0.5456 -0.1376 -1.0632
13520TIP3   OH261974   1.775   0.126  11.778  0.4219  0.4752  0.3696
13520TIP3    H161975   1.814   0.195  11.723 -1.9865  1.4408 -0.2446
13520TIP3    H261976   1.699   0.168  11.817  0.5806 -1.0045  2.3982
13521TIP3   OH261977   2.427   2.833   0.247 -0.6335  0.0807  0.1141
13521TIP3    H161978   2.443   2.894   0.174 -1.2052  1.7393  1.3164
13521TIP3    H261979   2.513   2.795   0.265  0.0558  1.6177  0.2366
13522TIP3   OH261980   6.338   2.339  11.103 -0.5310 -0.3806  0.1445
13522TIP3    H161981   6.328   2.244  11.101  0.1617 -0.4643 -1.9342
13522TIP3    H261982   6.395   2.356  11.177  0.0366 -1.6878  0.0339
13523TIP3   OH261983   3.780   4.314  14.661  0.3854 -0.4994 -0.5728
13523TIP3    H161984   3.843   4.378  14.630  0.7930 -0.5765  0.0783
13523TIP3    H261985   3.831   4.233  14.672  0.0315 -0.7437 -0.7008
13524TIP3   OH261986   4.863   3.817   6.158 -0.5952  0.2975  0.6831
13524TIP3    H161987   4.912   3.750   6.205 -0.6595  0.1860  0.5915
13524TIP3    H261988   4.776   3.816   6.197 -0.9380 -0.4600 -0.0775
13525TIP3   OH261989   0.008   4.129   0.274  0.3305  0.4383 -0.5464
13525TIP3    H161990  -0.046   4.203   0.301 -1.1258 -0.9866  0.6898
13525TIP3    H261991   0.057   4.160   0.198 -0.0639  2.7079  0.0713
13526TIP3   OH261992   2.231   5.873  16.395 -0.2648 -0.2450  0.2483
13526TIP3    H161993   2.142   5.840  16.400 -0.9787  1.1798 -1.7767
13526TIP3    H261994   2.285   5.802  16.429 -2.0508 -1.5870  0.4285
13527TIP3   OH261995   6.713   2.967  16.810 -0.4875  0.3674  0.1977
13527TIP3    H161996   6.790   2.952  16.755 -0.7168  0.4807 -0.1516
13527TIP3    H261997   6.639   2.937  16.757 -0.7220  0.5991  0.3930
13528TIP3   OH261998   1.508   0.069   3.348 -0.7507  0.5063  0.2355
13528TIP3    H161999   1.471   0.121   3.278 -0.9794  0.7371  0.5240
13528TIP3    H262000   1.437   0.012   3.376 -1.5424  2.2823  2.0930
13529TIP3   OH262001   1.385   1.050  15.921 -0.3556 -0.3304 -0.4332
13529TIP3    H162002   1.377   1.076  16.013 -4.1393  1.0007 -0.9343
13529TIP3    H262003   1.371   0.956  15.922 -2.5265 -0.0677  0.2941
13530TIP3   OH262004   3.955   5.741   0.272 -0.4762  0.0531  0.3601
13530TIP3    H162005   4.029   5.773   0.324 -0.0936  0.4635 -0.4056
13530TIP3    H262006   3.996   5.703   0.194 -0.9895 -1.2711  0.7068
13531TIP3   OH262007   4.587   3.905   1.163 -0.1455  0.7789  0.0810
13531TIP3    H162008   4.632   3.821   1.155 -0.3925  0.6499  0.0505
13531TIP3    H262009   4.627   3.946   1.240 -0.7858  0.1618  0.7597
13532TIP3   OH262010   6.541   1.590  14.097  0.2014  0.1781 -0.5033
13532TIP3    H162011   6.579   1.502  14.095  0.2651  0.2078 -0.6113
13532TIP3    H262012   6.607   1.643  14.142  0.6469  0.3982 -1.3964
13533TIP3   OH262013   6.274   0.091   2.059 -0.3313 -0.0310 -0.0474
13533TIP3    H162014   6.208   0.122   1.998 -1.0015 -0.7612  0.2815
13533TIP3    H262015   6.303   0.170   2.105 -2.6210  0.0686  1.3802
13534TIP3   OH262016   0.563   6.740   1.027 -0.0503  0.2274  0.3314
13534TIP3    H162017   0.584   6.832   1.012 -1.8006  0.4110 -1.3076
13534TIP3    H262018   0.523   6.739   1.114 -0.9903  1.1939 -0.0731
13535TIP3   OH262019   4.878   5.649  11.326 -0.3392  0.2062  0.0875
13535TIP3    H162020   4.920   5.729  11.357  0.4166 -0.6651  1.4423
13535TIP3    H262021   4.945   5.606  11.272 -0.3022 -0.0847  0.3621
13536TIP3   OH262022   0.182   5.809  16.716  0.3986  0.2212  0.5296
13536TIP3    H162023   0.127   5.861  16.775 -1.7904  1.0010 -2.0119
13536TIP3    H262024   0.165   5.718  16.742  1.0230  0.5697  2.3123
13537TIP3   OH262025   4.758   6.479   4.172 -0.0079  0.8814  0.5599
13537TIP3    H162026   4.824   6.522   4.227  1.0111 -1.9570  1.7331
13537TIP3    H262027   4.690   6.546   4.160  1.6976  2.9629  1.7601
13538TIP3   OH262028   1.714   3.052   4.056 -0.8701  0.4535 -0.1036
13538TIP3    H162029   1.630   3.050   4.010 -1.3455  1.4014  0.6690
13538TIP3    H262030   1.705   3.125   4.117 -0.4133 -0.9413  1.7378
13539TIP3   OH262031   4.664   3.932  13.473  0.3297  0.8774 -0.1448
13539TIP3    H162032   4.742   3.885  13.503 -0.0410 -0.5140 -1.2320
13539TIP3    H262033   4.601   3.863  13.452 -1.4128  1.9738  1.1630
13540TIP3   OH262034   1.294   5.439  14.666  0.7287 -0.0525 -0.2079
13540TIP3    H162035   1.223   5.484  14.620  1.2810 -0.2042 -1.2254
13540TIP3    H262036   1.250   5.393  14.738 -0.3350 -0.7396 -1.2462
13541TIP3   OH262037   3.495   4.566   1.132  0.5114 -0.2840  0.3277
13541TIP3    H162038   3.487   4.660   1.147 -0.8071 -0.1868 -0.7657
13541TIP3    H262039   3.590   4.549   1.135  0.8521  1.2668 -0.4967
13542TIP3   OH262040   1.338   2.106   1.023 -0.3539  0.2335 -0.4895
13542TIP3    H162041   1.405   2.109   1.091 -0.1563 -0.3347 -0.6607
13542TIP3    H262042   1.255   2.099   1.071 -0.1984 -0.4371 -0.3110
13543TIP3   OH262043   0.851   2.202  16.209 -0.2329  0.5619  0.3410
13543TIP3    H162044   0.922   2.254  16.172 -0.2458 -0.3048 -0.9279
13543TIP3    H262045   0.877   2.111  16.195 -0.7979  0.2113  1.4187
13544TIP3   OH262046   5.976   4.940   6.063 -0.0720  0.8070 -0.3912
13544TIP3    H162047   5.994   4.883   5.988 -1.5788  0.1911 -0.3118
13544TIP3    H262048   5.937   5.018   6.025 -1.4384  0.2289 -0.2332
13545TIP3   OH262049   0.387   3.102  12.190  1.1089  0.1586  0.2274
13545TIP3    H162050   0.347   3.015  12.183 -0.2792  0.8604 -0.8975
13545TIP3    H262051   0.333   3.158  12.135  1.6910  1.8568  1.3154
13546TIP3   OH262052   5.035   1.627  14.716  0.4586 -1.1056  0.6444
13546TIP3    H162053   5.098   1.699  14.726 -0.6307 -0.2911  2.0620
13546TIP3    H262054   5.035   1.608  14.622  0.5486  0.9749  0.1806
13547TIP3   OH262055   1.459   0.192  13.756 -0.4135 -0.7586 -0.0228
13547TIP3    H162056   1.521   0.217  13.824 -0.1351 -0.6056 -0.3309
13547TIP3    H262057   1.459   0.096  13.758 -1.7110 -0.7551  1.3578
13548TIP3   OH262058   5.089   4.616  14.105 -0.2349 -0.3689 -0.0530
13548TIP3    H162059   5.059   4.707  14.099 -1.7217 -0.9194 -1.8745
13548TIP3    H262060   5.017   4.565  14.068  1.3226 -2.1452 -0.7546
13549TIP3   OH262061   3.261   0.931  14.162 -0.2310  0.4254 -0.3421
13549TIP3    H162062   3.304   0.876  14.097 -0.0433 -0.0665  0.1981
13549TIP3    H262063   3.319   0.929  14.238  0.7690  2.8831 -0.9255
13550TIP3   OH262064   0.171   2.198   5.372  0.2109 -0.3615 -0.0730
13550TIP3    H162065   0.191   2.119   5.422  1.4390 -0.7203 -1.0459
13550TIP3    H262066   0.232   2.264   5.405 -1.0300  0.2968  0.9586
13551TIP3   OH262067   1.650   2.775  13.273  0.6189  0.1501  0.3594
13551TIP3    H162068   1.740   2.779  13.241  1.8335 -1.0865  3.2244
13551TIP3    H262069   1.658   2.784  13.368 -2.3509  0.4247  0.6883
13552TIP3   OH262070   6.176   5.881   3.446 -0.3710 -0.2996 -0.0454
13552TIP3    H162071   6.256   5.932   3.427 -1.3079  0.4476 -2.2441
13552TIP3    H262072   6.164   5.826   3.369 -1.8614 -0.5584  0.3579
13553TIP3   OH262073   3.481   0.496   1.790 -0.1918 -0.3706 -0.3501
13553TIP3    H162074   3.398   0.458   1.761 -0.4709  1.0014 -1.4176
13553TIP3    H262075   3.480   0.586   1.757  1.7418 -0.3284 -0.4252
13554TIP3   OH262076   3.043   3.728   5.192  0.4196  0.1059 -0.4182
13554TIP3    H162077   3.070   3.653   5.245 -0.9540 -0.9793 -1.1901
13554TIP3    H262078   3.019   3.795   5.255  3.5184  0.7011  0.3296
13555TIP3   OH262079   1.412   4.355   1.374 -0.3652  0.2765  0.0378
13555TIP3    H162080   1.415   4.396   1.288 -0.6642 -0.6360 -0.4177
13555TIP3    H262081   1.319   4.336   1.388 -0.1881 -0.5669  0.0865
13556TIP3   OH262082   2.935   3.023   5.739 -0.3705 -0.9808 -0.6663
13556TIP3    H162083   2.987   2.973   5.676  0.4227 -1.2266  0.1692
13556TIP3    H262084   2.917   2.961   5.809 -1.3221 -0.7282 -0.6825
13557TIP3   OH262085   2.199   3.057  12.718 -0.0228 -0.0089  0.2523
13557TIP3    H162086   2.271   3.034  12.778 -0.7934  0.5785  1.4425
13557TIP3    H262087   2.170   3.143  12.749  0.5968  1.0632 -1.9813
13558TIP3   OH262088   1.175   4.754   4.205 -0.0213 -0.7081  0.1061
13558TIP3    H162089   1.237   4.766   4.133 -1.1109  1.3148 -0.5898
13558TIP3    H262090   1.151   4.844   4.231 -1.3395 -1.4120  1.4956
13559TIP3   OH262091   0.491   0.306  15.204  0.5402 -0.4764  0.1901
13559TIP3    H162092   0.400   0.332  15.216  0.2339 -1.3632 -0.1288
13559TIP3    H262093   0.511   0.255  15.283  1.3943  1.3590  1.2144
13560TIP3   OH262094   6.264   4.875  14.487 -0.4969  0.6458 -0.1086
13560TIP3    H162095   6.345   4.841  14.451 -0.0570 -0.6887  2.0121
13560TIP3    H262096   6.238   4.811  14.553 -2.6287  1.6700  0.1281
13561TIP3   OH262097   1.194   6.448  13.901 -0.1967  0.2848  0.5432
13561TIP3    H162098   1.187   6.544  13.898  0.5927  0.3413  0.1779
13561TIP3    H262099   1.103   6.417  13.905 -0.5521  0.9967 -1.1013
13562TIP3   OH262100   5.349   1.411  16.270  0.2162  0.2021  0.1009
13562TIP3    H162101   5.293   1.334  16.261 -0.0970  0.4506 -0.1009
13562TIP3    H262102   5.315   1.457  16.347 -0.7573  1.0846 -0.8271
13563TIP3   OH262103   4.442   1.406  11.689 -0.2748  0.8179  0.3696
13563TIP3    H162104   4.401   1.449  11.764  0.0142  2.4686 -0.3891
13563TIP3    H262105   4.369   1.374  11.636 -0.4911  0.3841  0.9142
13564TIP3   OH262106   3.172   3.472   2.042 -0.2087  0.0176  0.5300
13564TIP3    H162107   3.080   3.447   2.041 -0.1996 -0.1498  1.8920
13564TIP3    H262108   3.217   3.398   2.082  0.3119  0.6685  1.1849
13565TIP3   OH262109   1.144   1.056   2.260 -0.1025 -0.2973 -0.0116
13565TIP3    H162110   1.228   1.099   2.272  0.1560 -0.8686  0.2637
13565TIP3    H262111   1.135   1.046   2.165  1.0471 -1.9682  0.0150
13566TIP3   OH262112   1.220   3.446  15.402  1.0660  0.6064  0.0384
13566TIP3    H162113   1.293   3.403  15.447 -0.8985 -1.6325  1.3183
13566TIP3    H262114   1.227   3.416  15.312  1.9110  0.7254  0.0487
13567TIP3   OH262115   2.815   3.244   0.448 -0.2759 -0.3139 -0.0744
13567TIP3    H162116   2.797   3.153   0.425 -0.4978 -0.3575  0.2515
13567TIP3    H262117   2.730   3.287   0.445 -0.0461  0.0803 -1.0547
13568TIP3   OH262118   5.063   3.319   2.860 -0.1258  0.4530  0.3145
13568TIP3    H162119   5.094   3.258   2.927  0.7632  0.2124 -0.3041
13568TIP3    H262120   4.984   3.278   2.824  2.3646 -2.2355 -2.6393
13569TIP3   OH262121   2.162   1.078  15.338 -1.0221  0.3805 -0.1585
13569TIP3    H162122   2.172   1.036  15.424  0.4551  0.4951 -0.2532
13569TIP3    H262123   2.149   1.006  15.277  0.7869  0.0855 -0.2220
13570TIP3   OH262124   6.728   0.375  15.442 -0.0337 -0.6430  0.0244
13570TIP3    H162125   6.819   0.346  15.437  0.1467  0.0850 -1.2330
13570TIP3    H262126   6.681   0.317  15.382 -0.8142 -2.3509  2.1290
13571TIP3   OH262127   0.534   3.586  14.907  0.1814 -0.3502  0.2157
13571TIP3    H162128   0.459   3.529  14.890 -0.5094  0.3067  0.9905
13571TIP3    H262129   0.497   3.673  14.916  1.1462  0.1252 -0.2335
13572TIP3   OH262130   2.443   0.461  14.198  0.3273 -0.2707  0.2237
13572TIP3    H162131   2.521   0.407  14.183  0.6863  0.1709  0.4854
13572TIP3    H262132   2.377   0.423  14.140  0.7892 -0.5346 -0.1400
13573TIP3   OH262133   0.728   1.659   4.436  0.2501  0.3924 -0.3161
13573TIP3    H162134   0.816   1.688   4.459  0.2108  0.3333 -0.0881
13573TIP3    H262135   0.704   1.598   4.506 -0.2091  0.8741 -0.0418
13574TIP3   OH262136   0.770   4.937  12.764  0.0705  0.1369 -0.3080
13574TIP3    H162137   0.762   4.880  12.688  0.4384 -0.9045  0.4298
13574TIP3    H262138   0.857   4.976  12.757  0.1648 -0.0816 -0.3260
13575TIP3   OH262139   3.165   0.424   5.753  0.5930 -0.5237  0.5275
13575TIP3    H162140   3.112   0.364   5.700  1.0620 -0.5777  0.1122
13575TIP3    H262141   3.202   0.369   5.821  2.7053 -1.1748 -1.0556
13576TIP3   OH262142   3.172   2.896  16.985 -0.1921 -0.4414 -0.1191
13576TIP3    H162143   3.263   2.873  16.972 -0.4713 -1.3303 -0.5774
13576TIP3    H262144   3.158   2.887  17.080  0.1811 -0.3130 -0.0525
13577TIP3   OH262145   6.107   1.904  15.247  0.3586  0.3824 -0.2942
13577TIP3    H162146   6.099   1.966  15.174 -0.9104  1.0146  0.3496
13577TIP3    H262147   6.021   1.905  15.289 -0.2032 -2.9444 -1.1070
13578TIP3   OH262148   4.736   2.427  14.471  0.0678 -0.1485  1.1694
13578TIP3    H162149   4.683   2.450  14.547 -1.5067  0.1117  0.0512
13578TIP3    H262150   4.707   2.488  14.403 -0.5041 -2.0956 -0.4062
13579TIP3   OH262151   1.658   3.397   2.483 -0.5680  0.3714 -0.5297
13579TIP3    H162152   1.567   3.420   2.497  0.1052  2.5471  0.6798
13579TIP3    H262153   1.657   3.302   2.467 -3.1141  0.5143 -1.6923
13580TIP3   OH262154   5.259   0.664  11.537  0.3544 -0.2962 -0.7444
13580TIP3    H162155   5.276   0.680  11.444  2.5305  0.4419 -0.2653
13580TIP3    H262156   5.331   0.609  11.565  0.8772  1.1647  0.9490
13581TIP3   OH262157   5.978   1.505  14.773 -0.2800 -0.5842  0.1097
13581TIP3    H162158   6.047   1.474  14.832  0.6338  1.6764  0.3007
13581TIP3    H262159   6.024   1.555  14.705 -1.5805 -0.6003 -0.8368
13582TIP3   OH262160   5.811   4.378  14.020 -0.1776  0.4096 -0.1001
13582TIP3    H162161   5.824   4.466  14.056 -1.5264  0.3875  0.4964
13582TIP3    H262162   5.828   4.320  14.094 -2.7555  0.3548  0.5501
13583TIP3   OH262163   6.538   5.090   2.829 -0.2474  0.8460  0.2015
13583TIP3    H162164   6.612   5.150   2.840 -1.5621  2.3031  1.4109
13583TIP3    H262165   6.475   5.117   2.895 -1.9623 -0.2571 -0.9135
13584TIP3   OH262166   3.307   5.000   4.426  0.3262  0.0418  0.5801
13584TIP3    H162167   3.373   5.017   4.358 -0.5677  0.2657 -0.2537
13584TIP3    H262168   3.235   5.060   4.405 -1.0276 -1.6393  0.2067
13585TIP3   OH262169   2.255   3.692   1.396  0.0885  0.5579 -1.0907
13585TIP3    H162170   2.232   3.600   1.386 -1.0320  0.9934 -3.1061
13585TIP3    H262171   2.182   3.731   1.444  1.9044 -0.0538  2.4955
13586TIP3   OH262172   0.015   5.248  14.065  0.2770  0.1986  0.9690
13586TIP3    H162173  -0.026   5.335  14.068  0.8195  0.4447  1.4957
13586TIP3    H262174  -0.018   5.204  14.144 -1.2534 -0.6708 -0.1072
13587TIP3   OH262175   6.602   5.993   0.718  0.1365  0.0004 -0.6142
13587TIP3    H162176   6.638   5.997   0.807 -0.6479  1.5236 -0.3331
13587TIP3    H262177   6.677   6.007   0.661  0.3888  0.6806 -0.1226
13588TIP3   OH262178   1.913   2.109   5.996  0.1772  0.5252 -0.4875
13588TIP3    H162179   1.911   2.099   5.901  0.2601 -0.0040 -0.4345
13588TIP3    H262180   2.006   2.113   6.018  0.1603  0.5048 -0.4129
13589TIP3   OH262181   6.256   2.755  10.724 -0.1962  0.4254 -0.1995
13589TIP3    H162182   6.215   2.699  10.658 -0.7410  1.5462 -0.8620
13589TIP3    H262183   6.256   2.703  10.804  1.2236 -1.2874 -1.2495
13590TIP3   OH262184   4.065   2.897   0.188  0.1770 -0.3180  0.1954
13590TIP3    H162185   4.122   2.964   0.152 -0.4797  0.6615  0.9343
13590TIP3    H262186   4.073   2.823   0.127  1.5702  0.1025 -0.1569
13591TIP3   OH262187   1.967   4.542   3.011  0.6906 -0.3260  0.5868
13591TIP3    H162188   2.058   4.527   3.039  0.8347  1.0659  0.9014
13591TIP3    H262189   1.973   4.553   2.917  0.8349 -0.3794  0.5888
13592TIP3   OH262190   4.758   5.518  11.531  0.3305  0.9316  0.2535
13592TIP3    H162191   4.670   5.485  11.516  0.4419  0.7742 -0.0557
13592TIP3    H262192   4.788   5.547  11.445  1.4670 -1.1819 -0.1255
13593TIP3   OH262193   5.054   1.468   3.516 -0.8613 -0.0744 -0.2644
13593TIP3    H162194   5.036   1.559   3.540  0.6256 -0.2729  1.9010
13593TIP3    H262195   4.997   1.416   3.572  0.3655 -0.4964  0.6422
13594TIP3   OH262196   3.229   3.254   1.466  0.0074 -0.5026 -0.4534
13594TIP3    H162197   3.324   3.257   1.456  0.0118 -0.0454 -0.2796
13594TIP3    H262198   3.196   3.322   1.407 -0.1015  0.5394  0.7654
13595TIP3   OH262199   3.477   3.675  13.545  0.2656  0.1340  0.2251
13595TIP3    H162200   3.564   3.687  13.583  0.5584 -1.4383  0.1196
13595TIP3    H262201   3.483   3.594  13.496 -1.0286  0.4576 -0.5204
13596TIP3   OH262202   6.055   3.532  15.401 -0.3473  0.0973 -0.3894
13596TIP3    H162203   6.147   3.547  15.376 -0.3438  0.0129 -0.4286
13596TIP3    H262204   6.007   3.533  15.318 -0.6930  2.2690 -0.2164
13597TIP3   OH262205   3.019   6.656  14.225 -0.6696 -0.0735 -0.0191
13597TIP3    H162206   2.978   6.615  14.301  1.6448 -0.7903  0.9343
13597TIP3    H262207   3.113   6.650  14.243 -0.1292  3.3055 -1.0931
13598TIP3   OH262208   6.099   2.488   1.341 -0.4367  0.0382 -0.3683
13598TIP3    H162209   6.175   2.486   1.281 -0.9462  2.1471 -1.1569
13598TIP3    H262210   6.133   2.450   1.422  1.0401 -0.4495 -1.1544
13599TIP3   OH262211   1.430   5.179  12.695 -0.5273  0.5420  0.5020
13599TIP3    H162212   1.444   5.129  12.775 -1.0401 -0.9268 -0.2780
13599TIP3    H262213   1.381   5.257  12.723 -0.4464  0.1908  1.6418
13600TIP3   OH262214   4.600   0.779   4.657  0.1174  0.2732  0.3736
13600TIP3    H162215   4.672   0.842   4.657 -1.4279  2.1378  1.0911
13600TIP3    H262216   4.525   0.828   4.690 -1.3336 -1.7948  0.3516
13601TIP3   OH262217   3.812   2.221  15.424  0.6457 -0.7613  0.3055
13601TIP3    H162218   3.888   2.223  15.482  1.5092 -1.6994 -0.7392
13601TIP3    H262219   3.848   2.202  15.337 -0.4575  1.8770 -0.8463
13602TIP3   OH262220   2.112   6.080   0.036 -0.0226 -0.1112 -0.0547
13602TIP3    H162221   2.031   6.127   0.017 -0.7055 -1.1443  0.1784
13602TIP3    H262222   2.127   6.094   0.129 -1.2017 -1.7387  0.4320
13603TIP3   OH262223   2.963   4.545  16.536 -0.5828 -0.0570 -0.2182
13603TIP3    H162224   3.034   4.550  16.472 -1.3988 -0.8274 -1.2292
13603TIP3    H262225   3.005   4.562  16.620 -0.0568  4.6767 -1.1818
13604TIP3   OH262226   3.250   2.601  10.551  0.0646 -0.0247 -0.4028
13604TIP3    H162227   3.168   2.633  10.512 -0.7789 -2.5199 -0.8811
13604TIP3    H262228   3.313   2.603  10.479 -0.0281  0.3862 -0.4738
13605TIP3   OH262229   4.783   5.825   5.689  0.4574 -0.4517 -0.1109
13605TIP3    H162230   4.776   5.869   5.773  0.8585 -1.8082  0.6701
13605TIP3    H262231   4.737   5.882   5.628  1.2395  1.1847  0.7694
13606TIP3   OH262232   4.992   2.077  12.622  0.4021  0.6952  0.2049
13606TIP3    H162233   5.030   2.024  12.693 -1.6195 -0.6987  0.3332
13606TIP3    H262234   4.936   2.016  12.574  0.4553  2.0115 -1.6366
13607TIP3   OH262235   0.859   4.307   1.411  0.1680  0.0728 -0.3486
13607TIP3    H162236   0.783   4.352   1.373 -0.1063  0.2740  0.4174
13607TIP3    H262237   0.854   4.328   1.504  1.3126  0.3012 -0.3310
13608TIP3   OH262238   2.861   4.822  10.269  0.3939  0.3755 -0.3950
13608TIP3    H162239   2.830   4.732  10.272 -1.0735  0.8766  0.0032
13608TIP3    H262240   2.956   4.814  10.260  0.4327 -1.2020  0.9988
13609TIP3   OH262241   1.888   4.288   3.079  0.5239  0.4668  0.2287
13609TIP3    H162242   1.875   4.373   3.038  2.4045  0.7669  0.1601
13609TIP3    H262243   1.982   4.284   3.097  0.2349 -0.9732  1.6244
13610TIP3   OH262244   4.810   4.256   0.814 -0.1469 -0.2252  0.1103
13610TIP3    H162245   4.758   4.180   0.788 -1.0443  0.8616 -1.4412
13610TIP3    H262246   4.837   4.237   0.903 -0.0108 -2.5360 -0.3669
13611TIP3   OH262247   3.092   5.519   1.605  0.1908  0.5628 -0.2875
13611TIP3    H162248   3.116   5.468   1.682 -1.8651 -1.7027 -1.0139
13611TIP3    H262249   3.031   5.585   1.639 -0.5610 -0.3027  0.0929
13612TIP3   OH262250   0.964   4.161  12.956  0.0064  0.1871 -0.2813
13612TIP3    H162251   0.930   4.101  12.889 -2.7539  0.8934  0.3286
13612TIP3    H262252   0.979   4.105  13.032  2.4207 -0.4915 -1.1832
13613TIP3   OH262253   1.439   6.083   4.929  0.2704 -0.0875  0.1828
13613TIP3    H162254   1.443   5.991   4.956 -0.6520 -0.1397  0.1799
13613TIP3    H262255   1.441   6.132   5.011  1.6550 -0.0555  0.1527
13614TIP3   OH262256   1.254   4.868  16.416 -0.1677 -0.0620 -0.1509
13614TIP3    H162257   1.331   4.822  16.450  0.6919  1.8382  0.5931
13614TIP3    H262258   1.246   4.946  16.471 -1.1407  1.0670 -1.8107
13615TIP3   OH262259   1.790   1.605   3.165  0.4631  0.0902  0.1237
13615TIP3    H162260   1.876   1.637   3.137 -0.5260  3.0753  0.0590
13615TIP3    H262261   1.807   1.559   3.247  2.0979  1.0958  0.4124
13616TIP3   OH262262   1.033   3.019   5.317  0.6809 -0.2811  0.4076
13616TIP3    H162263   1.039   2.927   5.340 -0.1536 -0.7918 -1.2579
13616TIP3    H262264   1.009   3.019   5.224 -1.6695  1.5854  0.9290
13617TIP3   OH262265   3.978   0.857  13.122 -0.0669  0.3305 -0.3252
13617TIP3    H162266   3.958   0.947  13.149 -0.7435 -0.8941  4.0136
13617TIP3    H262267   4.074   0.853  13.118 -0.0369  1.2463 -0.6273
13618TIP3   OH262268   3.786   4.072   2.553 -0.7820  0.2123 -0.2710
13618TIP3    H162269   3.797   4.158   2.512  1.1115  0.3906  0.4812
13618TIP3    H262270   3.698   4.072   2.589 -1.8606  0.7247 -2.7438
13619TIP3   OH262271   0.026   0.732  13.347  0.0866 -0.0199  0.0303
13619TIP3    H162272  -0.005   0.682  13.423 -0.3661  1.4711  0.8688
13619TIP3    H262273  -0.052   0.776  13.314 -0.0061 -1.6355 -2.1510
13620TIP3   OH262274   4.914   4.016   0.295 -0.2977  0.3927  0.1884
13620TIP3    H162275   4.859   3.951   0.252 -0.6048  0.1641  0.9156
13620TIP3    H262276   5.003   3.996   0.266 -0.4224 -0.1867  0.2091
13621TIP3   OH262277   2.686   6.597   4.433  0.3702  0.0932  0.2877
13621TIP3    H162278   2.665   6.684   4.467 -0.4192 -0.2166  0.6157
13621TIP3    H262279   2.736   6.614   4.353 -0.2637  0.8526  0.0444
13622TIP3   OH262280   6.093   4.634   3.611  0.0533  0.3761  0.4776
13622TIP3    H162281   6.153   4.640   3.537  0.0493 -0.6020  0.3790
13622TIP3    H262282   6.139   4.579   3.675 -1.0947 -1.1882  0.0160
13623TIP3   OH262283   3.051   1.062  11.407  0.5041  0.3605 -0.2188
13623TIP3    H162284   3.133   1.102  11.378 -0.4547  1.7356 -1.1923
13623TIP3    H262285   3.029   1.108  11.488 -0.4212  1.6870 -1.1585
13624TIP3   OH262286   2.728   6.351  12.583  0.5584  0.3549  0.0119
13624TIP3    H162287   2.681   6.350  12.666 -0.9005 -1.3536 -0.7509
13624TIP3    H262288   2.692   6.426  12.535 -1.2155 -0.7006 -0.4074
13625TIP3   OH262289   5.961   5.480  15.506  0.3050 -0.7185  0.9563
13625TIP3    H162290   5.949   5.478  15.601  0.0019 -1.1988  0.9135
13625TIP3    H262291   5.872   5.476  15.470  0.3961 -0.1312  0.6530
13626TIP3   OH262292   0.175   0.774  16.248 -0.6010 -0.7980 -0.4022
13626TIP3    H162293   0.085   0.764  16.217 -0.9540  0.2430  0.2147
13626TIP3    H262294   0.180   0.717  16.325 -1.0667 -0.1133  0.1585
13627TIP3   OH262295   0.006   5.353  12.345 -0.1216  0.5006  0.3314
13627TIP3    H162296  -0.046   5.315  12.416 -0.0255 -0.0499  0.1139
13627TIP3    H262297   0.039   5.277  12.296  0.0418  0.8671 -0.1370
13628TIP3   OH262298   2.983   0.353   4.298 -0.1454 -0.2247  0.3317
13628TIP3    H162299   2.970   0.302   4.378  0.6629 -0.4328  0.3391
13628TIP3    H262300   2.900   0.343   4.250  0.3245 -2.3769 -0.1235
13629TIP3   OH262301   6.471   1.259  16.394 -0.1000  0.1008 -0.3494
13629TIP3    H162302   6.547   1.283  16.447 -0.3226  2.3148 -0.9434
13629TIP3    H262303   6.442   1.341  16.355 -2.9859 -0.6167  0.0725
13630TIP3   OH262304   4.370   1.965  15.661 -0.4266 -0.2876  0.3247
13630TIP3    H162305   4.357   2.026  15.734 -0.1468  0.6999 -0.4234
13630TIP3    H262306   4.282   1.933  15.640 -0.9118  1.4786 -0.6005
13631TIP3   OH262307   1.844   1.728  11.972  0.1863 -0.1617 -0.1587
13631TIP3    H162308   1.771   1.723  12.033  0.9593  0.5938  0.8640
13631TIP3    H262309   1.811   1.783  11.900  0.1186  1.2056  0.8829
13632TIP3   OH262310   5.158   1.835   1.789 -0.9139 -0.2737  0.2314
13632TIP3    H162311   5.210   1.906   1.827 -0.5871 -0.0657 -0.5900
13632TIP3    H262312   5.217   1.793   1.726 -1.1645 -1.1635  0.5708
13633TIP3   OH262313   3.229   2.625   0.216  0.1588 -0.4911  0.4515
13633TIP3    H162314   3.183   2.601   0.135 -1.7145  0.1068  1.2704
13633TIP3    H262315   3.281   2.701   0.192  1.5681 -1.7842 -0.7494
13634TIP3   OH262316   0.185   3.456   4.911 -0.2182 -0.0313  0.1000
13634TIP3    H162317   0.232   3.405   4.978  0.0270  1.2551  0.9304
13634TIP3    H262318   0.173   3.394   4.839  0.2903 -1.1972  0.9777
13635TIP3   OH262319   4.985   0.545  12.209  0.2695  0.1128  0.2144
13635TIP3    H162320   4.962   0.598  12.133 -1.7517 -0.3586  0.4325
13635TIP3    H262321   5.000   0.608  12.279  0.3056  0.4843 -0.1284
13636TIP3   OH262322   6.602   2.234   4.783 -0.2025  0.0623 -0.5440
13636TIP3    H162323   6.507   2.240   4.779 -0.3237 -0.9849  0.4473
13636TIP3    H262324   6.632   2.325   4.776 -1.2112  0.3217 -1.8169
13637TIP3   OH262325   6.599   4.162  13.810  0.3918  0.9718 -0.0583
13637TIP3    H162326   6.552   4.203  13.738  0.9730 -0.2667 -1.1875
13637TIP3    H262327   6.639   4.084  13.772  1.1538  0.5535  1.4877
13638TIP3   OH262328   6.557   5.447   6.270 -1.1465 -0.4478  0.1376
13638TIP3    H162329   6.518   5.366   6.238 -1.9075  0.6328 -1.7900
13638TIP3    H262330   6.483   5.506   6.286 -0.5608  0.1519  0.7665
13639TIP3   OH262331   0.304   4.392   1.154 -0.1190 -0.0133  0.3025
13639TIP3    H162332   0.374   4.375   1.092 -0.4970 -0.6169  0.0292
13639TIP3    H262333   0.276   4.305   1.183 -1.5547  0.1487 -0.5020
13640TIP3   OH262334   2.310   4.909   5.196 -0.2278 -0.4419  0.6420
13640TIP3    H162335   2.397   4.880   5.168 -0.5932 -0.1683 -0.8608
13640TIP3    H262336   2.270   4.945   5.117 -1.5702 -0.2069  1.3977
13641TIP3   OH262337   6.015   2.447  12.302  0.2954  0.2043  0.1952
13641TIP3    H162338   5.972   2.472  12.384  0.3792  0.6810  0.0989
13641TIP3    H262339   6.100   2.492  12.304  2.1460 -3.0500  1.7486
13642TIP3   OH262340   4.505   4.549  12.811 -0.2977  0.0532  0.0173
13642TIP3    H162341   4.458   4.500  12.744 -0.7672  1.2594 -0.5639
13642TIP3    H262342   4.456   4.532  12.892 -0.6980 -0.1005 -0.2548
13643TIP3   OH262343   1.131   2.080  15.561 -0.4165 -0.7007  0.1801
13643TIP3    H162344   1.081   2.088  15.480 -0.4411 -0.8331  0.1826
13643TIP3    H262345   1.073   2.117  15.628 -0.4084 -0.6191  0.1427
13644TIP3   OH262346   0.970   2.761  11.239 -0.1785 -0.2504 -0.2815
13644TIP3    H162347   1.030   2.687  11.247  1.8263  1.3169 -0.0538
13644TIP3    H262348   0.944   2.761  11.146  1.0943 -0.3243 -0.6592
13645TIP3   OH262349   2.621   5.934   5.985  0.0097 -0.5491 -0.0797
13645TIP3    H162350   2.583   5.863   6.035  2.5446 -1.2874  0.9399
13645TIP3    H262351   2.677   5.892   5.920 -0.5290  0.4952 -1.2937
13646TIP3   OH262352   0.258   5.223   2.473  0.0873  0.3227  0.4369
13646TIP3    H162353   0.315   5.146   2.466  1.1128  1.0816  0.2063
13646TIP3    H262354   0.225   5.219   2.563  0.8401  0.0882  0.7186
13647TIP3   OH262355   6.265   2.223  12.227 -0.2496 -0.0255  0.1688
13647TIP3    H162356   6.287   2.305  12.183 -0.2264 -0.6593 -1.0509
13647TIP3    H262357   6.173   2.232  12.251 -1.0710 -0.6797 -2.4571
13648TIP3   OH262358   0.843   1.548   0.427  0.0576  0.2072  0.3548
13648TIP3    H162359   0.873   1.595   0.504  0.7267  1.4563 -0.6431
13648TIP3    H262360   0.860   1.456   0.447  0.1166  0.5021  1.7284
13649TIP3   OH262361   0.739   6.057   5.033 -0.1626 -0.3657  0.5648
13649TIP3    H162362   0.742   6.149   5.060  2.0367  0.4700 -2.1635
13649TIP3    H262363   0.827   6.023   5.052  0.7119 -0.3951 -2.9873
13650TIP3   OH262364   5.920   6.233   3.823 -0.0263 -0.4823  0.7117
13650TIP3    H162365   5.919   6.267   3.913  1.2006  0.5945  0.3327
13650TIP3    H262366   5.870   6.298   3.773 -0.6353 -1.0401  0.5768
13651TIP3   OH262367   1.139   6.774  13.889 -0.3789 -0.5131  0.2711
13651TIP3    H162368   1.145   6.847  13.827 -1.2061  0.3913  1.2168
13651TIP3    H262369   1.045   6.761  13.902 -0.2282 -1.2221  0.7210
13652TIP3   OH262370   3.874   2.455   3.404  0.0287  0.2854 -0.0133
13652TIP3    H162371   3.869   2.371   3.451  0.6843 -0.8463 -1.8522
13652TIP3    H262372   3.789   2.462   3.360  0.1106  0.4221 -0.1467
13653TIP3   OH262373   3.862   1.700   6.297 -0.0355 -0.0302  0.1927
13653TIP3    H162374   3.879   1.606   6.296  1.7128  0.2597 -0.6507
13653TIP3    H262375   3.843   1.719   6.389  2.7106 -0.7357  1.0159
13654TIP3   OH262376   0.390   5.146  12.142 -0.3908  0.4311  0.0585
13654TIP3    H162377   0.365   5.057  12.118 -0.0592  0.2240  0.4751
13654TIP3    H262378   0.309   5.197  12.133 -1.2267 -0.3895  2.2388
13655TIP3   OH262379   5.186   1.818   1.074  0.1458 -0.1827 -0.8185
13655TIP3    H162380   5.153   1.832   1.163  1.4713 -1.4294 -0.0851
13655TIP3    H262381   5.176   1.903   1.031  1.0056  0.9254  1.0512
13656TIP3   OH262382   0.143   3.146  14.155  0.0774 -0.2780  0.0483
13656TIP3    H162383   0.057   3.184  14.175 -0.2106 -1.4454  1.1848
13656TIP3    H262384   0.191   3.216  14.111 -0.4494  1.3920  1.9515
13657TIP3   OH262385   2.375   3.825  12.373  0.0412 -0.5312 -0.5929
13657TIP3    H162386   2.342   3.762  12.438  1.9087 -2.0687 -1.0538
13657TIP3    H262387   2.424   3.888  12.425 -0.1930 -0.5838 -0.3026
13658TIP3   OH262388   6.440   6.336   5.224  0.2208  0.6114 -0.5282
13658TIP3    H162389   6.367   6.398   5.212 -0.4923 -0.3172 -1.1284
13658TIP3    H262390   6.399   6.250   5.217  1.6827  0.0373 -2.9019
13659TIP3   OH262391   2.325   0.442   0.385  0.2064  0.4246  0.0986
13659TIP3    H162392   2.258   0.408   0.443 -0.5213 -0.5655 -1.2725
13659TIP3    H262393   2.353   0.367   0.333 -1.4966  1.8061 -3.0698
13660TIP3   OH262394   5.886   2.156  13.799  0.2367 -0.1002 -0.4332
13660TIP3    H162395   5.807   2.157  13.744 -1.4347  2.4271  1.7669
13660TIP3    H262396   5.875   2.078  13.854  0.3935 -0.9409 -1.5523
13661TIP3   OH262397   6.562   3.158  12.992  0.4599  0.2027  0.0105
13661TIP3    H162398   6.635   3.103  13.019  0.4441 -0.5550 -1.3766
13661TIP3    H262399   6.598   3.247  12.991  1.1225 -0.0571  0.1613
13662TIP3   OH262400   1.731   3.149  13.705  0.1948 -0.5779  0.2741
13662TIP3    H162401   1.701   3.059  13.710 -1.0829 -0.1747  0.3927
13662TIP3    H262402   1.731   3.169  13.611 -0.4472 -0.4221  0.3017
13663TIP3   OH262403   4.071   4.304   0.705  0.2977  0.0287 -0.4617
13663TIP3    H162404   4.139   4.344   0.651 -1.6976  1.4594 -2.0704
13663TIP3    H262405   4.028   4.241   0.648 -1.2910  0.9369 -0.3261
13664TIP3   OH262406   4.032   5.066  14.718  0.1644  0.3039  0.6212
13664TIP3    H162407   4.014   5.159  14.699  1.0444  0.4541  0.4596
13664TIP3    H262408   4.053   5.029  14.632 -0.4320 -0.1104  0.6500
13665TIP3   OH262409   5.773   6.108   2.561 -0.3093 -0.4178  0.3967
13665TIP3    H162410   5.695   6.081   2.610 -0.5652  0.7936  0.6822
13665TIP3    H262411   5.789   6.198   2.588  0.1569 -0.0611 -0.9639
13666TIP3   OH262412   4.730   3.937  12.278 -0.0647  0.3374 -0.0247
13666TIP3    H162413   4.800   3.917  12.340  0.0912  0.5703 -0.1209
13666TIP3    H262414   4.740   3.873  12.208 -1.3702 -1.1067  1.0505
13667TIP3   OH262415   3.649   4.780  17.190  0.2554  0.3099 -0.0868
13667TIP3    H162416   3.727   4.807  17.238  1.1275 -1.6994 -0.2811
13667TIP3    H262417   3.621   4.700  17.233 -1.9454  1.1746  0.1921
13668TIP3   OH262418   1.732   1.331  12.744 -0.0742 -0.1447  0.2724
13668TIP3    H162419   1.750   1.329  12.838 -0.3409 -0.2068  0.3226
13668TIP3    H262420   1.818   1.327  12.703  0.0443 -0.1049  0.5144
13669TIP3   OH262421   6.588   1.273  11.736 -0.0306  0.0037  0.0619
13669TIP3    H162422   6.577   1.300  11.827  1.6212 -1.4834  0.7592
13669TIP3    H262423   6.682   1.280  11.719  0.0362 -1.9467 -0.7493
13670TIP3   OH262424   2.365   2.763   6.436 -0.3767 -0.0654 -0.7082
13670TIP3    H162425   2.453   2.801   6.425 -0.8505  1.8038  1.2057
13670TIP3    H262426   2.377   2.670   6.422  2.1646 -0.0085  0.4530
13671TIP3   OH262427   0.092   1.362  16.380 -0.3986  0.6796  0.5290
13671TIP3    H162428   0.027   1.340  16.447 -0.8831  2.4643  0.6995
13671TIP3    H262429   0.042   1.367  16.299 -0.4649  1.8819  0.6296
13672TIP3   OH262430   2.951   5.674  16.395  0.2461  0.3731  0.1969
13672TIP3    H162431   3.026   5.685  16.337  0.6307  1.8644  0.9227
13672TIP3    H262432   2.881   5.725  16.355  0.7425  2.0592  1.3845
13673TIP3   OH262433   1.931   2.331   4.814 -0.1378 -0.6755  0.1772
13673TIP3    H162434   1.945   2.238   4.831  0.2592 -1.3110 -3.0034
13673TIP3    H262435   2.014   2.361   4.778 -0.0573  1.1287  1.7059
13674TIP3   OH262436   0.782   1.846   4.095  0.4185 -0.0968  0.1232
13674TIP3    H162437   0.873   1.843   4.123 -0.0199  0.4045  1.7209
13674TIP3    H262438   0.783   1.899   4.015  1.4841  0.1560  0.2893
13675TIP3   OH262439   0.715   3.377  12.699 -0.5429 -0.1781 -0.0715
13675TIP3    H162440   0.740   3.461  12.659  2.1551 -1.3282 -1.1155
13675TIP3    H262441   0.635   3.352  12.654 -0.3515  0.9755 -1.1142
13676TIP3   OH262442   2.891   3.784   4.531 -0.0787 -0.1661  0.6066
13676TIP3    H162443   2.802   3.752   4.542 -0.1265 -0.4638 -0.4739
13676TIP3    H262444   2.906   3.842   4.605 -0.8228 -0.8790  1.3262
13677TIP3   OH262445   6.183   2.027  14.140  0.0942 -0.3390  0.4672
13677TIP3    H162446   6.250   2.029  14.208 -0.3019 -0.4214  0.8670
13677TIP3    H262447   6.225   1.984  14.066  0.1364 -1.4058  1.0878
13678TIP3   OH262448   4.156   5.474  11.704  0.3812  0.0409  0.2601
13678TIP3    H162449   4.205   5.492  11.784 -1.0048 -0.9430  1.3898
13678TIP3    H262450   4.173   5.381  11.685  0.1024  0.0648 -0.1332
13679TIP3   OH262451   0.514   0.184  12.690 -0.4287  0.2478 -0.3503
13679TIP3    H162452   0.526   0.099  12.647  2.3047  0.4528 -0.1850
13679TIP3    H262453   0.521   0.165  12.784  2.5065  0.8447 -0.3643
13680TIP3   OH262454   2.472   3.402  12.018  0.2364 -0.3332 -0.2276
13680TIP3    H162455   2.558   3.367  11.995  0.2554 -0.2743 -0.2463
13680TIP3    H262456   2.489   3.461  12.092  0.2882  0.0729 -0.5598
13681TIP3   OH262457   2.357   6.241   2.897 -0.7370 -0.5947 -0.9215
13681TIP3    H162458   2.437   6.197   2.926 -0.1335 -0.1253 -1.8338
13681TIP3    H262459   2.356   6.230   2.802 -0.5235  1.3743 -1.2033
13682TIP3   OH262460   2.264   3.575   6.566 -0.1884  0.2889 -0.0513
13682TIP3    H162461   2.191   3.635   6.579  0.4741  1.2088 -0.4512
13682TIP3    H262462   2.304   3.566   6.652 -0.7798 -0.2429  0.1741
13683TIP3   OH262463   5.535   6.508   6.167 -0.0639  0.2325 -0.1234
13683TIP3    H162464   5.623   6.546   6.171 -0.0070  0.0401  0.8261
13683TIP3    H262465   5.507   6.503   6.259 -2.5295  3.6132 -0.5059
13684TIP3   OH262466   1.955   1.401  13.186  0.0712  0.2231  0.6043
13684TIP3    H162467   1.998   1.340  13.126 -0.5743 -0.0778  0.4380
13684TIP3    H262468   2.011   1.478  13.186  0.0775  0.2331 -0.4168
13685TIP3   OH262469   1.690   5.807  15.240 -0.1135 -0.0040  0.0309
13685TIP3    H162470   1.611   5.857  15.220 -0.4552  0.0342  1.3867
13685TIP3    H262471   1.660   5.716  15.246 -0.1311  0.0508  0.8775
13686TIP3   OH262472   5.717   0.073   3.872 -0.4042 -0.1772  0.3306
13686TIP3    H162473   5.652   0.040   3.933  0.5368 -0.2866  1.3157
13686TIP3    H262474   5.731   0.164   3.899 -2.1622  0.7474 -1.6544
13687TIP3   OH262475   2.587   6.689  12.976  0.1426 -0.3917 -0.0086
13687TIP3    H162476   2.610   6.694  13.069 -1.7358 -0.1020  0.4869
13687TIP3    H262477   2.631   6.764  12.936  0.3743 -0.0913  0.7881
13688TIP3   OH262478   1.041   5.285  12.508  0.2615 -0.1503  0.0132
13688TIP3    H162479   1.124   5.271  12.461  0.4796  1.2786 -0.0675
13688TIP3    H262480   0.976   5.294  12.439 -0.0436 -1.5500  0.0799
13689TIP3   OH262481   1.986   0.592  11.724 -0.2409 -0.7469 -0.1453
13689TIP3    H162482   1.995   0.685  11.702  1.0164 -1.0507 -0.9643
13689TIP3    H262483   1.892   0.582  11.743 -0.8803  0.1722 -2.4444
13690TIP3   OH262484   4.898   2.253   5.989  0.0694  0.1258 -0.0179
13690TIP3    H162485   4.924   2.168   6.025  0.0544 -0.4715 -1.3425
13690TIP3    H262486   4.948   2.317   6.039  0.4627 -0.6997  0.6632
13691TIP3   OH262487   4.693   1.963  13.099  0.5535 -0.1592 -0.1091
13691TIP3    H162488   4.783   1.932  13.094  0.9931  0.2713  3.0170
13691TIP3    H262489   4.651   1.905  13.162 -0.8981  0.6806 -0.2469
13692TIP3   OH262490   3.259   3.445   3.012 -0.2453 -0.0782 -0.5863
13692TIP3    H162491   3.288   3.462   2.923 -1.5884  0.2379 -0.9834
13692TIP3    H262492   3.273   3.528   3.058 -1.8148  0.5269 -1.1494
13693TIP3   OH262493   4.147   0.463  11.437  0.1236  0.0691 -0.1691
13693TIP3    H162494   4.115   0.543  11.478  0.8547 -0.6382  1.9345
13693TIP3    H262495   4.240   0.478  11.423  0.0732 -0.0608 -0.6533
13694TIP3   OH262496   6.646   2.984  14.016  0.2509 -0.5975 -0.4526
13694TIP3    H162497   6.740   2.966  14.007  0.4628 -0.8043  1.5954
13694TIP3    H262498   6.608   2.956  13.933  2.0625  0.0414 -1.5667
13695TIP3   OH262499   2.472   3.325  15.703 -0.3808 -0.5478 -0.4791
13695TIP3    H162500   2.521   3.289  15.777  2.5365  1.5095 -1.2270
13695TIP3    H262501   2.487   3.264  15.631  1.1650  0.0424 -0.6877
13696TIP3   OH262502   1.397   0.148   0.099 -0.4678  0.7732 -0.7790
13696TIP3    H162503   1.443   0.204   0.161  0.1601  0.3044 -0.8148
13696TIP3    H262504   1.317   0.122   0.145  0.0134  0.3945 -0.1444
13697TIP3   OH262505   0.605   4.147  14.842 -0.5818 -0.4087 -0.1494
13697TIP3    H162506   0.575   4.068  14.798  0.2947 -0.5840 -0.4531
13697TIP3    H262507   0.666   4.187  14.779 -0.0169 -0.1854  0.5330
13698TIP3   OH262508   6.179   3.949  12.365  0.2954  0.2181  0.1967
13698TIP3    H162509   6.195   3.934  12.458  0.0504  1.8201  0.5220
13698TIP3    H262510   6.235   4.023  12.342  0.3895 -0.1822 -0.9516
13699TIP3   OH262511   6.707   1.973   4.807 -0.5189 -0.1827 -0.3290
13699TIP3    H162512   6.688   2.067   4.802  1.1942  0.2503  0.5304
13699TIP3    H262513   6.745   1.952   4.722  2.3728  0.7643  0.6099
13700TIP3   OH262514   2.278   0.216  12.282  0.3758 -0.1726  0.1087
13700TIP3    H162515   2.336   0.278  12.237 -0.2687 -0.1359 -0.6792
13700TIP3    H262516   2.234   0.169  12.212  0.0994 -0.8167  0.7081
13701TIP3   OH262517   5.881   5.038  15.856  0.5175  0.3480 -0.1250
13701TIP3    H162518   5.865   5.104  15.923 -2.1205  0.5691 -0.8487
13701TIP3    H262519   5.942   5.080  15.795  2.9279  0.1459  1.9951
13702TIP3   OH262520   3.173   2.872  10.918  0.3479 -0.3329  0.3445
13702TIP3    H162521   3.222   2.799  10.879  1.2308 -0.4760  1.6335
13702TIP3    H262522   3.092   2.876  10.868 -0.6826 -3.5672  1.4787
13703TIP3   OH262523   6.421   0.271   5.313 -0.1105 -0.4765 -0.5558
13703TIP3    H162524   6.497   0.323   5.337 -0.4968  0.8185 -1.9088
13703TIP3    H262525   6.400   0.220   5.391  0.4181  1.2756  0.7923
13704TIP3   OH262526   1.655   1.878   1.725 -0.2726 -1.1190 -0.3666
13704TIP3    H162527   1.647   1.783   1.721  0.0439 -1.2499  1.3574
13704TIP3    H262528   1.679   1.897   1.816 -0.3779  0.6143 -0.6545
13705TIP3   OH262529   0.604   3.717  17.130 -0.1622  0.1516  0.2602
13705TIP3    H162530   0.654   3.783  17.178 -0.1734  0.5890 -0.3069
13705TIP3    H262531   0.593   3.645  17.191 -1.8318  1.4536  1.5871
13706TIP3   OH262532   1.721   3.029   4.408  0.3993 -0.3881 -0.2469
13706TIP3    H162533   1.712   3.030   4.504  1.1350 -2.1357 -0.1200
13706TIP3    H262534   1.807   2.991   4.392 -0.3978 -1.7856 -1.5929
13707TIP3   OH262535   6.542   0.105  12.411  0.7441  0.2137 -0.3701
13707TIP3    H162536   6.562   0.014  12.432 -0.6296  0.0224  0.1997
13707TIP3    H262537   6.570   0.154  12.488 -0.1621  0.0414  0.0863
13708TIP3   OH262538   6.067   2.107   5.553 -0.0341 -0.6496  0.2965
13708TIP3    H162539   6.143   2.163   5.571 -0.3741  0.0531 -0.4045
13708TIP3    H262540   6.074   2.085   5.460 -2.1010  1.6496 -0.5000
13709TIP3   OH262541   0.324   2.057  13.534  0.1988 -0.6192 -0.0886
13709TIP3    H162542   0.348   2.098  13.617 -0.1928 -2.7400  1.1641
13709TIP3    H262543   0.309   2.130  13.474 -0.2759  1.0193  1.9158
13710TIP3   OH262544   3.721   2.950   2.747 -0.0878  0.4619 -0.2476
13710TIP3    H162545   3.662   2.994   2.808 -1.7131 -2.3239  0.3820
13710TIP3    H262546   3.717   3.003   2.668 -2.4936  1.0946  0.2175
13711TIP3   OH262547   2.435   4.211  11.463  0.2734  0.1659 -0.3181
13711TIP3    H162548   2.517   4.259  11.475  0.6194 -0.0925 -1.5092
13711TIP3    H262549   2.428   4.198  11.368 -1.5077  0.7767 -0.3102
13712TIP3   OH262550   0.282   6.353  13.507 -0.0378 -0.0365  0.1626
13712TIP3    H162551   0.272   6.258  13.516  1.7700 -0.1909  0.9102
13712TIP3    H262552   0.295   6.384  13.596  1.4345  0.6269 -0.2576
13713TIP3   OH262553   1.790   5.691   5.088  0.1199  0.6864  0.6071
13713TIP3    H162554   1.853   5.681   5.017 -0.5765  2.4107 -0.3073
13713TIP3    H262555   1.712   5.646   5.057  0.7679 -1.2442  1.6403
13714TIP3   OH262556   2.756   2.024   2.594  0.5831 -0.5040 -0.2112
13714TIP3    H162557   2.723   2.092   2.654 -0.4298  0.6296 -1.9837
13714TIP3    H262558   2.847   2.011   2.622  0.3122  0.3656  1.2229
13715TIP3   OH262559   3.944   3.905   5.231  0.2721 -0.2657  0.8579
13715TIP3    H162560   3.884   3.897   5.305  0.1858  0.3820  0.8703
13715TIP3    H262561   3.928   3.994   5.198  0.8057 -0.3015  0.4989
13716TIP3   OH262562   1.150   0.490  15.696 -0.3363  0.0544  0.0894
13716TIP3    H162563   1.104   0.563  15.656  0.2129  0.0320 -0.5929
13716TIP3    H262564   1.117   0.413  15.651 -0.1540 -0.0270  0.0932
13717TIP3   OH262565   3.501   0.508   0.966  0.3827 -0.0266 -0.1594
13717TIP3    H162566   3.482   0.570   1.036  2.5356 -0.5891  1.0301
13717TIP3    H262567   3.505   0.562   0.887 -1.2678  0.7521  0.2382
13718TIP3   OH262568   3.303   2.504  12.089  0.4734 -0.1836 -0.1512
13718TIP3    H162569   3.247   2.543  12.156  1.1497  1.0614 -0.2814
13718TIP3    H262570   3.256   2.426  12.061  0.3113 -0.9070  1.9667
13719TIP3   OH262571   3.090   5.039  12.791  0.6921  0.4481 -0.3030
13719TIP3    H162572   3.143   5.060  12.867  1.4921 -0.9872 -0.4330
13719TIP3    H262573   3.136   4.966  12.749 -2.4938 -2.5221  0.8540
13720TIP3   OH262574   2.810   4.265   4.236 -0.1166 -0.1886  0.2912
13720TIP3    H162575   2.879   4.331   4.237  0.0523 -0.2545 -1.7640
13720TIP3    H262576   2.854   4.183   4.259 -0.0258  0.1376  1.3389
13721TIP3   OH262577   2.758   5.226  10.708 -0.0894 -0.1477 -0.0740
13721TIP3    H162578   2.846   5.191  10.694 -0.6939 -1.0545 -1.9441
13721TIP3    H262579   2.701   5.171  10.655 -1.5628  1.4933 -0.3094
13722TIP3   OH262580   6.556   6.460  16.984 -0.4640  0.5596 -0.8875
13722TIP3    H162581   6.618   6.451  16.912 -0.0225  0.8322 -0.5476
13722TIP3    H262582   6.519   6.548  16.973  1.3855  1.5953  0.5804
13723TIP3   OH262583   0.471   2.661  16.330 -0.5598 -0.3582  0.4582
13723TIP3    H162584   0.506   2.683  16.244  2.0037 -1.9531  0.9778
13723TIP3    H262585   0.510   2.726  16.389  0.6834 -1.4555  0.8847
13724TIP3   OH262586   1.940   4.883   0.011  0.2915  0.4301 -0.0028
13724TIP3    H162587   1.907   4.884  -0.079  1.9838  0.0973 -0.6504
13724TIP3    H262588   1.892   4.812   0.053 -0.8112  0.8521 -0.5120
13725TIP3   OH262589   0.139   2.517   0.469  0.9514 -0.4496 -0.2324
13725TIP3    H162590   0.157   2.448   0.533  0.8091 -0.3767 -0.1134
13725TIP3    H262591   0.079   2.576   0.514  0.0185 -0.9473 -0.7891
13726TIP3   OH262592   2.483   3.437  12.798  0.0783  0.2279 -0.3676
13726TIP3    H162593   2.476   3.359  12.854 -2.3134  1.8970  1.9004
13726TIP3    H262594   2.555   3.487  12.835 -0.1790  0.3728 -0.0577
13727TIP3   OH262595   4.317   6.420  12.651  0.5352  0.3453 -0.1831
13727TIP3    H162596   4.339   6.328  12.660 -1.4014 -0.2211 -0.5877
13727TIP3    H262597   4.340   6.441  12.560  1.8643  0.5421  0.1908
13728TIP3   OH262598   3.312   0.120  10.732  0.3938 -0.4877  0.0434
13728TIP3    H162599   3.279   0.044  10.683 -0.3351  0.0587 -0.3336
13728TIP3    H262600   3.338   0.183  10.665 -2.3876  1.0411  0.2421
13729TIP3   OH262601   1.319   3.575  12.620  0.0284 -0.4927 -0.1015
13729TIP3    H162602   1.236   3.585  12.667  1.1884  0.5879  1.8235
13729TIP3    H262603   1.335   3.662  12.583  1.2894 -0.0842  1.3168
13730TIP3   OH262604   2.394   2.129   0.588 -0.1149 -0.2306 -0.6337
13730TIP3    H162605   2.449   2.115   0.511  2.2141  1.1317  0.6829
13730TIP3    H262606   2.380   2.223   0.591  0.1905 -0.2148  0.8320
13731TIP3   OH262607   1.530   2.528  13.470  0.0341  0.1733 -0.1484
13731TIP3    H162608   1.603   2.487  13.423  0.5167  0.0694  0.6756
13731TIP3    H262609   1.570   2.602  13.516 -0.6959  1.1334 -1.0181
13732TIP3   OH262610   0.068   4.081  11.951 -0.4559  0.5680  0.0066
13732TIP3    H162611   0.091   3.993  11.980 -0.0163  0.8132  0.4013
13732TIP3    H262612   0.048   4.129  12.031  0.5763  1.1898 -0.1000
13733TIP3   OH262613   1.504   2.250  13.209 -0.6044  0.4699 -0.4319
13733TIP3    H162614   1.413   2.278  13.204 -0.3572  1.2879 -0.5440
13733TIP3    H262615   1.555   2.329  13.190  0.1876  0.8919  2.7509
13734TIP3   OH262616   1.581   0.380  15.024  0.3369  0.2063 -0.2356
13734TIP3    H162617   1.508   0.320  15.039  0.9586 -1.0063 -1.7759
13734TIP3    H262618   1.592   0.382  14.929  1.5332  1.3181 -0.1046
13735TIP3   OH262619   3.630   4.844   0.718 -0.2255  0.2733  0.0387
13735TIP3    H162620   3.716   4.839   0.675 -0.2681  1.2683 -0.1851
13735TIP3    H262621   3.590   4.759   0.701  0.6345 -0.1360 -0.0252
13736TIP3   OH262622   2.009   3.628   6.039  0.2176 -0.2441  0.1408
13736TIP3    H162623   2.076   3.578   6.086  0.1069 -0.6447 -0.1163
13736TIP3    H262624   1.926   3.594   6.074  0.1465 -0.0525  0.1550
13737TIP3   OH262625   4.782   1.070  14.593 -0.3012  0.4573 -0.2750
13737TIP3    H162626   4.788   0.987  14.545 -2.9798 -0.0071  0.0387
13737TIP3    H262627   4.795   1.046  14.684  0.4704  0.6391 -0.3353
13738TIP3   OH262628   1.744   3.397   5.699 -0.0662  0.2835  0.0403
13738TIP3    H162629   1.822   3.358   5.659  1.1120  1.7587  0.7729
13738TIP3    H262630   1.750   3.375   5.792 -1.5121 -1.0903 -0.1462
13739TIP3   OH262631   3.845   6.003   2.365 -0.5375 -0.1083 -0.4750
13739TIP3    H162632   3.770   6.056   2.394  0.2466 -0.2540  2.0741
13739TIP3    H262633   3.807   5.916   2.347 -0.7996 -0.9169  3.1614
13740TIP3   OH262634   2.422   5.211   5.818  0.1618  0.0531  0.2348
13740TIP3    H162635   2.502   5.230   5.866  1.0244 -0.1869 -1.0496
13740TIP3    H262636   2.380   5.142   5.869  1.7737 -1.2248 -0.0426
13741TIP3   OH262637   4.861   3.664   2.622 -0.1544  0.3309  0.6595
13741TIP3    H162638   4.930   3.644   2.558  0.5922  3.2224  0.3988
13741TIP3    H262639   4.902   3.646   2.707 -0.9921 -3.0691  0.4747
13742TIP3   OH262640   3.291   4.960   5.743  0.5870  0.5631  0.0893
13742TIP3    H162641   3.310   4.983   5.652  1.8951 -0.4609  0.0643
13742TIP3    H262642   3.211   4.909   5.738  1.4150 -0.7273 -0.7131
13743TIP3   OH262643   4.394   5.154  11.421  0.4556  0.1457 -0.2965
13743TIP3    H162644   4.458   5.102  11.469  0.3157  0.0667 -0.1938
13743TIP3    H262645   4.391   5.114  11.334 -0.3834 -0.6537  0.0826
13744TIP3   OH262646   5.271   4.823   5.560  0.0089  1.0295 -0.1392
13744TIP3    H162647   5.275   4.918   5.547  0.7170  1.5750  3.1851
13744TIP3    H262648   5.340   4.805   5.624 -0.8160 -1.5787  0.1269
13745TIP3   OH262649   1.906   6.196  12.234  0.4816  0.4459 -0.3248
13745TIP3    H162650   1.977   6.134  12.253 -0.2047  0.3729  2.5753
13745TIP3    H262651   1.882   6.180  12.143  2.4060 -1.3559 -0.5772
13746TIP3   OH262652   5.863   1.246  15.873  0.1595 -0.5591 -0.2112
13746TIP3    H162653   5.908   1.163  15.890 -0.9082 -1.7923 -2.8005
13746TIP3    H262654   5.772   1.229  15.895 -0.0431 -0.0055 -0.6002
13747TIP3   OH262655   5.321   1.243   6.110 -0.2264  0.1030 -0.5037
13747TIP3    H162656   5.301   1.215   6.199 -0.5830 -1.8197 -1.1373
13747TIP3    H262657   5.244   1.293   6.082  0.2575  1.5024  0.5169
13748TIP3   OH262658   2.940   6.344  14.220 -0.2552 -0.5234 -0.2337
13748TIP3    H162659   2.880   6.396  14.273  1.5072  0.9078  0.4573
13748TIP3    H262660   2.908   6.356  14.130 -1.6558 -0.7592  0.2019
13749TIP3   OH262661   5.162   4.214   2.324  0.0876 -0.0904 -0.2043
13749TIP3    H162662   5.116   4.207   2.407  0.2759  1.8664  0.1031
13749TIP3    H262663   5.254   4.197   2.345  0.1566  0.5587  0.0164
13750TIP3   OH262664   1.084   2.129   6.293  0.0795 -0.4900  0.0648
13750TIP3    H162665   1.110   2.219   6.314  0.6708  0.3466 -3.6024
13750TIP3    H262666   0.994   2.122   6.323  0.0411  1.3255  0.4517
13751TIP3   OH262667   2.783   3.688  14.961 -0.2405  0.0208  0.0633
13751TIP3    H162668   2.796   3.600  14.924 -1.8517  0.1324 -0.8584
13751TIP3    H262669   2.871   3.716  14.987  0.4687 -1.4226 -0.6556
13752TIP3   OH262670   6.588   4.442   5.717  0.5678 -0.8602 -0.0967
13752TIP3    H162671   6.555   4.456   5.628  1.0947 -3.2145 -0.7407
13752TIP3    H262672   6.682   4.453   5.710  0.4982  0.2323  0.4899
13753TIP3   OH262673   1.143   1.594  14.871  0.6122 -0.2776 -0.2355
13753TIP3    H162674   1.213   1.551  14.920  1.5544 -0.6026 -1.8027
13753TIP3    H262675   1.067   1.536  14.881  0.5188  0.0968  1.5006
13754TIP3   OH262676   4.566   3.357   4.732  0.0165 -0.0328 -0.3887
13754TIP3    H162677   4.648   3.324   4.697  0.9800  0.5828  1.1582
13754TIP3    H262678   4.554   3.442   4.688 -1.3005 -1.3015 -2.6834
13755TIP3   OH262679   3.438   0.023  14.234 -0.4821  0.4528 -0.8050
13755TIP3    H162680   3.433   0.114  14.264 -0.2079  0.0086  0.6681
13755TIP3    H262681   3.483   0.028  14.149  0.0931  1.6367 -0.4513
13756TIP3   OH262682   5.155   5.039   5.230 -0.1205 -0.0556 -0.7662
13756TIP3    H162683   5.085   5.037   5.165 -0.5619 -1.0473 -0.2779
13756TIP3    H262684   5.160   4.949   5.264  3.3138 -0.7799 -2.7778
13757TIP3   OH262685   0.351   4.950   1.023  0.1533 -0.2195  0.2537
13757TIP3    H162686   0.382   4.861   1.008  0.6250  0.1162 -0.8863
13757TIP3    H262687   0.416   4.989   1.081  0.1034 -0.5179  0.5156
13758TIP3   OH262688   1.338   0.404   5.035  0.7724 -0.2420  0.0131
13758TIP3    H162689   1.249   0.404   5.071  0.3574  0.4002 -0.9942
13758TIP3    H262690   1.391   0.361   5.103 -0.7078 -2.9150 -0.4175
13759TIP3   OH262691   6.230   0.805  13.060 -0.6061  0.1465 -0.4970
13759TIP3    H162692   6.262   0.848  12.981 -2.1711  1.7527 -0.3134
13759TIP3    H262693   6.269   0.856  13.132 -0.3401 -0.4104 -0.2424
13760TIP3   OH262694   3.395   3.374   1.084  0.5033  0.1886 -0.3509
13760TIP3    H162695   3.468   3.323   1.051  0.7474  1.2087 -1.4341
13760TIP3    H262696   3.415   3.386   1.177  0.0072 -2.3649  0.1689
13761TIP3   OH262697   3.788   0.126  14.950 -0.5151 -0.0422  0.3665
13761TIP3    H162698   3.759   0.187  15.018 -0.3903 -0.3258  0.6816
13761TIP3    H262699   3.870   0.090  14.984  0.3113  0.8788 -0.5974
13762TIP3   OH262700   0.591   2.148   0.745 -0.1059 -0.3859  0.1836
13762TIP3    H162701   0.655   2.217   0.727 -1.3955  1.3345  1.7129
13762TIP3    H262702   0.634   2.067   0.716  2.0234  0.8782 -0.4556
13763TIP3   OH262703   6.754   6.351  15.659  0.0479 -0.0614 -0.4062
13763TIP3    H162704   6.837   6.395  15.675 -0.5681  1.2842 -0.6827
13763TIP3    H262705   6.775   6.258  15.657  1.4772  0.2342 -0.1305
13764TIP3   OH262706   2.259   4.688  11.870  0.0303 -0.1870  0.0560
13764TIP3    H162707   2.282   4.742  11.945 -0.9563  0.1960  0.0952
13764TIP3    H262708   2.262   4.598  11.902  1.2164 -0.1356  0.1145
13765TIP3   OH262709   4.449   3.311   6.761  0.2140 -0.7039  0.0575
13765TIP3    H162710   4.411   3.322   6.848 -1.8860  3.5432 -1.1285
13765TIP3    H262711   4.391   3.250   6.717 -1.7735  0.9671  0.2194
13766TIP3   OH262712   4.463   1.518   4.766  0.5027  0.0787  0.1337
13766TIP3    H162713   4.532   1.579   4.789  0.9138  0.0543 -0.9645
13766TIP3    H262714   4.493   1.433   4.799  0.4533  0.2693  0.6694
13767TIP3   OH262715   3.910   5.189  11.634 -0.1812 -0.4141  0.0375
13767TIP3    H162716   4.001   5.168  11.612  0.2264 -0.7438  1.8037
13767TIP3    H262717   3.886   5.260  11.575  1.5325  0.2725  0.1058
13768TIP3   OH262718   1.953   4.792  13.882  0.0155 -0.1630 -0.3272
13768TIP3    H162719   2.009   4.728  13.838 -0.7821 -0.3344 -1.1331
13768TIP3    H262720   1.895   4.824  13.812 -0.2718  0.6833  0.2868
13769TIP3   OH262721   4.674   3.116   3.852  0.7307  0.1352  0.2365
13769TIP3    H162722   4.672   3.202   3.895  1.6807  0.2887 -0.0070
13769TIP3    H262723   4.675   3.053   3.924 -1.1853  0.2624  0.4276
13770TIP3   OH262724   3.280   1.749  15.537  0.0889  0.2872 -0.0609
13770TIP3    H162725   3.281   1.833  15.490 -1.0071 -1.0621 -2.7586
13770TIP3    H262726   3.193   1.745  15.577  1.1493  1.5967  2.6151
13771TIP3   OH262727   4.032   3.260  12.866 -0.3754 -0.0114 -0.0960
13771TIP3    H162728   3.948   3.302  12.883  0.0159  0.8308 -0.1493
13771TIP3    H262729   4.020   3.213  12.783 -1.2422 -1.2050  0.6808
13772TIP3   OH262730   5.758   5.027   5.046 -0.1639 -0.5359  0.2812
13772TIP3    H162731   5.703   5.100   5.075 -0.8218 -0.5161 -0.9710
13772TIP3    H262732   5.805   5.061   4.970 -1.7520 -1.9021 -1.3927
13773TIP3   OH262733   4.794   5.488  14.662  0.1934  0.1897 -0.1330
13773TIP3    H162734   4.878   5.499  14.707 -0.3482  0.8711  0.7671
13773TIP3    H262735   4.742   5.434  14.722 -0.3243  0.5689 -0.2365
13774TIP3   OH262736   5.767   6.470  12.339 -0.3808  0.0072  0.3540
13774TIP3    H162737   5.715   6.456  12.418 -2.5987  0.7265 -0.8682
13774TIP3    H262738   5.710   6.441  12.268  1.3254 -0.1009 -1.0450
13775TIP3   OH262739   2.260   0.322   0.091 -0.1502  0.6038  0.4416
13775TIP3    H162740   2.247   0.301  -0.002  2.2389 -0.9584  0.3949
13775TIP3    H262741   2.343   0.370   0.093  1.4587 -2.0202  1.9888
13776TIP3   OH262742   2.688   2.385  15.690 -0.2679 -0.0897 -0.1625
13776TIP3    H162743   2.625   2.316  15.713  0.1342 -0.1317  0.8301
13776TIP3    H262744   2.766   2.338  15.662 -0.6507 -0.0369 -1.4119
13777TIP3   OH262745   4.352   6.605   3.494 -0.0257 -0.7557 -0.2695
13777TIP3    H162746   4.316   6.648   3.417 -1.3154 -1.0358  0.1450
13777TIP3    H262747   4.300   6.639   3.567  1.3104 -0.3392  0.5119
13778TIP3   OH262748   5.028   2.123   1.935  0.1285  0.0636  0.6888
13778TIP3    H162749   5.022   2.203   1.988  0.6145 -0.9202  2.3103
13778TIP3    H262750   5.055   2.153   1.849  0.0356  1.6782  1.1891
13779TIP3   OH262751   1.624   6.240   0.241  0.0321  0.2401  0.2293
13779TIP3    H162752   1.541   6.287   0.245  0.2193  0.5967 -0.0321
13779TIP3    H262753   1.650   6.231   0.333 -0.1256  0.4344  0.2946
13780TIP3   OH262754   5.508   2.817   4.133  0.0862  0.3316  0.2667
13780TIP3    H162755   5.480   2.729   4.109  1.7740  0.1460 -1.1647
13780TIP3    H262756   5.463   2.875   4.072  1.2949  0.1900 -0.7826
13781TIP3   OH262757   1.740   2.539  11.417  0.3840  0.3520  0.0146
13781TIP3    H162758   1.693   2.600  11.360 -0.6127 -1.9591 -1.7871
13781TIP3    H262759   1.674   2.506  11.478  0.5489 -0.0351 -0.0106
13782TIP3   OH262760   4.091   0.627   1.302 -0.2601 -0.2195 -0.2942
13782TIP3    H162761   3.997   0.610   1.289 -0.9211  3.0196 -0.4009
13782TIP3    H262762   4.100   0.636   1.397  0.0509 -0.8805 -0.2529
13783TIP3   OH262763   3.711   1.407   2.083 -0.5921 -0.0262  0.2876
13783TIP3    H162764   3.657   1.379   2.009 -0.8123 -0.0114  0.4389
13783TIP3    H262765   3.715   1.329   2.140  0.6540 -0.4537 -0.3507
13784TIP3   OH262766   1.038   2.093  14.146 -0.2956 -0.0449  0.6309
13784TIP3    H162767   1.052   2.068  14.237  1.6422 -1.2179  0.0658
13784TIP3    H262768   1.004   2.014  14.105  2.9644 -1.0060 -0.5181
13785TIP3   OH262769   0.420   6.765   1.302  0.0792 -0.5556 -0.9261
13785TIP3    H162770   0.410   6.807   1.388 -0.7535  0.7348 -1.6224
13785TIP3    H262771   0.333   6.767   1.264  0.4795 -0.9362 -1.8848
13786TIP3   OH262772   6.307   5.276  10.849 -0.6954 -0.1323 -0.6709
13786TIP3    H162773   6.281   5.344  10.786 -0.9675  1.2168  0.8152
13786TIP3    H262774   6.321   5.324  10.930 -0.1896 -1.7981  0.2632
13787TIP3   OH262775   5.449   5.702  15.795  0.4710  0.1602 -0.4351
13787TIP3    H162776   5.528   5.755  15.791 -0.7115  2.0316 -0.2069
13787TIP3    H262777   5.398   5.729  15.719 -0.3277 -0.4109 -0.1130
13788TIP3   OH262778   2.416   0.467  12.770 -0.1598  0.3026 -0.2971
13788TIP3    H162779   2.432   0.532  12.838  2.6083  0.5816 -1.1261
13788TIP3    H262780   2.436   0.512  12.688 -2.1526 -0.4302 -1.2463
13789TIP3   OH262781   0.914   3.165  13.529  0.2168 -0.5126  0.1824
13789TIP3    H162782   0.833   3.179  13.578 -0.2477 -2.3988  0.0321
13789TIP3    H262783   0.975   3.128  13.593  0.3902 -0.7261 -0.1019
13790TIP3   OH262784   4.074   3.968   1.686  0.0422  0.3650 -0.0847
13790TIP3    H162785   4.046   3.972   1.595 -1.1753  0.2260  0.2589
13790TIP3    H262786   4.001   3.926   1.732  0.3949  0.9417  1.0516
13791TIP3   OH262787   2.895   1.182  11.945  0.2697  0.4069  1.3576
13791TIP3    H162788   2.984   1.170  11.978  0.7065 -0.5381 -0.0752
13791TIP3    H262789   2.902   1.259  11.888  0.1731  0.3112  1.2175
13792TIP3   OH262790   2.767   1.468   4.883 -0.0677 -0.1690  0.2588
13792TIP3    H162791   2.846   1.485   4.934  1.1805 -0.1660 -1.5554
13792TIP3    H262792   2.751   1.374   4.895 -1.8826  0.3822  3.3373
13793TIP3   OH262793   3.653   2.710   4.810  0.4696  0.2895 -0.0252
13793TIP3    H162794   3.704   2.757   4.745  3.6783 -1.7332  0.8121
13793TIP3    H262795   3.580   2.673   4.761  0.9410  1.5328 -1.7539
13794TIP3   OH262796   1.488   1.262   3.297  0.4084  0.2212 -0.0727
13794TIP3    H162797   1.453   1.351   3.290  0.4680  0.1908 -0.9542
13794TIP3    H262798   1.557   1.258   3.230 -1.0167 -1.1117 -1.5741
13795TIP3   OH262799   1.511   5.078   1.264  0.4213 -0.1593  0.1804
13795TIP3    H162800   1.445   5.014   1.290  1.2830 -0.8225  0.7834
13795TIP3    H262801   1.508   5.077   1.168  0.1455 -0.8090  0.1850
13796TIP3   OH262802   4.897   3.066  14.306 -0.5303 -0.2260 -0.1603
13796TIP3    H162803   4.843   3.058  14.384 -1.2817  0.4769 -0.5876
13796TIP3    H262804   4.915   2.976  14.279  2.5543 -0.6523  2.6506
13797TIP3   OH262805   0.298   1.118   4.015  0.2416 -0.7880  0.1117
13797TIP3    H162806   0.261   1.206   4.005  0.2909 -0.8095 -0.3086
13797TIP3    H262807   0.302   1.104   4.109 -0.0338 -0.4524  0.1768
13798TIP3   OH262808   2.356   4.833  11.091 -0.3204  0.8273 -0.2170
13798TIP3    H162809   2.372   4.922  11.123 -0.1000  1.0790 -1.0112
13798TIP3    H262810   2.397   4.830  11.005  0.2748 -0.2665  0.0858
13799TIP3   OH262811   4.184   0.078  11.778 -0.6540  0.4530 -0.1570
13799TIP3    H162812   4.186   0.144  11.709  1.2306 -1.2479 -1.8412
13799TIP3    H262813   4.191  -0.006  11.732  0.6577 -0.7589  2.0615
13800TIP3   OH262814   3.043   2.082   2.974 -0.2874  0.0043  0.6087
13800TIP3    H162815   2.962   2.033   2.985  1.0568 -2.5403  0.1487
13800TIP3    H262816   3.094   2.063   3.053  0.9993 -0.9309 -0.4024
13801TIP3   OH262817   4.973   2.802   3.809  0.1254  0.2090 -1.2816
13801TIP3    H162818   4.925   2.771   3.732 -0.9630  1.7685 -1.2926
13801TIP3    H262819   4.905   2.813   3.876  1.0244 -0.8803 -0.1561
13802TIP3   OH262820   6.325   4.948   0.588 -0.6080  0.6689  0.3936
13802TIP3    H162821   6.333   4.956   0.683  0.4597 -0.4051  0.4243
13802TIP3    H262822   6.415   4.935   0.558 -1.2369 -3.4897 -0.2760
13803TIP3   OH262823   1.497   1.794  11.847 -0.5881  0.2131 -0.0561
13803TIP3    H162824   1.530   1.757  11.765 -1.1500 -1.7732  0.5809
13803TIP3    H262825   1.494   1.721  11.908 -1.8019  1.2934  1.2513
13804TIP3   OH262826   6.100   1.180   3.550 -0.2805 -0.3556 -0.1993
13804TIP3    H162827   6.158   1.222   3.614 -0.1388 -0.7133 -0.0928
13804TIP3    H262828   6.102   1.239   3.475 -3.3146  2.0616  1.3760
13805TIP3   OH262829   4.398   2.004   3.303  0.0674 -0.4494  0.0186
13805TIP3    H162830   4.453   1.961   3.370 -1.2725 -1.2326  0.6617
13805TIP3    H262831   4.321   2.033   3.351 -0.6873 -0.5597 -1.1014
13806TIP3   OH262832   1.950   3.328   0.844  0.1958  0.1865 -0.0717
13806TIP3    H162833   1.992   3.359   0.924  0.0551 -1.6196  0.7446
13806TIP3    H262834   1.925   3.237   0.863 -3.6243  0.9327 -0.6641
13807TIP3   OH262835   2.337   5.159  16.158 -0.0633 -0.4435 -0.2140
13807TIP3    H162836   2.287   5.219  16.103 -0.6107 -1.5555 -0.9649
13807TIP3    H262837   2.297   5.166  16.245 -0.5312 -0.1929 -0.4450
13808TIP3   OH262838   5.548   3.157  12.355 -0.2016 -0.1373 -0.4175
13808TIP3    H162839   5.641   3.165  12.333 -0.1474  0.2977 -0.0508
13808TIP3    H262840   5.538   3.209  12.435 -0.5817 -0.9119  0.0435
13809TIP3   OH262841   3.036   4.317  14.726 -0.0522  0.9060 -0.4034
13809TIP3    H162842   3.057   4.351  14.639 -0.6314  0.1143 -0.8599
13809TIP3    H262843   3.108   4.349  14.782 -0.3736  2.5517 -0.8682
13810TIP3   OH262844   4.505   2.118  13.722 -0.2957 -0.7578  0.0556
13810TIP3    H162845   4.593   2.140  13.691 -0.9783  0.2178 -1.2823
13810TIP3    H262846   4.471   2.200  13.757 -0.3586 -1.3431  1.4110
13811TIP3   OH262847   3.994   1.120  14.978 -0.2676 -0.0289 -0.5189
13811TIP3    H162848   4.032   1.075  15.053  1.7014  2.7137  0.2867
13811TIP3    H262849   4.054   1.192  14.960 -1.5386  0.3980 -3.7269
13812TIP3   OH262850   6.672   2.228   2.305  0.0155  0.2273 -0.6717
13812TIP3    H162851   6.755   2.236   2.353 -0.2696  1.9125 -0.4030
13812TIP3    H262852   6.604   2.237   2.372 -0.4301 -1.4743 -0.8404
13813TIP3   OH262853   3.483   0.284  13.553  0.0215 -0.5384  0.6660
13813TIP3    H162854   3.544   0.347  13.516 -2.0672  0.6619 -0.9835
13813TIP3    H262855   3.531   0.202  13.555  0.4776 -0.8285 -5.0785
13814TIP3   OH262856   3.265   5.305  14.279  0.0483 -0.3303 -0.0893
13814TIP3    H162857   3.237   5.360  14.352 -0.1253  0.8854 -1.0404
13814TIP3    H262858   3.339   5.255  14.314  0.8802  1.2538  0.5329
13815TIP3   OH262859   0.655   2.428  13.198 -0.1348  0.1537  0.1893
13815TIP3    H162860   0.650   2.478  13.280 -1.3267 -0.8979  0.8000
13815TIP3    H262861   0.617   2.486  13.132 -1.1987  0.1963  0.8208
13816TIP3   OH262862   1.479   1.143   2.796  0.1766  0.3798 -0.0811
13816TIP3    H162863   1.567   1.177   2.809  1.6794 -1.6611 -3.4229
13816TIP3    H262864   1.478   1.113   2.705 -3.1902 -1.9146  0.5118
13817TIP3   OH262865   5.299   1.196  15.909  0.3368  0.1203 -0.0458
13817TIP3    H162866   5.226   1.194  15.970  1.2207  0.1035  1.0264
13817TIP3    H262867   5.294   1.283  15.868 -0.4725 -0.0067 -0.2348
13818TIP3   OH262868   4.715   0.395  11.161  0.0019  0.2771  0.6378
13818TIP3    H162869   4.693   0.445  11.240  1.7936  0.8466  0.8353
13818TIP3    H262870   4.802   0.427  11.137  0.0625 -0.8730 -0.7885
13819TIP3   OH262871   2.199   6.268  10.886  0.4444 -0.2912 -0.6462
13819TIP3    H162872   2.288   6.262  10.851  0.1923  1.6845 -1.7607
13819TIP3    H262873   2.164   6.350  10.850 -1.0044  0.1967  1.6483
13820TIP3   OH262874   3.810   2.838   4.092  0.3511 -0.0068 -0.4789
13820TIP3    H162875   3.865   2.886   4.154  1.7027  0.7197 -2.1697
13820TIP3    H262876   3.766   2.772   4.146  0.2694  1.5659  1.5093
13821TIP3   OH262877   1.568   4.850  17.210 -0.5031  0.4046  0.1088
13821TIP3    H162878   1.613   4.929  17.181 -2.0926  1.2269 -0.2453
13821TIP3    H262879   1.543   4.806  17.129 -1.3924  0.6025  0.2634
13822TIP3   OH262880   5.690   5.448  16.034 -0.1306  0.1172  0.1313
13822TIP3    H162881   5.595   5.438  16.031 -0.3417  0.7787  2.7878
13822TIP3    H262882   5.706   5.541  16.022 -0.0610  0.4321  2.2609
13823TIP3   OH262883   2.062   0.739   2.227 -0.0472  0.0310  0.5246
13823TIP3    H162884   2.095   0.671   2.169 -0.8202  0.5028 -0.4941
13823TIP3    H262885   2.060   0.818   2.173 -0.2054  0.6264  1.3727
13824TIP3   OH262886   2.187   0.888   4.777  0.5500  0.4294 -0.1714
13824TIP3    H162887   2.093   0.871   4.784  0.4441  0.5770 -1.0533
13824TIP3    H262888   2.219   0.819   4.719  1.0127  0.3018  0.2348
13825TIP3   OH262889   1.590   4.665   2.259  0.0345  0.4000 -0.2984
13825TIP3    H162890   1.629   4.611   2.189 -0.2625  0.9467 -0.8970
13825TIP3    H262891   1.619   4.754   2.239 -0.1537  0.5784  0.2137
13826TIP3   OH262892   0.737   3.917  13.215  0.4680 -0.0798 -0.1579
13826TIP3    H162893   0.782   3.841  13.180  1.5881  1.1764 -1.5912
13826TIP3    H262894   0.693   3.956  13.139 -1.1127  0.0388  0.7797
13827TIP3   OH262895   3.141   2.498  14.135 -0.6017  0.2792 -0.0763
13827TIP3    H162896   3.070   2.516  14.197 -1.8986  2.6458 -2.0689
13827TIP3    H262897   3.221   2.510  14.185 -1.5864 -0.0186  1.6414
13828TIP3   OH262898   3.913   1.427   6.314  0.0092  0.3442 -0.3430
13828TIP3    H162899   3.956   1.353   6.272  1.4307  0.9076  0.0455
13828TIP3    H262900   3.943   1.423   6.405  0.7693  1.8171 -0.4852
13829TIP3   OH262901   4.770   4.900   5.102 -0.3196 -0.3485 -0.2320
13829TIP3    H162902   4.767   4.815   5.059 -0.4222 -1.0793  1.1477
13829TIP3    H262903   4.710   4.891   5.177 -0.1714  0.8682  0.0560
13830TIP3   OH262904   2.997   3.377   5.244 -0.1516  0.1985  0.1754
13830TIP3    H162905   3.056   3.323   5.296 -0.5629  0.9944  1.5432
13830TIP3    H262906   2.926   3.318   5.217  0.1106 -0.2458  0.4585
13831TIP3   OH262907   6.704   0.348   3.036  0.3380 -0.3524 -0.1475
13831TIP3    H162908   6.749   0.354   2.952 -1.1763  0.4779 -0.9355
13831TIP3    H262909   6.668   0.259   3.038 -1.0774  0.1633 -1.1896
13832TIP3   OH262910   2.541   1.027  11.490  0.0580 -1.0343 -0.6900
13832TIP3    H162911   2.565   0.990  11.575 -1.8110 -1.6155 -0.3858
13832TIP3    H262912   2.546   1.122  11.503 -3.6556 -0.9242  1.2554
13833TIP3   OH262913   3.111   1.839  10.802  0.0961  0.0921  0.2293
13833TIP3    H162914   3.061   1.804  10.876  1.6032 -0.4403  1.0278
13833TIP3    H262915   3.186   1.780  10.793  1.5226  1.8238  0.1832
13834TIP3   OH262916   1.844   4.626   3.833  0.2088 -0.0829 -0.1332
13834TIP3    H162917   1.754   4.634   3.867 -0.0924  0.4139 -1.0107
13834TIP3    H262918   1.887   4.707   3.861  0.3452 -0.2630  0.1771
13835TIP3   OH262919   4.885   2.441   4.321 -0.1464  0.0020 -0.2507
13835TIP3    H162920   4.802   2.425   4.277  0.7529 -1.3460 -1.5278
13835TIP3    H262921   4.933   2.499   4.262  0.4814 -0.5913 -0.3269
13836TIP3   OH262922   0.705   4.454   1.234 -0.3426  0.2441  0.1398
13836TIP3    H162923   0.776   4.517   1.237  1.6231 -1.8797  1.5112
13836TIP3    H262924   0.666   4.466   1.147  3.2884 -0.1244 -1.7141
13837TIP3   OH262925   1.100   2.865   1.425  1.0535  0.2008  0.1249
13837TIP3    H162926   1.089   2.861   1.520  2.6261  2.6611  0.5151
13837TIP3    H262927   1.061   2.785   1.392  0.2301 -0.5913  2.8297
13838TIP3   OH262928   5.340   1.207   4.639  0.1520  0.6817 -0.2316
13838TIP3    H162929   5.290   1.287   4.658  0.4582  1.1425 -1.3086
13838TIP3    H262930   5.275   1.143   4.612  0.0063  0.8550 -0.2867
13839TIP3   OH262931   6.611   6.182   5.654  0.4704 -0.5045  0.0806
13839TIP3    H162932   6.646   6.093   5.652  0.0439 -0.6779 -1.8095
13839TIP3    H262933   6.688   6.238   5.664  0.6760 -1.0778  2.0291
13840TIP3   OH262934   6.141   1.211  16.103 -0.4856 -0.4866  0.1521
13840TIP3    H162935   6.116   1.164  16.182  0.8683 -0.1633  0.7903
13840TIP3    H262936   6.076   1.280  16.094 -0.2158 -0.0550  1.4144
13841TIP3   OH262937   3.475   2.504  13.619  0.1940 -0.3926 -0.4106
13841TIP3    H162938   3.456   2.411  13.608 -0.2563 -0.7328  2.4511
13841TIP3    H262939   3.541   2.508  13.687  0.5602  1.3973 -0.7929
13842TIP3   OH262940   3.923   3.272   6.013  0.3910  0.3968  0.1744
13842TIP3    H162941   3.924   3.274   6.109 -0.5798  3.1638  0.2124
13842TIP3    H262942   4.015   3.282   5.989  0.5691  0.3559  0.8017
13843TIP3   OH262943   5.912   2.316  17.150  0.0563 -1.0601 -0.2063
13843TIP3    H162944   5.822   2.283  17.149 -0.7088  0.8512  0.5319
13843TIP3    H262945   5.913   2.384  17.082  1.7430 -2.8674 -2.1165
13844TIP3   OH262946   1.567   0.369  16.017 -0.0531 -0.0009  0.8142
13844TIP3    H162947   1.637   0.303  16.017 -0.3044 -0.2677  0.8430
13844TIP3    H262948   1.614   0.453  16.011  0.2313 -0.2319 -0.8699
13845TIP3   OH262949   1.611   1.748   3.870 -0.2962  0.6344 -0.8385
13845TIP3    H162950   1.551   1.821   3.851  0.3681  1.1722 -0.9169
13845TIP3    H262951   1.566   1.696   3.936 -0.5277  1.4536 -0.3336
13846TIP3   OH262952   1.496   1.778  16.140  0.4222 -0.2835 -0.2071
13846TIP3    H162953   1.588   1.798  16.121  0.3866 -0.1538 -0.2472
13846TIP3    H262954   1.475   1.832  16.215  0.4500 -0.5037 -0.0393
13847TIP3   OH262955   0.011   4.116   4.072 -0.6859 -0.2390 -0.0662
13847TIP3    H162956  -0.080   4.126   4.102 -0.4175  0.2239  0.6176
13847TIP3    H262957   0.063   4.120   4.152 -0.0847 -0.9352 -0.4042
13848TIP3   OH262958   0.789   3.506  13.749  0.1936 -0.3255 -0.2178
13848TIP3    H162959   0.827   3.498  13.661 -0.1839 -0.1029 -0.4040
13848TIP3    H262960   0.817   3.592  13.779 -0.0619 -0.2093 -0.3088
13849TIP3   OH262961   4.437   2.435  12.741 -0.4857 -0.9902  0.8165
13849TIP3    H162962   4.367   2.392  12.790 -2.6893 -0.5006 -1.6992
13849TIP3    H262963   4.500   2.366  12.723  0.6163 -1.1330  4.4500
13850TIP3   OH262964   4.624   4.423   6.720  0.3004 -0.7684 -0.0314
13850TIP3    H162965   4.574   4.434   6.638 -0.7835  0.7741  0.7634
13850TIP3    H262966   4.703   4.475   6.707 -0.9513  1.4498  0.6738
13851TIP3   OH262967   0.095   2.790   6.130 -0.4814  0.3808  0.0107
13851TIP3    H162968   0.030   2.733   6.172 -1.0470  0.7577 -0.3278
13851TIP3    H262969   0.139   2.733   6.067 -1.5805  0.4692 -0.8886
13852TIP3   OH262970   5.776   3.442   1.221 -0.0639  0.4102 -0.6219
13852TIP3    H162971   5.824   3.466   1.142  0.3747  0.0451 -0.4714
13852TIP3    H262972   5.845   3.418   1.284 -0.3521  1.5315  0.1495
13853TIP3   OH262973   1.834   3.538   3.366  0.2528  0.0746  0.0139
13853TIP3    H162974   1.879   3.524   3.450  1.6600 -1.7822 -0.9874
13853TIP3    H262975   1.799   3.627   3.372  2.8044  1.0659  1.4415
13854TIP3   OH262976   1.638   3.998   4.856  0.9851  0.2346  0.8161
13854TIP3    H162977   1.722   3.995   4.902  1.8597 -0.1913 -0.7088
13854TIP3    H262978   1.633   4.086   4.820  0.9430  0.1468  0.6063
13855TIP3   OH262979   3.229   5.530   5.165  0.2768  0.1914  0.1047
13855TIP3    H162980   3.316   5.567   5.179 -0.1808  1.3569 -0.0112
13855TIP3    H262981   3.174   5.575   5.229 -0.4347  0.2032 -0.5053
13856TIP3   OH262982   1.933   1.047   1.731 -0.6411 -0.2689  0.5663
13856TIP3    H162983   1.846   1.077   1.706 -0.7612 -1.4305 -0.5211
13856TIP3    H262984   1.974   1.124   1.771 -1.3501  1.0022 -1.0194
13857TIP3   OH262985   3.251   1.693  13.901  0.0053  0.4645 -0.0674
13857TIP3    H162986   3.297   1.769  13.864 -0.1699 -0.1983 -1.7627
13857TIP3    H262987   3.182   1.731  13.956 -2.0067  1.7197 -3.1798
13858TIP3   OH262988   0.533   5.721   1.138  0.4759  0.6917 -0.1090
13858TIP3    H162989   0.626   5.701   1.148  0.5322  0.3335 -1.3053
13858TIP3    H262990   0.489   5.658   1.195  0.9644  1.0290  0.6678
13859TIP3   OH262991   4.227   3.426  11.743 -0.1190 -0.5377  0.2102
13859TIP3    H162992   4.281   3.467  11.810  0.0448 -1.0389  0.3842
13859TIP3    H262993   4.140   3.463  11.757 -0.2615 -1.2084  1.1930
13860TIP3   OH262994   6.534   3.250  17.174 -0.3148 -0.0819  0.7727
13860TIP3    H162995   6.538   3.278  17.082  1.8152  0.7840  1.0603
13860TIP3    H262996   6.604   3.300  17.217 -0.1231 -1.7316  2.5108
13861TIP3   OH262997   6.275   4.052  13.684  0.3001 -0.1033 -0.3092
13861TIP3    H162998   6.290   4.019  13.595 -0.5326 -0.7533 -0.2164
13861TIP3    H262999   6.333   4.000  13.739  0.4788 -0.0156 -0.4135
13862TIP3   OH263000   3.573   0.142  15.598  0.3435  0.1005  0.1536
13862TIP3    H163001   3.635   0.093  15.544 -0.6130  0.6724 -1.5379
13862TIP3    H263002   3.488   0.101  15.580 -0.4499  2.2095 -1.1705
13863TIP3   OH263003   2.566   0.198   3.565 -0.0800 -0.1777  0.5472
13863TIP3    H163004   2.481   0.166   3.595 -0.2786  0.1545  0.3487
13863TIP3    H263005   2.624   0.187   3.641 -0.4599  0.2082  0.9022
13864TIP3   OH263006   2.812   1.607  15.435 -0.3511  0.1793  0.1397
13864TIP3    H163007   2.889   1.623  15.490 -0.6665 -2.9419  1.7251
13864TIP3    H263008   2.738   1.625  15.493 -0.8265  1.3005 -0.7810
13865TIP3   OH263009   3.098   6.326   1.862 -0.5392 -0.1778  0.0484
13865TIP3    H163010   3.106   6.416   1.829 -1.0704 -0.1509 -0.0163
13865TIP3    H263011   3.175   6.281   1.827 -1.3536 -0.2810 -1.6980
13866TIP3   OH263012   4.810   2.701   3.621 -0.1888  0.2150  0.7738
13866TIP3    H163013   4.745   2.746   3.568  1.3862  4.8687  2.2667
13866TIP3    H263014   4.884   2.687   3.562  0.0760  1.6882  0.7155
13867TIP3   OH263015   4.563   4.052  16.679 -0.0797 -0.4282 -0.7394
13867TIP3    H163016   4.636   4.108  16.708  0.3677 -1.2594 -0.2309
13867TIP3    H263017   4.551   3.990  16.751 -1.4817 -0.1281 -0.6940
13868TIP3   OH263018   6.590   2.096   6.082  0.8586 -0.2900 -0.2640
13868TIP3    H163019   6.526   2.024   6.083 -0.0198  0.4525 -0.8748
13868TIP3    H263020   6.675   2.053   6.084  0.3450 -1.3130  0.4019
13869TIP3   OH263021   1.691   5.568   3.618  0.2849 -0.4275  0.0802
13869TIP3    H163022   1.606   5.610   3.605 -0.9094 -2.7982 -0.3712
13869TIP3    H263023   1.692   5.543   3.710  0.3072 -0.7665 -0.0116
13870TIP3   OH263024   3.284   3.520   2.748  0.1399 -0.2615 -0.0870
13870TIP3    H163025   3.307   3.592   2.690 -1.9873  0.7972  0.2656
13870TIP3    H263026   3.195   3.495   2.721 -0.4518 -0.5289  1.8941
13871TIP3   OH263027   5.430   5.885  16.155  0.0139  0.6249 -0.5405
13871TIP3    H163028   5.517   5.909  16.187  0.2258  0.2187 -0.8029
13871TIP3    H263029   5.421   5.932  16.072 -0.0846  0.7995 -0.4309
13872TIP3   OH263030   0.739   6.592  14.636  0.0456  0.5996  0.2969
13872TIP3    H163031   0.823   6.565  14.599 -1.0798  0.2603 -2.2014
13872TIP3    H263032   0.706   6.658  14.575 -1.0746  1.4679  1.7733
13873TIP3   OH263033   6.749   5.763  11.295  0.7572 -0.0829  0.3538
13873TIP3    H163034   6.729   5.855  11.280  2.3354  0.0910 -0.9295
13873TIP3    H263035   6.666   5.717  11.281  0.3032  0.9842 -0.5469
13874TIP3   OH263036   3.446   2.857  16.233  0.1900  0.6026 -0.2729
13874TIP3    H163037   3.454   2.799  16.157 -0.2444 -0.6186  0.5754
13874TIP3    H263038   3.497   2.814  16.301 -1.9033  0.0238  1.0320
13875TIP3   OH263039   2.075   0.418   4.709  0.3426  0.3733  0.3468
13875TIP3    H163040   2.170   0.417   4.692  0.4100  0.1789  0.7368
13875TIP3    H263041   2.062   0.351   4.775 -0.2257 -0.3911 -0.5155
13876TIP3   OH263042   6.229   1.592  11.315  0.5840 -0.9953  0.2074
13876TIP3    H163043   6.225   1.688  11.316  2.4580 -0.8922  0.7376
13876TIP3    H263044   6.183   1.565  11.394  1.8374 -0.4214  1.1550
13877TIP3   OH263045   1.325   3.174  14.817 -0.0137  0.0692 -0.0180
13877TIP3    H163046   1.401   3.182  14.875 -1.0543  0.0795  1.4030
13877TIP3    H263047   1.349   3.107  14.754  2.4072  2.2787 -1.6431
13878TIP3   OH263048   6.054   5.993  11.765 -0.3504  0.2432 -0.7451
13878TIP3    H163049   6.086   6.055  11.699 -0.6452  0.5854 -0.5628
13878TIP3    H263050   5.962   6.016  11.777  0.1105  1.3214  1.0554
13879TIP3   OH263051   2.483   1.057   1.653 -0.1045 -0.4036 -0.2439
13879TIP3    H163052   2.551   1.112   1.615  0.2605 -2.6336 -3.2093
13879TIP3    H263053   2.460   0.996   1.583 -3.1228 -1.6098  1.6014
13880TIP3   OH263054   1.139   3.446  13.396  0.6686  0.4878  0.1297
13880TIP3    H163055   1.047   3.430  13.419  1.1466 -1.8400  0.6201
13880TIP3    H263056   1.136   3.475  13.305 -0.5840  0.9160  0.2839
13881TIP3   OH263057   5.327   2.003  13.116 -0.3977  0.4056 -0.0948
13881TIP3    H163058   5.349   1.946  13.189  1.7830  0.3087 -0.7769
13881TIP3    H263059   5.304   1.944  13.045  0.0620  0.4289 -0.2624
13882TIP3   OH263060   6.697   0.697   2.620 -0.1217  0.6893 -0.0261
13882TIP3    H163061   6.771   0.655   2.665 -1.0769  0.0307  0.9930
13882TIP3    H263062   6.669   0.633   2.555  0.5917  1.2070 -0.8635
13883TIP3   OH263063   1.540   1.623  15.271  0.1901 -0.0529 -0.6809
13883TIP3    H163064   1.579   1.642  15.186  0.8032  0.5101 -0.2853
13883TIP3    H263065   1.605   1.654  15.334 -1.0611  1.2648  0.0045
13884TIP3   OH263066   6.407   5.317   1.187  0.3830 -0.6191  0.5763
13884TIP3    H163067   6.445   5.229   1.193 -0.0529 -0.8722 -0.2153
13884TIP3    H263068   6.351   5.324   1.265  0.3351 -1.0881  0.5907
13885TIP3   OH263069   5.849   2.979  13.479 -0.2110  0.0528 -0.1973
13885TIP3    H163070   5.805   2.906  13.522  0.9464 -1.6505 -1.7414
13885TIP3    H263071   5.795   2.998  13.402 -0.1313  0.3890 -0.1742
13886TIP3   OH263072   6.611   2.121  16.395  0.2197  0.2159  0.3208
13886TIP3    H163073   6.703   2.106  16.373  0.3825  1.0166  0.4210
13886TIP3    H263074   6.609   2.114  16.491  0.0282 -0.5290  0.2726
13887TIP3   OH263075   6.672   6.298   6.003 -0.3736 -0.3635 -0.1716
13887TIP3    H163076   6.720   6.355   6.063 -0.4250  0.2933 -0.7322
13887TIP3    H263077   6.624   6.359   5.947  0.2803 -0.9327 -1.3783
13888TIP3   OH263078   0.837   0.163   1.545 -0.1577 -0.0011  0.0278
13888TIP3    H163079   0.829   0.240   1.488  0.4956  0.8143  0.9890
13888TIP3    H263080   0.883   0.196   1.623 -2.0632 -0.7700  1.5601
13889TIP3   OH263081   5.539   2.971   4.415  0.0683 -1.0665  0.1739
13889TIP3    H163082   5.541   3.034   4.343 -0.8304 -0.9465  0.2356
13889TIP3    H263083   5.627   2.935   4.419  0.2397 -0.7613 -0.7100
13890TIP3   OH263084   1.671   2.485  13.241 -0.1463 -0.1231  0.1373
13890TIP3    H163085   1.735   2.485  13.170  0.1493  0.8565  0.3937
13890TIP3    H263086   1.648   2.577  13.252 -1.0189 -0.3896  0.5715
13891TIP3   OH263087   3.110   6.070   5.889 -0.1300  0.1238  0.0012
13891TIP3    H163088   3.097   6.083   5.983 -1.3579  1.0833 -0.2843
13891TIP3    H263089   3.133   5.977   5.881 -1.3118 -0.2907  1.1265
13892TIP3   OH263090   6.532   0.396   1.836  0.1079  0.5893  0.3348
13892TIP3    H163091   6.617   0.410   1.794  0.2055 -2.6895 -0.8616
13892TIP3    H263092   6.552   0.378   1.927  0.2882  3.2071  0.9002
13893TIP3   OH263093   2.330   0.395   4.672 -0.1721  0.0540  0.1345
13893TIP3    H163094   2.395   0.432   4.613 -1.1430  1.7195  0.0290
13893TIP3    H263095   2.365   0.412   4.759 -0.8642  1.8777  0.1088
13894TIP3   OH263096   1.901   4.654  11.996 -0.2245  0.3522  0.0391
13894TIP3    H163097   1.993   4.680  11.986 -0.3065  1.3649  1.5991
13894TIP3    H263098   1.864   4.666  11.908  0.4459  2.8315  0.0036
13895TIP3   OH263099   3.388   6.488   6.143  0.0623 -0.6825 -0.3747
13895TIP3    H163100   3.451   6.421   6.169  1.0884 -0.5440 -2.3578
13895TIP3    H263101   3.428   6.532   6.068 -0.7650  1.8976  0.5589
13896TIP3   OH263102   0.466   3.827  16.106 -0.1533 -0.3391 -0.4636
13896TIP3    H163103   0.462   3.832  16.201  0.2695  0.0841 -0.4672
13896TIP3    H263104   0.377   3.801  16.080 -0.1975 -0.7281  0.0581
13897TIP3   OH263105   4.963   2.671   3.380  0.5152 -0.2091 -0.0359
13897TIP3    H163106   4.981   2.765   3.374 -0.0146 -0.0583  0.6505
13897TIP3    H263107   5.015   2.633   3.309 -2.8779  1.0555 -3.6094
13898TIP3   OH263108   1.710   1.761   0.335  0.0992  0.0400  0.6447
13898TIP3    H163109   1.667   1.717   0.262  0.5491  0.0433  0.3731
13898TIP3    H263110   1.773   1.820   0.294  1.2260 -0.8513  1.0428
13899TIP3   OH263111   6.397   1.177  16.011  0.4863 -0.4610 -0.3254
13899TIP3    H163112   6.391   1.198  15.918 -0.3792 -0.4126 -0.2735
13899TIP3    H263113   6.306   1.164  16.038  0.5576  1.2364  0.9025
13900TIP3   OH263114   0.852   4.842  11.972  0.0294 -0.2106 -0.4349
13900TIP3    H163115   0.795   4.861  11.897 -0.4004  0.3026  0.0240
13900TIP3    H263116   0.809   4.882  12.047  0.0662 -1.3744  0.2358
13901TIP3   OH263117   3.230   1.429  14.715  0.3453 -0.4747 -0.6844
13901TIP3    H163118   3.161   1.495  14.726  0.5763 -0.4829  1.0993
13901TIP3    H263119   3.284   1.464  14.644 -0.5278  0.3656 -0.9714
13902TIP3   OH263120   6.373   4.329   0.473  0.3756  0.0552  0.3157
13902TIP3    H163121   6.365   4.395   0.542 -0.7392  0.2259  0.0316
13902TIP3    H263122   6.283   4.305   0.452  0.7485 -0.9711 -0.1532
13903TIP3   OH263123   0.603   1.610  12.153 -0.1964  0.2304 -0.0675
13903TIP3    H163124   0.668   1.612  12.224  0.5427  0.0828 -0.7253
13903TIP3    H263125   0.648   1.649  12.078 -1.4553  1.7873 -0.0803
13904TIP3   OH263126   3.419   0.593   0.568  0.4630 -0.4710  0.3211
13904TIP3    H163127   3.365   0.615   0.493  0.4535 -1.3827  0.0486
13904TIP3    H263128   3.414   0.497   0.574  1.3689 -0.4994  0.7925
13905TIP3   OH263129   0.361   5.283   4.518  0.1738  0.0504  0.0938
13905TIP3    H163130   0.296   5.226   4.558 -0.8988 -1.1038 -2.9748
13905TIP3    H263131   0.429   5.293   4.584 -0.9865 -2.4357  1.8007
13906TIP3   OH263132   2.366   0.703  14.054  0.1223  0.6193 -0.2900
13906TIP3    H163133   2.380   0.608  14.063 -0.4172  0.5171 -0.4622
13906TIP3    H263134   2.413   0.741  14.128  1.6578  0.3434 -1.0934
13907TIP3   OH263135   2.455   3.444  14.538 -0.2809 -0.4061  0.4635
13907TIP3    H163136   2.476   3.501  14.464  0.2357 -1.6855 -0.4285
13907TIP3    H263137   2.405   3.499  14.598  0.6220  1.0982 -0.1095
13908TIP3   OH263138   1.065   4.753  17.134  0.0710  0.3151 -0.0895
13908TIP3    H163139   1.005   4.828  17.130  0.2584  0.4709  0.0350
13908TIP3    H263140   1.031   4.692  17.068  0.4036  0.8667 -0.7767
13909TIP3   OH263141   5.823   3.845   4.733 -0.0873 -0.5131 -0.0617
13909TIP3    H163142   5.740   3.830   4.688 -0.9406  0.4902  1.1200
13909TIP3    H263143   5.846   3.760   4.770  0.3347 -1.2180 -1.8330
13910TIP3   OH263144   3.624   2.064  13.664 -0.4291 -0.2330 -0.1683
13910TIP3    H163145   3.561   2.069  13.593 -2.0663 -2.1292  1.0649
13910TIP3    H263146   3.633   2.155  13.694 -0.0743  0.5391 -2.3908
13911TIP3   OH263147   3.489   0.117   2.385 -0.5271 -0.2600 -0.3304
13911TIP3    H163148   3.400   0.113   2.421 -1.0891 -1.1342 -1.7154
13911TIP3    H263149   3.546   0.103   2.460 -1.4887  1.4657  0.7987
13912TIP3   OH263150   5.194   5.005   2.062 -0.2267 -0.7390 -0.4308
13912TIP3    H163151   5.134   5.046   2.125 -0.1566  1.6192 -1.7641
13912TIP3    H263152   5.278   5.002   2.108 -0.6423 -1.0793  0.3315
13913TIP3   OH263153   5.757   3.838  14.078  0.8092 -0.7881 -0.1658
13913TIP3    H163154   5.810   3.846  13.999 -1.2083  0.2423 -1.5222
13913TIP3    H263155   5.667   3.829  14.045 -0.3830  1.7828  1.9689
13914TIP3   OH263156   1.457   0.569   4.624 -0.0280  0.1305 -0.1179
13914TIP3    H163157   1.385   0.632   4.631 -0.4431 -0.3331 -0.2017
13914TIP3    H263158   1.484   0.554   4.714 -1.4214 -1.2781  0.1004
13915TIP3   OH263159   5.016   2.317  15.890  0.0431 -0.9471  0.1910
13915TIP3    H163160   4.977   2.350  15.971  1.1538 -1.1524  0.8319
13915TIP3    H263161   5.094   2.370  15.877 -0.8608  0.0741 -1.5771
13916TIP3   OH263162   5.228   1.882  14.663  0.0891  0.1422 -0.2125
13916TIP3    H163163   5.269   1.927  14.589  0.6913 -1.3292 -0.8173
13916TIP3    H263164   5.300   1.869  14.725 -0.3427  1.0633  0.5146
13917TIP3   OH263165   4.133   1.131   3.172  0.8103 -0.2032 -0.1528
13917TIP3    H163166   4.145   1.105   3.080 -2.5318 -0.9649 -0.4959
13917TIP3    H263167   4.039   1.143   3.182  1.1933  1.2837  2.8649
13918TIP3   OH263168   4.034   0.203  12.417 -0.1313 -0.1436 -0.0925
13918TIP3    H163169   4.115   0.216  12.467 -1.0479  0.5376  1.2705
13918TIP3    H263170   4.048   0.249  12.335  0.6704  0.4010  0.3448
13919TIP3   OH263171   3.497   0.779  14.930  0.3302 -0.2705  0.0705
13919TIP3    H163172   3.513   0.700  14.981 -1.7479 -0.1801  0.9722
13919TIP3    H263173   3.505   0.850  14.994 -1.2315 -0.0673  0.0687
13920TIP3   OH263174   6.752   3.735   0.369  0.1462 -0.0461 -0.8182
13920TIP3    H163175   6.703   3.773   0.296  2.6620  0.7613 -2.2163
13920TIP3    H263176   6.769   3.809   0.427  0.4060 -0.1206 -0.7961
13921TIP3   OH263177   2.969   5.201  16.911  0.6540 -0.6997 -0.0148
13921TIP3    H163178   3.052   5.214  16.957  0.1579 -0.4081  0.8163
13921TIP3    H263179   2.924   5.133  16.961  0.4486 -0.9695 -0.5507
13922TIP3   OH263180   6.608   0.219  12.645 -0.8934  0.6086  0.3589
13922TIP3    H163181   6.579   0.306  12.674 -0.8952  1.1353 -1.1065
13922TIP3    H263182   6.703   0.221  12.655 -0.9629  0.4758  1.0843
13923TIP3   OH263183   4.216   6.718  14.745  0.6310 -0.6362  0.1966
13923TIP3    H163184   4.301   6.682  14.719  2.0046  1.7445  1.0158
13923TIP3    H263185   4.233   6.812  14.758 -1.8414 -0.2920  1.6013
13924TIP3   OH263186   1.671   1.155  11.348 -0.3024 -0.7823  0.7066
13924TIP3    H163187   1.720   1.178  11.427  0.3587 -0.2717  0.1622
13924TIP3    H263188   1.725   1.090  11.305  0.9477  1.2062 -0.9065
13925TIP3   OH263189   6.123   6.091   1.452 -0.0477  0.2288  0.2315
13925TIP3    H163190   6.142   6.149   1.378  0.7180  0.4762  0.6173
13925TIP3    H263191   6.043   6.127   1.490 -0.9277 -0.3808 -0.9513
13926TIP3   OH263192   4.587   2.930  11.656  0.8197  0.2634  0.5050
13926TIP3    H163193   4.505   2.975  11.675 -0.1406 -1.3873  0.4640
13926TIP3    H263194   4.629   2.920  11.741 -0.4529 -1.4798  0.9774
13927TIP3   OH263195   3.185   5.255   6.247  0.3853  0.1675  0.7734
13927TIP3    H163196   3.142   5.319   6.191 -1.4460 -0.5357  1.3094
13927TIP3    H263197   3.163   5.170   6.208  0.3183 -0.2633  1.7071
13928TIP3   OH263198   6.664   0.462  14.313  0.0191  0.1869  0.2510
13928TIP3    H163199   6.627   0.430  14.395  2.3071 -2.3563  0.4314
13928TIP3    H263200   6.646   0.392  14.250  0.0834  1.1888 -0.9256
13929TIP3   OH263201   0.212   1.152   4.743  0.0663 -0.3846 -0.5864
13929TIP3    H163202   0.236   1.070   4.786 -0.3823  0.7185  1.9432
13929TIP3    H263203   0.206   1.216   4.814  1.0317  2.0286 -2.5227
13930TIP3   OH263204   1.197   3.155  12.346  0.5726 -0.2538 -0.0351
13930TIP3    H163205   1.222   3.081  12.402  0.5783  0.2475  0.6399
13930TIP3    H263206   1.111   3.181  12.378  0.7923  0.3532  0.0751
13931TIP3   OH263207   3.523   2.120   0.911  0.1676  0.5571 -0.6067
13931TIP3    H163208   3.433   2.093   0.931  0.0320  1.0072 -0.5990
13931TIP3    H263209   3.560   2.045   0.865 -0.5009  0.7034 -1.4143
13932TIP3   OH263210   2.165   1.337  15.313 -0.2550  0.0326 -0.3150
13932TIP3    H163211   2.078   1.356  15.277 -0.2207  0.0654 -0.3799
13932TIP3    H263212   2.171   1.241  15.309 -1.1852 -0.1640  1.7385
13933TIP3   OH263213   6.128   3.805   1.880 -0.0404  0.3410  0.1336
13933TIP3    H163214   6.070   3.729   1.884  1.5861 -0.9829 -0.4583
13933TIP3    H263215   6.158   3.818   1.970  1.4989 -1.2445 -0.0924
13934TIP3   OH263216   1.951   2.214  13.180  0.2435 -0.3902  0.5088
13934TIP3    H163217   1.869   2.166  13.191  0.7296 -1.0622  1.2781
13934TIP3    H263218   2.019   2.148  13.194  0.9273  0.0159 -0.7140
13935TIP3   OH263219   2.628   3.044   2.727 -0.0722 -0.3056 -0.4396
13935TIP3    H163220   2.655   3.135   2.736  0.1838 -0.5839  4.1228
13935TIP3    H263221   2.537   3.043   2.755 -0.7607 -1.2681 -2.4844
13936TIP3   OH263222   4.307   3.234   2.205 -0.6650 -0.4112  0.7251
13936TIP3    H163223   4.364   3.160   2.183  0.5135  1.0156 -1.2419
13936TIP3    H263224   4.365   3.310   2.203 -1.9993  0.6976  2.0444
13937TIP3   OH263225   2.569   0.689   3.295 -0.2482  0.3356  0.4634
13937TIP3    H163226   2.590   0.596   3.300 -1.1557  0.0982  0.0576
13937TIP3    H263227   2.652   0.734   3.314  0.5959 -0.5461 -0.9909
13938TIP3   OH263228   1.190   6.587   5.672 -0.4281 -0.3551  0.0885
13938TIP3    H163229   1.146   6.669   5.650 -1.4807  0.0987  3.3956
13938TIP3    H263230   1.262   6.613   5.729 -0.7685 -1.7080  1.1739
13939TIP3   OH263231   5.223   5.354  14.512  0.0954 -0.1008  0.2429
13939TIP3    H163232   5.212   5.316  14.425  1.3355  0.1093 -0.0279
13939TIP3    H263233   5.201   5.447  14.501 -0.6529 -0.2613  0.3703
13940TIP3   OH263234   1.077   5.087   3.301 -0.2237  0.0536  0.3359
13940TIP3    H163235   1.163   5.054   3.276 -0.0225  0.6589  0.2122
13940TIP3    H263236   1.020   5.010   3.302  0.1973 -0.2600 -0.1257
13941TIP3   OH263237   1.401   6.698  11.921  0.0570  0.2125 -0.2350
13941TIP3    H163238   1.379   6.660  12.006 -0.1266  1.7378  0.4318
13941TIP3    H263239   1.416   6.622  11.864 -0.1852 -0.8397  1.0489
13942TIP3   OH263240   2.139   5.084  10.573  0.0271  1.1176  0.3781
13942TIP3    H163241   2.226   5.076  10.535 -1.2150 -2.7185 -2.2829
13942TIP3    H263242   2.091   5.140  10.511 -0.8462 -1.6872 -1.6832
13943TIP3   OH263243   4.402   0.129  11.957 -0.6383  0.3836 -0.3534
13943TIP3    H163244   4.318   0.104  11.918 -0.6288 -0.3407  0.0897
13943TIP3    H263245   4.446   0.180  11.888 -0.8689 -0.3823 -1.0786
13944TIP3   OH263246   2.185   4.291  11.502 -0.5002  0.1411 -0.2587
13944TIP3    H163247   2.164   4.381  11.529 -0.1038  0.2402 -0.2714
13944TIP3    H263248   2.278   4.294  11.480 -0.6559 -0.1070 -0.9580
13945TIP3   OH263249   4.867   2.951  17.105 -0.0545  0.8090 -0.4692
13945TIP3    H163250   4.951   2.988  17.130  0.1000  0.8285 -1.0058
13945TIP3    H263251   4.803   3.005  17.151  0.2178  0.8957 -0.1882
13946TIP3   OH263252   2.891   2.206  15.603 -1.0728 -0.1910  0.1482
13946TIP3    H163253   2.954   2.140  15.630  1.1863  0.0335 -3.8001
13946TIP3    H263254   2.819   2.156  15.563 -1.4265 -0.3404  0.9613
13947TIP3   OH263255   3.225   0.013  13.788  0.4764  0.0405  0.3132
13947TIP3    H163256   3.270   0.084  13.833  1.0144  0.2774 -0.5726
13947TIP3    H263257   3.205  -0.051  13.856 -0.6496  1.3373  1.2678
13948TIP3   OH263258   0.871   1.726   5.199  0.1608 -0.2210 -0.2533
13948TIP3    H163259   0.831   1.808   5.170  0.2295 -0.3931 -0.8509
13948TIP3    H263260   0.945   1.752   5.253 -0.8226  0.1068  0.9894
13949TIP3   OH263261   0.375   3.260  12.935 -0.3065  0.3127 -0.6375
13949TIP3    H163262   0.369   3.349  12.901 -2.1727 -0.0650 -1.4353
13949TIP3    H263263   0.460   3.256  12.979 -0.6949  2.8635  0.4944
13950TIP3   OH263264   4.177   6.774   5.900 -0.6492 -0.4126  0.6458
13950TIP3    H163265   4.247   6.839   5.890  0.7374 -2.1286 -1.5495
13950TIP3    H263266   4.117   6.791   5.827  0.2854 -2.1795 -0.5926
13951TIP3   OH263267   4.703   1.344  15.154  0.2099 -0.1796  0.0160
13951TIP3    H163268   4.662   1.321  15.071  0.8411 -0.7775 -0.1370
13951TIP3    H263269   4.782   1.392  15.129  1.8279 -2.6284  0.1538
13952TIP3   OH263270   3.280   5.091  17.254  0.1755 -0.2962 -0.5782
13952TIP3    H163271   3.275   5.058  17.343 -1.7836  2.1115  0.3270
13952TIP3    H263272   3.230   5.029  17.202 -0.2155 -0.7727  0.3432
13953TIP3   OH263273   6.512   0.466  15.019  0.8164  0.3006  0.1255
13953TIP3    H163274   6.591   0.516  14.996  0.1590  0.5382 -1.8424
13953TIP3    H263275   6.442   0.532  15.021  0.2757 -0.2297 -0.5508
13954TIP3   OH263276   1.354   5.098   5.627  0.0038  0.0027 -0.4881
13954TIP3    H163277   1.269   5.094   5.670  0.9416 -0.3354  1.4214
13954TIP3    H263278   1.359   5.188   5.592 -0.8114  0.2751  0.0691
13955TIP3   OH263279   5.991   5.043  16.240 -0.0916 -0.2269  0.3229
13955TIP3    H163280   5.983   4.949  16.225 -2.3740 -0.3541  1.9193
13955TIP3    H263281   6.054   5.051  16.311 -1.7398 -0.7789  1.9028
13956TIP3   OH263282   3.168   2.490  15.281  0.1665  0.4473 -0.7105
13956TIP3    H163283   3.098   2.481  15.344 -0.6582 -0.7402 -1.7437
13956TIP3    H263284   3.236   2.430  15.312  0.8662  1.7533  0.4058
13957TIP3   OH263285   5.894   6.152  16.693 -0.2349  0.5394  0.2540
13957TIP3    H163286   5.851   6.158  16.608 -0.2532 -0.1906  0.2045
13957TIP3    H263287   5.937   6.237  16.704  0.1679  0.4707 -0.6923
13958TIP3   OH263288   1.548   3.778  14.454  0.3552  0.1225 -0.2157
13958TIP3    H163289   1.618   3.715  14.466  1.8732  1.2781 -2.4503
13958TIP3    H263290   1.475   3.742  14.504  1.7362 -2.4093  0.1303
13959TIP3   OH263291   3.609   0.370   2.002 -0.2149 -0.3255 -0.0382
13959TIP3    H163292   3.575   0.394   1.916  1.6666 -0.5731 -0.8882
13959TIP3    H263293   3.683   0.428   2.017 -0.0072 -0.8339  1.0585
13960TIP3   OH263294   1.764   3.872   3.881 -0.2688 -0.5671 -0.1982
13960TIP3    H163295   1.844   3.874   3.933 -1.1536 -0.4226  1.2086
13960TIP3    H263296   1.708   3.808   3.925 -0.6676 -1.1996 -1.5801
13961TIP3   OH263297   0.262   1.309  13.275  0.3332  0.1387 -0.6726
13961TIP3    H163298   0.186   1.348  13.232  0.7144  1.5821 -0.0811
13961TIP3    H263299   0.337   1.337  13.221  0.6363  0.4779 -0.0858
13962TIP3   OH263300   5.452   4.197   3.422 -0.4452 -0.5699 -0.1547
13962TIP3    H163301   5.375   4.209   3.367 -0.4082 -0.7900 -0.2586
13962TIP3    H263302   5.417   4.178   3.509 -0.5201 -1.2660 -0.3279
13963TIP3   OH263303   3.858   6.141  15.785 -0.0157 -0.7234 -0.1513
13963TIP3    H163304   3.947   6.164  15.757 -0.1844 -1.2761 -1.1835
13963TIP3    H263305   3.859   6.153  15.880  1.2335 -0.9768 -0.1181
13964TIP3   OH263306   6.141   4.241   1.424 -0.4674  0.0359 -0.0211
13964TIP3    H163307   6.129   4.248   1.519 -0.1653 -0.2437  0.0414
13964TIP3    H263308   6.232   4.212   1.414 -0.8225 -1.0156 -0.3535
13965TIP3   OH263309   1.646   6.137   2.050  0.5088  0.5781 -0.1400
13965TIP3    H163310   1.681   6.052   2.021  0.3245  0.5829 -0.3746
13965TIP3    H263311   1.671   6.142   2.142 -0.2900 -0.1561  0.1347
13966TIP3   OH263312   0.985   2.740  13.126  0.1465  0.3304  0.1671
13966TIP3    H163313   0.998   2.748  13.031  0.6917  1.6571  0.3263
13966TIP3    H263314   0.987   2.646  13.143 -0.2572  0.0602 -1.1766
13967TIP3   OH263315   1.844   4.026   3.238  0.1547  0.0877  0.2963
13967TIP3    H163316   1.864   4.106   3.190 -0.7200  0.7507  1.0007
13967TIP3    H263317   1.879   3.955   3.184 -2.7263  0.5779 -2.4908
13968TIP3   OH263318   5.223   3.754   2.075 -0.4062 -0.3908  0.4325
13968TIP3    H163319   5.208   3.848   2.073 -0.4194 -0.3983  0.0196
13968TIP3    H263320   5.246   3.731   1.985  1.3477 -0.5073  0.8705
13969TIP3   OH263321   1.675   1.224  14.087  0.1172  0.4462  0.9483
13969TIP3    H163322   1.755   1.193  14.044  0.5100  1.6711  0.7607
13969TIP3    H263323   1.612   1.153  14.075  1.2774 -0.7107  1.4241
13970TIP3   OH263324   5.168   5.442   3.732  0.4630  0.3720 -0.5143
13970TIP3    H163325   5.187   5.535   3.741  0.2142  0.4759 -1.0060
13970TIP3    H263326   5.137   5.414   3.818  0.5158  0.7474 -0.3751
13971TIP3   OH263327   6.390   6.208  13.713  0.3732  0.0224 -0.0346
13971TIP3    H163328   6.458   6.251  13.661  0.3453 -0.1818 -0.2428
13971TIP3    H263329   6.308   6.231  13.668  0.3240  0.0814  0.0858
13972TIP3   OH263330   3.047   5.472  12.685  0.7900  0.3508  0.0305
13972TIP3    H163331   2.976   5.461  12.622  0.9869  0.2663 -0.1791
13972TIP3    H263332   3.013   5.532  12.751  0.2648 -0.2571  0.3215
13973TIP3   OH263333   6.094   0.261   0.910 -1.0226 -0.3906 -0.1362
13973TIP3    H163334   6.082   0.186   0.852 -1.0730  0.3346 -1.0767
13973TIP3    H263335   6.159   0.316   0.866  0.3201 -0.6994  1.3676
13974TIP3   OH263336   5.561   3.975  14.894 -0.4255  0.2333  0.4904
13974TIP3    H163337   5.519   3.935  14.818 -0.7348  0.5912  0.4710
13974TIP3    H263338   5.499   4.042  14.923 -1.3623 -1.3607  2.4075
13975TIP3   OH263339   2.703   3.812  12.571 -0.3506 -0.3692 -0.0105
13975TIP3    H163340   2.616   3.776  12.583 -0.8602  1.3142  2.0196
13975TIP3    H263341   2.731   3.837  12.659  1.4788  0.6742 -0.8270
13976TIP3   OH263342   0.363   2.176   2.045 -0.0482 -0.9860  0.5664
13976TIP3    H163343   0.270   2.155   2.050  0.1447 -1.8485  0.7438
13976TIP3    H263344   0.377   2.200   1.954  0.0841 -3.6320 -0.2000
13977TIP3   OH263345   4.169   0.711   4.939 -1.0700  0.7759  0.3948
13977TIP3    H163346   4.129   0.648   4.878 -2.1166  1.9462 -0.1762
13977TIP3    H263347   4.242   0.663   4.977 -0.0532  0.1215 -2.1445
13978TIP3   OH263348   6.314   0.129   4.236  0.0996  0.9357  0.3622
13978TIP3    H163349   6.395   0.168   4.269 -0.0087  0.2905  1.4314
13978TIP3    H263350   6.330   0.034   4.242 -0.7749  0.8055  0.6978
13979TIP3   OH263351   0.336   4.146   1.804 -0.4807 -0.3880 -0.1564
13979TIP3    H163352   0.310   4.138   1.712  0.1299 -1.6875 -0.2404
13979TIP3    H263353   0.287   4.078   1.849 -1.0866  0.5112  0.5674
13980TIP3   OH263354   4.440   1.243  12.510  0.1659 -0.0811  0.4287
13980TIP3    H163355   4.370   1.235  12.446 -1.0365  0.7983  1.5787
13980TIP3    H263356   4.436   1.162  12.561  1.0102 -0.7043 -0.4762
13981TIP3   OH263357   6.679   0.283   3.619  0.1338 -0.3431 -0.2888
13981TIP3    H163358   6.703   0.343   3.690  1.5936 -2.2296  0.9201
13981TIP3    H263359   6.597   0.243   3.648 -0.1452  0.0993 -0.4652
13982TIP3   OH263360   1.750   3.339   5.952 -0.6553 -0.2284  0.5682
13982TIP3    H163361   1.770   3.409   6.013 -0.0319  0.3674 -0.2832
13982TIP3    H263362   1.753   3.259   6.004  1.8982  0.0361  0.9787
13983TIP3   OH263363   0.313   0.817  11.792 -0.1222  0.1722  0.3015
13983TIP3    H163364   0.372   0.819  11.717 -0.9279 -2.0088 -0.4701
13983TIP3    H263365   0.371   0.801  11.867  0.3983 -0.7712 -0.2829
13984TIP3   OH263366   2.654   0.325  14.156 -0.3950 -0.3826  0.3513
13984TIP3    H163367   2.727   0.339  14.216 -0.2824  0.6789 -0.0076
13984TIP3    H263368   2.676   0.245  14.108  0.4914 -0.1094  0.3021
13985TIP3   OH263369   0.351   2.939  15.895  0.6064 -0.0504  0.2008
13985TIP3    H163370   0.326   2.991  15.971  2.2410  1.8257 -0.4758
13985TIP3    H263371   0.369   3.003  15.827  0.6251 -1.6260 -1.3456
13986TIP3   OH263372   4.613   6.516   1.965 -0.2668  0.2115  0.0773
13986TIP3    H163373   4.707   6.529   1.971 -0.3718  0.8848  0.5139
13986TIP3    H263374   4.576   6.586   2.020 -1.0019 -0.3433  0.3157
13987TIP3   OH263375   1.001   0.073   3.996 -0.7311  0.1734 -0.5461
13987TIP3    H163376   0.983  -0.018   4.016  1.4193 -0.0672  0.6274
13987TIP3    H263377   1.058   0.070   3.919 -1.7525  0.6241 -1.3373
13988TIP3   OH263378   6.652   0.292  14.559  0.0325 -0.8629  0.5871
13988TIP3    H163379   6.625   0.304  14.650  0.3416 -1.5031  0.7684
13988TIP3    H263380   6.745   0.316  14.558 -0.6651  2.3058 -0.2287
13989TIP3   OH263381   6.449   4.564  14.002  0.4966 -0.0110 -0.0094
13989TIP3    H163382   6.534   4.588  13.964  0.8655 -2.8672 -1.2159
13989TIP3    H263383   6.452   4.469  14.010 -1.9936 -0.0527  1.4890
13990TIP3   OH263384   2.247   1.943   4.930 -0.2325 -0.0014 -0.0467
13990TIP3    H163385   2.296   1.931   5.012  1.2562 -1.2824 -1.0531
13990TIP3    H263386   2.244   1.855   4.892 -0.8186  0.5865 -1.3996
13991TIP3   OH263387   4.083   0.484  14.483  0.2070  0.4433  0.2081
13991TIP3    H163388   4.129   0.416  14.433  0.7739  1.5664 -0.8403
13991TIP3    H263389   4.125   0.483  14.568  0.6741 -0.0492 -0.0219
13992TIP3   OH263390   0.437   0.996  10.872  0.9431  0.1528 -0.0623
13992TIP3    H163391   0.396   0.923  10.916 -0.5949  1.0321  0.0394
13992TIP3    H263392   0.371   1.027  10.809  2.4322 -0.0101 -1.7914
13993TIP3   OH263393   5.897   2.264  13.009  0.1265 -0.8916 -0.6611
13993TIP3    H163394   5.972   2.256  12.951  0.9289 -0.9712  0.3682
13993TIP3    H263395   5.902   2.354  13.042 -0.2926 -0.8625 -0.6713
13994TIP3   OH263396   0.151   6.467  12.040 -0.0908  0.2307 -0.4068
13994TIP3    H163397   0.210   6.416  12.095  0.1881 -0.2820 -1.1772
13994TIP3    H263398   0.081   6.494  12.100 -0.1591 -0.9082  0.0579
13995TIP3   OH263399   2.019   4.780  12.823 -0.0248  0.6071  0.4207
13995TIP3    H163400   2.063   4.703  12.785 -1.6957  0.0107 -0.3830
13995TIP3    H263401   1.977   4.748  12.902  0.7981  1.1487  1.1068
13996TIP3   OH263402   4.579   1.762  11.924 -0.1533  0.8371 -0.1504
13996TIP3    H163403   4.634   1.716  11.861 -0.3102 -2.5298  1.9204
13996TIP3    H263404   4.634   1.770  12.002 -1.4544  0.5997  0.8277
13997TIP3   OH263405   6.034   3.383  12.568 -0.4582 -0.1230 -0.9755
13997TIP3    H163406   5.944   3.402  12.595  0.0894 -0.5084  1.3727
13997TIP3    H263407   6.082   3.464  12.587  0.0761 -0.6296 -0.0839
13998TIP3   OH263408   1.952   2.447  10.522  0.0715 -0.3960 -0.1164
13998TIP3    H163409   1.899   2.525  10.540 -0.0610 -0.0964 -1.6762
13998TIP3    H263410   2.043   2.478  10.532  0.0048 -0.4265  0.6752
13999TIP3   OH263411   5.047   2.452  13.091  0.0060  0.1151 -0.3398
13999TIP3    H163412   5.064   2.456  13.185  2.4666 -0.4241 -0.7130
13999TIP3    H263413   4.973   2.391  13.083  0.8881 -1.2260  1.1369
14000TIP3   OH263414   1.435   3.565  13.497  0.4110 -0.0750 -0.2419
14000TIP3    H163415   1.341   3.550  13.495 -0.3183  3.2304  1.8793
14000TIP3    H263416   1.464   3.527  13.581  0.7539 -0.1092 -0.3739
14001TIP3   OH263417   3.711   2.863   5.290 -0.2266 -0.3957 -0.2321
14001TIP3    H163418   3.757   2.851   5.373  0.4181  0.7977 -0.3779
14001TIP3    H263419   3.622   2.889   5.315  0.5516  2.1797  0.1901
14002TIP3   OH263420   1.801   3.264   1.340 -0.3257  0.5933 -0.0970
14002TIP3    H163421   1.837   3.276   1.428 -0.7307  0.6647  0.0628
14002TIP3    H263422   1.731   3.329   1.334  1.1738  2.1865 -1.3072
14003TIP3   OH263423   3.212   5.145  16.544 -0.2220  0.1673  0.1550
14003TIP3    H163424   3.144   5.078  16.538  0.8504 -1.0062  0.4987
14003TIP3    H263425   3.181   5.217  16.489 -0.9392 -1.0355 -1.0614
14004TIP3   OH263426   2.403   1.647   2.597  0.3078  0.1153 -0.2647
14004TIP3    H163427   2.468   1.717   2.608  1.6667 -0.9391 -1.4041
14004TIP3    H263428   2.446   1.569   2.631 -0.8173 -0.4012  0.0169
14005TIP3   OH263429   0.067   2.023  14.747  0.2688  0.3596 -0.1238
14005TIP3    H163430   0.141   2.069  14.787  1.0738 -1.0986  0.1193
14005TIP3    H263431   0.073   2.043  14.654  1.5890 -0.5424 -0.2537
14006TIP3   OH263432   2.220   2.676  15.356  0.4392  0.0674 -0.0008
14006TIP3    H163433   2.197   2.671  15.263  1.1903  1.0639 -0.2560
14006TIP3    H263434   2.140   2.703  15.400  0.0440 -0.5459 -0.3279
14007TIP3   OH263435   6.203   0.764   2.520 -0.1143  0.2954 -0.2585
14007TIP3    H163436   6.279   0.717   2.553 -1.8711 -1.8204  0.9936
14007TIP3    H263437   6.193   0.839   2.579  0.3660  0.0087  0.1917
14008TIP3   OH263438   6.585   6.507  14.176 -0.0243 -0.5431  0.3298
14008TIP3    H163439   6.515   6.442  14.179  1.7011 -2.5219  0.0675
14008TIP3    H263440   6.612   6.508  14.084  0.3952  0.0992  0.4531
14009TIP3   OH263441   2.590   3.047  13.308  0.0783  0.1779  0.5283
14009TIP3    H163442   2.629   3.099  13.237 -0.1108 -1.0615 -0.5106
14009TIP3    H263443   2.524   3.105  13.346 -1.3629  0.1107 -1.7456
14010TIP3   OH263444   2.976   6.420  12.045 -0.1846 -0.1460  0.1974
14010TIP3    H163445   2.950   6.328  12.039  1.8528 -0.6900 -1.7115
14010TIP3    H263446   3.039   6.423  12.118  0.1133 -0.3930 -0.0453
14011TIP3   OH263447   0.041   2.869  14.985 -0.5173  0.0168  0.0568
14011TIP3    H163448   0.036   2.962  15.009 -1.3711  0.0969 -0.3968
14011TIP3    H263449   0.085   2.828  15.059  2.0309  1.1178 -0.7159
14012TIP3   OH263450   5.197   1.828  10.959 -0.3998  0.7557  0.2954
14012TIP3    H163451   5.218   1.800  10.870 -1.3782 -0.6222  0.4771
14012TIP3    H263452   5.177   1.921  10.951  0.2396  0.8108 -0.7950
14013TIP3   OH263453   2.098   3.713   3.819 -0.6140  0.1834 -0.0374
14013TIP3    H163454   2.091   3.672   3.905 -0.4404 -1.9475 -0.9771
14013TIP3    H263455   2.190   3.704   3.796 -0.6990  0.5720 -0.5457
14014TIP3   OH263456   3.816   1.382  11.680 -0.0162 -0.4541  0.2157
14014TIP3    H163457   3.883   1.373  11.612  1.1291 -1.3632  1.4305
14014TIP3    H263458   3.737   1.408  11.631  1.5443  2.3320 -1.0751
14015TIP3   OH263459   2.728   2.630  15.979 -0.1247 -0.6542  0.4034
14015TIP3    H163460   2.772   2.645  16.062  0.8899 -0.6142 -0.1267
14015TIP3    H263461   2.712   2.717  15.944  2.1240 -0.6480 -0.7927
14016TIP3   OH263462   5.983   3.875   2.635 -0.1892  0.0809 -0.4546
14016TIP3    H163463   5.954   3.785   2.619  0.1474 -0.1219  0.0301
14016TIP3    H263464   6.065   3.865   2.684 -0.1437  0.6530 -0.4064
14017TIP3   OH263465   1.087   5.956   5.235 -0.2901 -0.0106  0.4701
14017TIP3    H163466   1.135   5.971   5.153  0.2355 -1.3625  0.5026
14017TIP3    H263467   1.035   5.878   5.217 -0.3966 -0.1391  1.3327
14018TIP3   OH263468   0.998   0.765  12.666 -0.4122  0.3081 -0.0367
14018TIP3    H163469   0.994   0.860  12.674  0.0511  0.4651 -1.3929
14018TIP3    H263470   1.036   0.736  12.748 -2.0050  1.1487  1.0448
14019TIP3   OH263471   2.637   3.012  16.572  0.3932 -0.2914  0.4525
14019TIP3    H163472   2.625   3.095  16.526 -1.3355 -0.2088  0.9788
14019TIP3    H263473   2.667   2.952  16.505  0.7425  0.5309 -0.1466
14020TIP3   OH263474   0.694   6.114   4.733 -0.4994 -0.4870  0.3032
14020TIP3    H163475   0.772   6.122   4.788  0.1184  3.7253 -0.8137
14020TIP3    H263476   0.718   6.050   4.666  0.1860 -2.6915  2.5214
14021TIP3   OH263477   0.995   0.324   3.429 -0.4578  0.8067 -0.5149
14021TIP3    H163478   0.951   0.250   3.471  0.2892  0.9788  0.5967
14021TIP3    H263479   1.031   0.287   3.348  0.0328 -0.1036  0.1007
14022TIP3   OH263480   3.287   1.176  11.024  0.2329  0.4454 -0.3657
14022TIP3    H163481   3.275   1.165  10.929 -0.8015  0.1307 -0.2198
14022TIP3    H263482   3.260   1.091  11.061  1.9753  0.0763  0.1288
14023TIP3   OH263483   4.166   3.091  12.489 -0.1100 -0.2918 -0.0671
14023TIP3    H163484   4.093   3.085  12.551 -0.3395  0.4119 -0.2561
14023TIP3    H263485   4.229   3.026  12.520 -0.5208 -0.4314  0.4994
14024TIP3   OH263486   3.280   0.483   2.125 -0.1575  0.1463  0.0069
14024TIP3    H163487   3.297   0.469   2.032  1.5945 -0.3563  0.3621
14024TIP3    H263488   3.335   0.419   2.169 -1.2710  0.0973  1.3994
14025TIP3   OH263489   3.317   5.332   5.609  0.0325  0.4190  0.1460
14025TIP3    H163490   3.291   5.250   5.567  0.8012 -0.2210  0.8876
14025TIP3    H263491   3.330   5.309   5.701  2.6491  0.7795 -0.0426
14026TIP3   OH263492   5.273   5.788  15.618  0.0256 -0.3975 -0.1279
14026TIP3    H163493   5.202   5.800  15.680  1.6597  1.1123  1.5812
14026TIP3    H263494   5.265   5.863  15.558 -0.1123 -0.4882 -0.2216
14027TIP3   OH263495   0.384   4.587  16.691  0.8928  0.0503 -0.4727
14027TIP3    H163496   0.356   4.678  16.687  1.0188  0.3282  2.4416
14027TIP3    H263497   0.303   4.536  16.689  0.5200  0.4884  1.4849
14028TIP3   OH263498   3.728   6.382  12.859  0.2585  0.0457  0.1480
14028TIP3    H163499   3.757   6.467  12.895 -0.3960 -0.1293  1.1358
14028TIP3    H263500   3.809   6.339  12.831  0.7255  0.5018  0.7595
14029TIP3   OH263501   1.749   5.072  17.150 -0.4696 -0.4391 -0.4909
14029TIP3    H163502   1.827   5.121  17.128  0.0363 -1.0494 -0.1082
14029TIP3    H263503   1.677   5.134  17.138  0.2484  0.8155  1.2508
14030TIP3   OH263504   1.016   5.062  14.735  0.1059  0.1573 -0.5610
14030TIP3    H163505   0.920   5.053  14.729  0.1243 -0.7075  0.0698
14030TIP3    H263506   1.040   5.000  14.804  0.8055  2.5047  1.4312
14031TIP3   OH263507   5.110   4.118   5.333 -0.2925  0.1033 -0.0606
14031TIP3    H163508   5.035   4.067   5.365 -0.4050 -1.0802 -2.0602
14031TIP3    H263509   5.176   4.053   5.311  0.6098  1.0168 -0.1414
14032TIP3   OH263510   5.001   1.589   5.423  0.2911  0.0056  0.2041
14032TIP3    H163511   4.979   1.507   5.467 -0.9352 -0.3660 -0.9971
14032TIP3    H263512   5.062   1.563   5.354 -0.6099 -0.0405 -0.6016
14033TIP3   OH263513   0.106   0.320  12.258 -0.2349  0.0066  0.3774
14033TIP3    H163514   0.088   0.353  12.347  0.1286  0.6867  0.2120
14033TIP3    H263515   0.123   0.399  12.207 -3.1363 -0.1184 -0.9659
14034TIP3   OH263516   1.488   0.961  12.345 -0.2119  0.2828  0.4548
14034TIP3    H163517   1.464   0.909  12.269 -1.1203  0.4619  0.6145
14034TIP3    H263518   1.466   1.051  12.321  2.1932  0.7735 -0.1857
14035TIP3   OH263519   1.057   1.727   0.352  0.0739 -0.3020  0.2769
14035TIP3    H163520   1.003   1.767   0.283  0.4963  0.0176  0.1245
14035TIP3    H263521   1.023   1.638   0.361  0.2930 -0.4852 -0.6483
14036TIP3   OH263522   5.340   6.021   2.980  0.3411  0.3080 -0.2254
14036TIP3    H163523   5.310   5.970   2.905  0.0362  1.4208 -0.8971
14036TIP3    H263524   5.434   6.009   2.982  0.1924 -0.9198  0.1366
14037TIP3   OH263525   5.135   5.392  15.333  0.1875  0.1789  0.1851
14037TIP3    H163526   5.040   5.396  15.345 -0.0911  0.5301 -1.8979
14037TIP3    H263527   5.170   5.407  15.421 -1.6809 -1.7820  1.3666
14038TIP3   OH263528   3.027   5.702   6.304  0.4760 -0.3862 -0.1938
14038TIP3    H163529   3.041   5.624   6.250  0.0225  0.6167 -1.8111
14038TIP3    H263530   2.932   5.709   6.311  0.5114  0.0758 -0.1462
14039TIP3   OH263531   4.470   5.950  15.893  0.5700  0.0287 -0.2336
14039TIP3    H163532   4.483   5.935  15.986  0.0584 -2.4498 -0.4813
14039TIP3    H263533   4.450   5.863  15.857 -0.7412  1.1243 -2.4099
14040TIP3   OH263534   4.285   3.951   6.295 -0.3005  0.0329 -0.4635
14040TIP3    H163535   4.221   3.891   6.259 -1.6596 -0.7858  2.9638
14040TIP3    H263536   4.332   3.900   6.361  2.5005  1.2098 -1.4013
14041TIP3   OH263537   4.543   5.640  17.023 -0.3720 -0.5945  0.0570
14041TIP3    H163538   4.487   5.579  16.974 -1.4284  0.3658  0.0289
14041TIP3    H263539   4.533   5.723  16.977  3.7015 -1.0060 -2.0138
14042TIP3   OH263540   1.193   3.999   1.383 -0.4232  0.0107  0.4222
14042TIP3    H163541   1.274   4.047   1.371 -0.3514 -0.1539  0.2494
14042TIP3    H263542   1.161   4.027   1.470 -1.0223  1.3100 -0.1863
14043TIP3   OH263543   2.986   4.588   1.036 -0.0188 -0.0789 -0.1953
14043TIP3    H163544   3.006   4.681   1.047  0.0826 -0.0463 -0.6064
14043TIP3    H263545   2.891   4.582   1.043 -0.0634  0.1208 -0.5919
14044TIP3   OH263546   4.604   1.179   3.594  0.5808  0.1776 -0.0307
14044TIP3    H163547   4.544   1.114   3.557  0.4500  0.5580 -0.4972
14044TIP3    H263548   4.583   1.179   3.688 -0.4529  0.6023 -0.2450
14045TIP3   OH263549   1.824   0.740  12.561  0.6851  0.2698 -0.0412
14045TIP3    H163550   1.853   0.828  12.586 -0.1657  0.5472  0.0181
14045TIP3    H263551   1.786   0.704  12.641 -0.1366  0.3492 -0.3860
14046TIP3   OH263552   3.115   5.782   1.989  0.1859  0.4170  0.2192
14046TIP3    H163553   3.171   5.833   2.047  0.1512  0.3380  0.3216
14046TIP3    H263554   3.114   5.694   2.027  0.1100  0.3811  0.1365
14047TIP3   OH263555   5.994   5.389   1.587  0.1458 -0.6916  0.0220
14047TIP3    H163556   5.993   5.356   1.497 -1.4830  1.0574 -0.6803
14047TIP3    H263557   5.924   5.454   1.589 -1.4875 -2.3324  3.2192
14048TIP3   OH263558   2.730   1.268  12.693  0.0285  0.1129 -0.6167
14048TIP3    H163559   2.824   1.286  12.683  0.1983  0.6470  1.5219
14048TIP3    H263560   2.693   1.289  12.607  1.4923  2.5271 -0.7564
14049TIP3   OH263561   6.047   3.623   5.651 -0.0940  0.7570 -0.2399
14049TIP3    H163562   6.128   3.672   5.664 -0.3404  1.0471  0.1876
14049TIP3    H263563   6.016   3.651   5.565  0.0994  0.8720 -0.2731
14050TIP3   OH263564   4.654   3.469   3.599  1.0065  0.3343 -0.3319
14050TIP3    H163565   4.573   3.512   3.572  1.0896 -0.6301 -2.2652
14050TIP3    H263566   4.722   3.534   3.582  0.9303  0.1367 -1.4914
14051TIP3   OH263567   6.113   1.132  10.881  0.3196  0.2987  0.0368
14051TIP3    H163568   6.104   1.041  10.852  2.2357  0.8329 -2.5623
14051TIP3    H263569   6.172   1.127  10.957  2.2355 -0.5278 -1.4147
14052TIP3   OH263570   4.508   6.528   1.107  0.3969  0.0870  0.4636
14052TIP3    H163571   4.424   6.533   1.062  0.6162  1.6182  0.1842
14052TIP3    H263572   4.539   6.439   1.090 -1.2232 -0.5495  0.7028
14053TIP3   OH263573   4.660   3.839   4.771 -0.4598 -0.3979 -0.8156
14053TIP3    H163574   4.684   3.914   4.826  0.9764  0.4614 -2.5255
14053TIP3    H263575   4.590   3.796   4.820  2.1844 -1.0335  2.8042
14054TIP3   OH263576   6.034   6.748  16.739 -0.6187 -0.0319  0.5117
14054TIP3    H163577   5.986   6.672  16.706  1.1498 -1.4381  0.9948
14054TIP3    H263578   6.083   6.780  16.664  3.1449 -3.0280  1.4006
14055TIP3   OH263579   1.251   1.847  17.011 -0.1025  0.0071  0.1361
14055TIP3    H163580   1.202   1.769  16.984 -1.6559  0.3018  1.9447
14055TIP3    H263581   1.213   1.919  16.960  0.1545 -0.1253 -0.2527
14056TIP3   OH263582   4.384   3.315  16.702  0.8349 -0.0572 -0.0186
14056TIP3    H163583   4.406   3.397  16.657  2.3839 -0.0876  0.6034
14056TIP3    H263584   4.377   3.250  16.632  0.6537  0.4051 -0.4305
14057TIP3   OH263585   1.949   2.207  12.419 -0.1045  0.1936  0.0433
14057TIP3    H163586   1.938   2.113  12.400 -1.0611  0.7884 -2.9386
14057TIP3    H263587   1.877   2.227  12.479  0.5417 -1.0644  1.3185
14058TIP3   OH263588   6.270   3.409  16.724  0.5530  0.7701  0.4252
14058TIP3    H163589   6.318   3.334  16.758  3.4545  1.9948 -0.5840
14058TIP3    H263590   6.304   3.484  16.773  0.6672  1.8518 -1.2076
14059TIP3   OH263591   6.035   4.039   6.265  0.2856  0.3825  0.1886
14059TIP3    H163592   6.119   3.998   6.248  0.6430  0.7295  1.0696
14059TIP3    H263593   6.055   4.132   6.277 -0.2522  0.5038  0.1995
14060TIP3   OH263594   5.988   3.312   3.422  0.4302  0.0399  0.3049
14060TIP3    H163595   5.956   3.288   3.335  0.4072  0.9093  0.0715
14060TIP3    H263596   6.077   3.277   3.425  0.1756 -0.6368  0.2122
14061TIP3   OH263597   1.646   0.398  13.712 -0.5409 -0.1605 -0.3124
14061TIP3    H163598   1.637   0.433  13.800 -0.1939 -0.8060 -0.0196
14061TIP3    H263599   1.574   0.335  13.704 -0.5354 -0.1470 -0.4720
14062TIP3   OH263600   2.256   5.228   5.100  0.0785  0.0955  0.4019
14062TIP3    H163601   2.295   5.214   5.014 -0.4074 -1.0968  0.3449
14062TIP3    H263602   2.292   5.157   5.154 -2.1554 -1.2309  0.2731
14063TIP3   OH263603   6.282   6.144  16.606 -0.4584  0.5995  0.0006
14063TIP3    H163604   6.338   6.134  16.684 -0.0448 -0.2436 -0.3947
14063TIP3    H263605   6.221   6.070  16.611  0.0440  0.1197 -0.8570
14064TIP3   OH263606   1.533   3.794  11.531  0.0557 -0.0293  0.0762
14064TIP3    H163607   1.520   3.761  11.620  3.1047  0.5815  0.8558
14064TIP3    H263608   1.521   3.717  11.475 -2.2948 -0.3356  0.8927
14065TIP3   OH263609   6.122   0.133  10.630  0.5241  0.3039 -0.3295
14065TIP3    H163610   6.113   0.057  10.572  0.9171 -0.4814  0.6107
14065TIP3    H263611   6.058   0.117  10.699  0.9389  0.5936  0.1263
14066TIP3   OH263612   1.670   5.186  10.347  0.2488 -0.7833  0.3134
14066TIP3    H163613   1.654   5.092  10.340 -0.5492 -0.6998  0.9513
14066TIP3    H263614   1.602   5.218  10.406  1.5056 -0.0765  1.4576
14067TIP3   OH263615   3.833   6.770   0.771 -0.0836  0.0449 -0.6249
14067TIP3    H163616   3.879   6.844   0.732 -0.2268  0.1094 -0.6698
14067TIP3    H263617   3.740   6.788   0.756 -0.1831  0.4578  0.4330
14068TIP3   OH263618   3.438   5.484   3.349 -0.1196 -0.2144 -0.4502
14068TIP3    H163619   3.468   5.432   3.424 -0.0511 -1.3424 -1.2463
14068TIP3    H263620   3.499   5.464   3.279 -1.6562 -1.1785 -1.5724
14069TIP3   OH263621   6.293   0.714   1.341 -0.4031 -0.3851 -0.1123
14069TIP3    H163622   6.383   0.717   1.374 -1.1658 -0.6210  2.2262
14069TIP3    H263623   6.254   0.796   1.370 -0.5581  0.4612 -2.5269
14070TIP3   OH263624   2.178   3.936  15.185  0.6606  0.2143  0.4760
14070TIP3    H163625   2.166   4.023  15.223 -1.3856  0.0602  0.3098
14070TIP3    H263626   2.157   3.876  15.257 -1.2157 -0.0856 -0.2660
14071TIP3   OH263627   0.730   4.513   5.845  0.2640  0.2281 -0.8591
14071TIP3    H163628   0.705   4.596   5.887  0.6444 -0.4833  0.8782
14071TIP3    H263629   0.676   4.447   5.890  1.9945 -0.7850 -0.1881
14072TIP3   OH263630   1.643   3.071   4.935 -0.3421 -0.1882  0.1953
14072TIP3    H163631   1.640   3.164   4.954  1.4145  0.0171 -0.3516
14072TIP3    H263632   1.617   3.028   5.017 -1.2770  0.7552  0.4087
14073TIP3   OH263633   4.736   6.319  11.763 -1.2965  0.4781 -0.2638
14073TIP3    H163634   4.695   6.365  11.690 -2.4722 -1.5389 -0.9419
14073TIP3    H263635   4.665   6.269  11.804  0.0224 -1.4210 -0.1385
14074TIP3   OH263636   4.956   1.277  15.450  0.5828  0.6696 -0.1124
14074TIP3    H163637   4.909   1.200  15.420  1.6472 -0.7442  1.5900
14074TIP3    H263638   5.040   1.273  15.405  0.9651  0.3257  0.6121
14075TIP3   OH263639   3.361   1.807  16.147  0.3717  0.4336  0.1325
14075TIP3    H163640   3.293   1.739  16.152 -0.1214  0.7051 -1.8038
14075TIP3    H263641   3.419   1.777  16.078  1.6792  0.7109  1.0849
14076TIP3   OH263642   0.301   1.735  12.359 -0.2559  0.1198  1.0191
14076TIP3    H163643   0.358   1.723  12.282 -0.7762  2.4067  0.2068
14076TIP3    H263644   0.356   1.783  12.422 -1.2118  2.4651  0.1749
14077TIP3   OH263645   4.565   2.662  12.663 -0.5511 -0.3219  0.1655
14077TIP3    H163646   4.527   2.705  12.740  0.3785  0.9675 -0.0594
14077TIP3    H263647   4.537   2.571  12.670  0.0544 -0.4048  2.4228
14078TIP3   OH263648   0.108   3.253   5.596  0.2897 -0.5721 -0.5507
14078TIP3    H163649   0.015   3.256   5.575  0.4683  0.9250 -1.2780
14078TIP3    H263650   0.122   3.326   5.656  1.0142 -0.6884 -0.5633
14079TIP3   OH263651   1.027   6.160   4.189  0.7881 -0.1643  0.5784
14079TIP3    H163652   0.988   6.133   4.273  0.6563 -1.7936  0.0151
14079TIP3    H263653   0.982   6.107   4.124  1.0216  0.9608 -0.5266
14080TIP3   OH263654   4.863   1.259   2.781  0.1592 -0.0609  0.7014
14080TIP3    H163655   4.767   1.265   2.774  0.0694 -2.0884 -0.4300
14080TIP3    H263656   4.893   1.274   2.691  0.8374 -0.5132  0.8564
14081TIP3   OH263657   0.916   4.311   3.353  0.9985 -0.0825  0.1967
14081TIP3    H163658   0.832   4.356   3.343  1.1778  0.3529  0.6355
14081TIP3    H263659   0.918   4.249   3.281 -0.4517 -1.3007  1.1613
14082TIP3   OH263660   4.651   5.834  15.178  0.0180  0.2012 -0.6656
14082TIP3    H163661   4.605   5.916  15.197  0.5841  0.4274 -0.2502
14082TIP3    H263662   4.590   5.765  15.206 -1.0701  0.4298 -2.3682
14083TIP3   OH263663   5.905   5.555  12.719 -1.4851 -0.4006 -0.3720
14083TIP3    H163664   5.897   5.533  12.812 -1.2975 -0.3090 -0.3342
14083TIP3    H263665   5.900   5.650  12.716  0.6393 -0.2478 -0.2319
14084TIP3   OH263666   1.908   2.976   1.222  0.4943 -0.2217 -0.2792
14084TIP3    H163667   1.991   3.023   1.217  0.5648 -0.4620 -2.1914
14084TIP3    H263668   1.847   3.040   1.259  1.1951  0.4699 -0.2792
14085TIP3   OH263669   2.683   0.851  13.158 -0.2369  0.2436  0.4239
14085TIP3    H163670   2.715   0.826  13.071 -2.8143 -0.1055 -0.4948
14085TIP3    H263671   2.634   0.775  13.188 -0.1259  0.6999  1.8094
14086TIP3   OH263672   6.541   4.705   3.572 -0.1567 -0.3503  0.5821
14086TIP3    H163673   6.589   4.760   3.633 -0.3315 -0.2841  0.6600
14086TIP3    H263674   6.524   4.624   3.620  1.0564 -0.9134  0.1048
14087TIP3   OH263675   4.234   5.595  12.183  0.2243  0.0937  0.3408
14087TIP3    H163676   4.169   5.664  12.198 -1.9036 -2.1661  2.4655
14087TIP3    H263677   4.239   5.588  12.087 -3.5476 -0.2498  0.0027
14088TIP3   OH263678   1.105   6.360   1.539  0.1685  0.1141 -0.0153
14088TIP3    H163679   1.166   6.327   1.473  0.7614 -0.3669  0.7508
14088TIP3    H263680   1.025   6.308   1.525  0.6905 -0.8389  0.3914
14089TIP3   OH263681   4.903   5.869   2.919  0.2316 -0.3940 -0.4553
14089TIP3    H163682   4.870   5.796   2.866  0.7324 -2.2856  1.6700
14089TIP3    H263683   4.891   5.839   3.009  3.3011  0.8488  0.4768
14090TIP3   OH263684   1.383   6.404   1.997 -0.2315 -0.4286  0.1199
14090TIP3    H163685   1.424   6.329   2.040 -0.7896 -0.6187  0.3256
14090TIP3    H263686   1.441   6.478   2.018  0.0247 -0.6996  0.3823
14091TIP3   OH263687   6.540   0.746   1.456 -0.0238  0.2464 -0.2298
14091TIP3    H163688   6.619   0.701   1.426 -0.9842 -1.4923 -0.3085
14091TIP3    H263689   6.571   0.814   1.515  1.4978 -1.0406  0.5350
14092TIP3   OH263690   3.695   1.435  13.864 -0.3084 -0.4167  0.4604
14092TIP3    H163691   3.686   1.400  13.953  0.6349 -3.5870 -0.5295
14092TIP3    H263692   3.606   1.431  13.828 -0.4334 -0.5840  0.7832
14093TIP3   OH263693   3.446   2.260   2.471  0.5864  0.6189  0.5079
14093TIP3    H163694   3.474   2.172   2.448  0.9018  0.5681  1.0637
14093TIP3    H263695   3.461   2.266   2.566  0.3103  1.1720  0.5211
14094TIP3   OH263696   5.147   2.777   3.103  0.1158  0.7387  0.4564
14094TIP3    H163697   5.218   2.797   3.042 -0.1870  1.1083  0.2256
14094TIP3    H263698   5.138   2.856   3.156  0.1559  0.5387  0.7690
14095TIP3   OH263699   5.756   3.218  13.275  0.4972 -0.1279 -0.2855
14095TIP3    H163700   5.698   3.292  13.288  0.2095 -0.7536  2.9185
14095TIP3    H263701   5.698   3.142  13.270  0.9123 -0.4336 -0.5701
14096TIP3   OH263702   1.220   2.598   5.970  0.6688 -0.3238  0.5610
14096TIP3    H163703   1.256   2.537   6.035  0.0846  1.3030  2.5284
14096TIP3    H263704   1.125   2.590   5.980  0.5684 -0.0787 -0.1483
14097TIP3   OH263705   5.872   5.269  13.446  0.3090  0.1610  0.6201
14097TIP3    H163706   5.906   5.351  13.410 -1.0696  0.3937 -0.2269
14097TIP3    H263707   5.878   5.280  13.541 -0.0942  1.3612  0.5227
14098TIP3   OH263708   6.739   4.499  12.827 -0.6331  0.3567  0.4936
14098TIP3    H163709   6.797   4.560  12.873  0.2247 -0.5312  0.6340
14098TIP3    H263710   6.782   4.414  12.837 -1.0809 -0.0514 -0.8814
14099TIP3   OH263711   2.894   0.662  17.189 -0.0473  0.2958 -0.3689
14099TIP3    H163712   2.856   0.591  17.240 -0.2633 -0.7900 -1.9726
14099TIP3    H263713   2.978   0.680  17.232 -0.2213 -0.5646  0.3542
14100TIP3   OH263714   0.135   4.997   2.242 -0.4105  0.3878  0.5001
14100TIP3    H163715   0.174   4.985   2.328  0.4646 -0.3509  0.0188
14100TIP3    H263716   0.074   4.924   2.232 -0.6568  0.5825  0.5679
14101TIP3   OH263717   2.609   4.662   1.508 -0.4551  0.6231  0.6151
14101TIP3    H163718   2.652   4.746   1.522 -2.9717  1.8450  1.4826
14101TIP3    H263719   2.526   4.683   1.465  0.7026 -1.8642 -3.4451
14102TIP3   OH263720   3.175   5.385  12.367 -0.4544 -0.0967  0.0092
14102TIP3    H163721   3.083   5.388  12.339 -0.7327  1.0073  0.9268
14102TIP3    H263722   3.207   5.475  12.355 -0.0010 -0.0669  1.2314
14103TIP3   OH263723   6.271   3.374   3.852 -0.0916 -0.5431 -0.7777
14103TIP3    H163724   6.352   3.351   3.899  0.2329  1.2652 -0.3650
14103TIP3    H263725   6.224   3.291   3.844  1.3771 -1.4856 -0.2062
14104TIP3   OH263726   5.950   1.812   4.585 -0.2474 -0.0025 -0.4699
14104TIP3    H163727   5.962   1.906   4.597 -2.7120  0.3194 -0.1449
14104TIP3    H263728   5.996   1.792   4.503  0.1233  1.5046 -0.6530
14105TIP3   OH263729   2.011   0.254   5.467 -0.6394 -0.6765  0.0644
14105TIP3    H163730   2.093   0.244   5.516 -0.4456  1.2592  0.2116
14105TIP3    H263731   2.019   0.192   5.395  0.9452 -0.5568  0.1042
14106TIP3   OH263732   5.952   4.829   0.952 -0.1070  0.0258 -0.3835
14106TIP3    H163733   5.982   4.793   1.035  0.1387 -1.0069 -0.9101
14106TIP3    H263734   5.934   4.753   0.897 -0.4462  0.6884 -1.2195
14107TIP3   OH263735   2.855   1.834   6.352 -0.4155  0.1836  0.2409
14107TIP3    H163736   2.837   1.915   6.399 -0.5279  1.6842 -2.2361
14107TIP3    H263737   2.930   1.796   6.398  0.6365  2.4907  0.5934
14108TIP3   OH263738   4.657   1.124   2.292  0.1315 -0.2178  0.4905
14108TIP3    H163739   4.624   1.185   2.358 -2.2885 -1.7474  0.8097
14108TIP3    H263740   4.663   1.175   2.212 -1.1952  0.6204  0.9025
14109TIP3   OH263741   3.450   3.384   4.122  0.2116  0.0322 -0.3274
14109TIP3    H163742   3.487   3.381   4.033 -1.8224  1.1305 -1.2922
14109TIP3    H263743   3.377   3.322   4.120 -0.2579  0.5387  0.3392
14110TIP3   OH263744   6.653   1.472  17.058 -0.4040 -0.1216  0.0151
14110TIP3    H163745   6.649   1.446  17.150 -0.2645  0.0633  0.0722
14110TIP3    H263746   6.564   1.501  17.038 -0.2607  0.5078  0.2853
14111TIP3   OH263747   5.648   3.598   5.500  0.3118  0.3518  0.3910
14111TIP3    H163748   5.708   3.668   5.474  1.7267 -0.5383  1.1067
14111TIP3    H263749   5.693   3.554   5.572 -0.4953 -1.3323 -0.0817
14112TIP3   OH263750   2.327   3.114   3.196  0.5679  0.0178  0.3581
14112TIP3    H163751   2.403   3.161   3.162  0.6792  0.5733  1.3285
14112TIP3    H263752   2.255   3.138   3.137  1.5158 -2.2186 -1.9094
14113TIP3   OH263753   6.448   4.365  12.477 -0.2921 -0.6771 -0.5503
14113TIP3    H163754   6.424   4.371  12.570 -1.7264 -1.2435 -0.8716
14113TIP3    H263755   6.410   4.444  12.438 -0.5520 -0.9492 -0.8427
14114TIP3   OH263756   0.708   3.809  11.788  0.0441 -0.1491  1.0628
14114TIP3    H163757   0.795   3.842  11.812 -0.2986  1.4381  0.2293
14114TIP3    H263758   0.724   3.749  11.715  0.5469 -0.8484  1.7309
14115TIP3   OH263759   2.455   1.421   4.777 -0.2956 -0.7327 -0.1945
14115TIP3    H163760   2.525   1.358   4.763 -1.0908 -1.8405  0.5832
14115TIP3    H263761   2.397   1.410   4.702  0.0951 -0.1590 -0.5919
14116TIP3   OH263762   2.854   4.851  14.521  0.0501  0.4608 -0.2909
14116TIP3    H163763   2.792   4.826  14.453 -0.4086  0.1039  0.2544
14116TIP3    H263764   2.923   4.785  14.516 -0.3246  0.0399  0.0382
14117TIP3   OH263765   4.657   4.448  16.922  0.1539  0.1751 -0.0550
14117TIP3    H163766   4.578   4.394  16.924 -0.8728  1.6029  0.0209
14117TIP3    H263767   4.673   4.472  17.013  0.6001 -0.0096 -0.0834
14118TIP3   OH263768   3.841   4.139  11.340  0.1035  0.0267 -0.2486
14118TIP3    H163769   3.839   4.217  11.284  0.6913  0.8576  0.8499
14118TIP3    H263770   3.752   4.104  11.334  0.5498 -0.8317 -2.9204
14119TIP3   OH263771   0.191   6.201  13.128  0.0353 -0.4984 -0.0829
14119TIP3    H163772   0.099   6.215  13.106  0.3580 -0.6293 -1.5858
14119TIP3    H263773   0.220   6.284  13.165 -0.8034 -0.6113  0.8610
14120TIP3   OH263774   5.626   4.850   0.388 -0.1193 -0.1197 -0.4427
14120TIP3    H163775   5.575   4.914   0.338  0.4135  2.3175  1.8861
14120TIP3    H263776   5.717   4.878   0.376  0.1930 -0.8930  0.0473
14121TIP3   OH263777   5.093   3.674   4.863  0.0913  0.3217 -0.5041
14121TIP3    H163778   5.084   3.624   4.944  3.5832  1.6457  0.9040
14121TIP3    H263779   5.137   3.615   4.803  0.6601  0.3979 -0.1784
14122TIP3   OH263780   5.636   5.566  14.782  0.2156 -0.3445  0.5297
14122TIP3    H163781   5.560   5.599  14.733 -0.2355  0.8250  1.9370
14122TIP3    H263782   5.616   5.474  14.797 -1.2770  0.0866  1.4337
14123TIP3   OH263783   3.124   3.647  16.947 -0.5103 -0.4568 -0.1159
14123TIP3    H163784   3.068   3.641  17.025 -1.2940  0.1511 -0.6250
14123TIP3    H263785   3.169   3.562  16.944  1.5743  0.3681  2.4908
14124TIP3   OH263786   0.403   6.284   1.061  0.7279 -0.0465 -0.2157
14124TIP3    H163787   0.440   6.213   1.007  0.3600 -0.4147  0.0144
14124TIP3    H263788   0.311   6.286   1.038 -0.0261 -1.9191  2.2127
14125TIP3   OH263789   4.997   2.610  13.713 -0.1593 -0.2142 -0.2117
14125TIP3    H163790   4.975   2.523  13.681  2.9470  0.0993 -3.9421
14125TIP3    H263791   4.972   2.669  13.641 -0.6824  1.8465  1.5479
14126TIP3   OH263792   5.677   1.147  12.968  0.2081 -0.4871  0.0575
14126TIP3    H163793   5.582   1.146  12.979 -0.0707  0.5947 -1.8303
14126TIP3    H263794   5.691   1.104  12.884  1.3041  0.1361 -0.0917
14127TIP3   OH263795   2.699   2.378  17.204  0.3007  1.0316 -0.1314
14127TIP3    H163796   2.732   2.467  17.194 -0.3913  1.1300 -1.9957
14127TIP3    H263797   2.758   2.324  17.151 -1.3046  0.9429 -1.9255
14128TIP3   OH263798   5.010   3.684   0.750  0.0414 -0.0118 -0.1558
14128TIP3    H163799   5.050   3.661   0.666 -0.7719  0.1733 -0.6050
14128TIP3    H263800   4.940   3.745   0.728  0.4747  0.8454  0.7689
14129TIP3   OH263801   5.736   0.559   5.153 -0.4770  0.2907  0.1644
14129TIP3    H163802   5.726   0.477   5.202 -1.8190 -0.0166 -0.5950
14129TIP3    H263803   5.647   0.594   5.146  0.0139  1.5490  0.0009
14130TIP3   OH263804   1.592   5.391   4.465 -0.4393  0.4908 -0.6988
14130TIP3    H163805   1.579   5.373   4.372 -0.2862 -1.2393 -0.4155
14130TIP3    H263806   1.683   5.366   4.483 -0.3421  1.1875 -0.1632
14131TIP3   OH263807   2.765   5.418  12.033 -0.1353  0.0681  0.2852
14131TIP3    H163808   2.777   5.513  12.032 -0.6322  0.1361 -0.3302
14131TIP3    H263809   2.708   5.400  11.957 -0.0913 -0.7119  0.4231
14132TIP3   OH263810   1.609   4.279  16.207 -0.2341 -0.2559  0.0196
14132TIP3    H163811   1.578   4.349  16.149  0.7930  0.1251 -0.0918
14132TIP3    H263812   1.671   4.323  16.266  0.5953 -1.1160 -0.1923
14133TIP3   OH263813   0.386   4.759  15.378 -0.1109 -0.2250 -0.2975
14133TIP3    H163814   0.310   4.813  15.356  0.0972  0.2075  0.0384
14133TIP3    H263815   0.462   4.816  15.364  0.2299 -0.9197 -1.4995
14134TIP3   OH263816   3.111   5.718  16.182  0.2595  0.0808  0.1164
14134TIP3    H163817   3.157   5.790  16.138 -1.8045  0.7445 -1.1215
14134TIP3    H263818   3.152   5.639  16.147 -1.8127  0.5372 -3.9176
14135TIP3   OH263819   4.782   6.018   1.546  0.3120  0.1465  0.1259
14135TIP3    H163820   4.809   6.100   1.588  3.6056  0.3222 -1.9561
14135TIP3    H263821   4.756   6.044   1.458 -1.6865 -0.7579  0.4026
14136TIP3   OH263822   3.599   4.191   3.615  0.5891 -0.2344 -0.2655
14136TIP3    H163823   3.544   4.162   3.688  1.3792  0.1912  0.5235
14136TIP3    H263824   3.574   4.282   3.601  0.6110 -0.2420 -0.3525
14137TIP3   OH263825   4.676   5.308  16.375  0.0824 -0.5708  0.2342
14137TIP3    H163826   4.729   5.287  16.298  1.3926  1.0515  0.6564
14137TIP3    H263827   4.727   5.276  16.449 -0.2902 -0.4353  0.5557
14138TIP3   OH263828   1.675   5.582  11.555  0.4331  0.0833  0.1590
14138TIP3    H163829   1.664   5.622  11.641 -0.1815  0.9748 -0.3215
14138TIP3    H263830   1.769   5.561  11.551  0.8692  1.8201  0.2946
14139TIP3   OH263831   1.139   6.598  14.195  0.4918 -0.4137  0.0568
14139TIP3    H163832   1.164   6.507  14.179  0.7948 -0.3898  0.3900
14139TIP3    H263833   1.217   6.639  14.232  0.2060 -0.1387  0.3652
14140TIP3   OH263834   4.558   0.556   0.050  0.8466  0.3014  0.6726
14140TIP3    H163835   4.493   0.601   0.105  0.0674  1.0071 -0.7865
14140TIP3    H263836   4.599   0.626   0.000  2.9803 -0.0989  1.7681
14141TIP3   OH263837   3.341   4.242  12.116 -0.2134  0.2634  0.1279
14141TIP3    H163838   3.288   4.224  12.038  0.0984 -0.5811  0.0967
14141TIP3    H263839   3.301   4.319  12.155 -2.2259 -1.0062  0.7335
14142TIP3   OH263840   6.163   4.021   0.704 -0.6020  0.7670  0.9550
14142TIP3    H163841   6.188   3.959   0.635  1.1454 -0.4654  2.6123
14142TIP3    H263842   6.093   3.977   0.752 -0.4571  0.7618  1.1639
14143TIP3   OH263843   1.725   5.907   4.909  0.2453 -0.3307  0.7206
14143TIP3    H163844   1.644   5.885   4.955 -0.2649  0.3518  0.1729
14143TIP3    H263845   1.771   5.823   4.900 -0.4215 -0.7336  0.9943
14144TIP3   OH263846   2.934   5.044   5.520  0.0589 -0.0907 -0.6650
14144TIP3    H163847   2.879   5.050   5.442 -1.0452 -0.1340  0.0985
14144TIP3    H263848   2.914   4.959   5.558  0.9256 -0.2611 -0.5592
14145TIP3   OH263849   4.475   5.713  12.347  0.1316 -0.7335  0.4870
14145TIP3    H163850   4.570   5.721  12.335 -0.1404  0.7048 -0.9534
14145TIP3    H263851   4.450   5.637  12.294  0.2460  0.0121 -0.6689
14146TIP3   OH263852   2.557   2.700  11.216  1.0110  0.0513  0.4425
14146TIP3    H163853   2.481   2.749  11.185  0.5773 -1.0678 -0.3036
14146TIP3    H263854   2.587   2.750  11.292  0.6967  1.5615 -0.3766
14147TIP3   OH263855   0.836   4.434  15.892  0.7979 -0.0148  0.3474
14147TIP3    H163856   0.868   4.521  15.915  0.1156  1.6048 -3.9029
14147TIP3    H263857   0.777   4.449  15.818 -0.4874 -4.0109  0.3116
14148TIP3   OH263858   0.287   6.780  16.945  0.1437  0.3277  0.2367
14148TIP3    H163859   0.241   6.787  17.029 -1.1711 -1.1818 -0.3032
14148TIP3    H263860   0.337   6.699  16.952  1.2764  0.9845  0.0986
14149TIP3   OH263861   6.374   2.187  15.189  0.3492  0.9027 -0.2162
14149TIP3    H163862   6.315   2.231  15.250  0.6330  0.0845  0.6602
14149TIP3    H263863   6.462   2.210  15.219  0.5202 -0.7642  0.6718
14150TIP3   OH263864   3.223   1.494  13.383  0.3716  0.1432 -0.5645
14150TIP3    H163865   3.165   1.428  13.344  2.0156 -1.0982 -1.0284
14150TIP3    H263866   3.206   1.574  13.333 -2.7593  0.6195  0.9662
14151TIP3   OH263867   2.082   5.446   3.097 -0.0546 -0.2864  0.3196
14151TIP3    H163868   2.038   5.424   3.015  0.8407 -0.5076 -0.1177
14151TIP3    H263869   2.063   5.372   3.155 -0.9252  0.0009  0.4253
14152TIP3   OH263870   4.147   6.457  13.038  0.2060  0.1613 -0.1660
14152TIP3    H163871   4.146   6.364  13.014 -1.1245 -0.0184  0.5327
14152TIP3    H263872   4.143   6.458  13.133 -0.8386  0.9390 -0.2014
14153TIP3   OH263873   6.377   0.575   1.029  0.7070 -0.1903 -0.2399
14153TIP3    H163874   6.448   0.635   1.051 -0.3921  0.4124  1.9874
14153TIP3    H263875   6.317   0.580   1.103 -1.3006 -1.2567 -1.6730
14154TIP3   OH263876   4.068   5.856  12.759 -0.1234 -0.0668  0.8100
14154TIP3    H163877   4.138   5.830  12.699 -0.2043  0.5061  0.4570
14154TIP3    H263878   4.098   5.938  12.797  0.6259 -1.1573  2.7532
14155TIP3   OH263879   2.877   4.361   2.231 -0.4051  0.0070 -0.5877
14155TIP3    H163880   2.916   4.447   2.243  0.7017 -0.5803  0.2270
14155TIP3    H263881   2.787   4.378   2.206  0.3343  1.4324 -2.5163
14156TIP3   OH263882   2.480   5.924   1.488  0.2117 -0.4686  0.2118
14156TIP3    H163883   2.540   5.962   1.424 -0.5373  1.3776  0.5494
14156TIP3    H263884   2.404   5.981   1.486 -1.6377 -2.7901 -0.2870
14157TIP3   OH263885   1.711   1.615   1.018 -0.2615 -0.6358  0.0004
14157TIP3    H163886   1.650   1.602   0.946  2.3350  1.5869 -2.9196
14157TIP3    H263887   1.761   1.534   1.022  0.6279 -0.2442 -1.9603
14158TIP3   OH263888   0.349   3.910   2.547 -0.7886 -0.0601 -0.1666
14158TIP3    H163889   0.307   3.996   2.555  1.1754  0.8765  0.7806
14158TIP3    H263890   0.407   3.905   2.623  1.4680 -0.8568 -1.8405
14159TIP3   OH263891   3.326   1.480   1.704 -0.5771 -0.4289  0.2631
14159TIP3    H163892   3.266   1.454   1.635 -0.9957 -2.1807  1.2267
14159TIP3    H263893   3.274   1.477   1.784  0.4701 -0.7673  0.9591
14160TIP3   OH263894   0.768   4.839   2.748  0.4526 -0.3218 -0.1668
14160TIP3    H163895   0.827   4.769   2.774 -0.5099 -1.0564  0.1195
14160TIP3    H263896   0.712   4.799   2.681 -1.6427 -0.6205  1.6141
14161TIP3   OH263897   2.835   5.581  16.863 -0.1503 -1.0249 -0.2807
14161TIP3    H163898   2.922   5.616  16.879 -0.5897 -1.0905  2.8195
14161TIP3    H263899   2.846   5.524  16.787  2.5546 -1.2521  0.1837
14162TIP3   OH263900   2.915   2.297  13.657 -0.0946 -0.3794 -0.0602
14162TIP3    H163901   2.937   2.350  13.733 -2.3424 -1.1103  1.1935
14162TIP3    H263902   2.973   2.221  13.663  0.1864 -0.1251  0.5638
14163TIP3   OH263903   4.147   0.249   0.432 -0.0442  0.1625 -0.6791
14163TIP3    H163904   4.110   0.301   0.503  0.1369  0.3866 -0.7482
14163TIP3    H263905   4.241   0.262   0.438  0.1138 -1.1229  0.0553
14164TIP3   OH263906   3.501   0.077   1.303 -0.2505  0.5770 -0.0510
14164TIP3    H163907   3.443   0.045   1.233 -0.6661  0.3174  0.4023
14164TIP3    H263908   3.497   0.172   1.296  1.3146  0.5614 -1.6739
14165TIP3   OH263909   3.067   5.212   1.987  0.0536 -0.6749  0.0469
14165TIP3    H163910   3.149   5.165   2.002  0.2876 -0.6232 -0.9991
14165TIP3    H263911   3.095   5.297   1.952 -0.4259 -0.3521  0.4329
14166TIP3   OH263912   0.726   1.141   2.092 -0.0367  0.2809  0.3311
14166TIP3    H163913   0.673   1.160   2.015  2.4017 -2.9310 -2.4179
14166TIP3    H263914   0.794   1.209   2.092  0.0054  0.2429 -0.4349
14167TIP3   OH263915   2.803   4.633  16.811 -0.1707 -0.0480 -0.2989
14167TIP3    H163916   2.753   4.686  16.874 -0.0908 -1.7497  1.2895
14167TIP3    H263917   2.751   4.637  16.730 -1.9162 -0.2358  0.7477
14168TIP3   OH263918   4.245   5.052   2.416 -0.1907 -0.2476  0.1356
14168TIP3    H163919   4.257   5.071   2.509  0.3325  1.6847 -0.2784
14168TIP3    H263920   4.325   5.085   2.375 -0.6899 -0.5119 -1.0784
14169TIP3   OH263921   2.447   3.680   0.139  0.0742 -0.8203 -0.2941
14169TIP3    H163922   2.353   3.677   0.124  0.1106 -3.4014 -0.3323
14169TIP3    H263923   2.482   3.605   0.092  1.8112 -1.4981  1.9140
14170TIP3   OH263924   4.329   3.353   4.086  0.1439 -0.0154  0.5933
14170TIP3    H163925   4.325   3.442   4.120  0.3270 -0.9003  3.1737
14170TIP3    H263926   4.295   3.299   4.158 -0.1883 -2.0080 -0.9790
14171TIP3   OH263927   4.595   5.308   5.893 -0.7280  0.3235  0.3680
14171TIP3    H163928   4.553   5.238   5.943  0.6341 -0.3791  0.5784
14171TIP3    H263929   4.625   5.369   5.960 -0.9457  0.5642  0.2478
14172TIP3   OH263930   5.320   1.984  12.566 -0.6437 -0.0803  0.1835
14172TIP3    H163931   5.279   2.020  12.643  1.0395 -1.0985  1.6440
14172TIP3    H263932   5.304   1.890  12.571  2.7743 -0.7510  1.5762
14173TIP3   OH263933   2.211   2.354  13.612  0.0400  0.6015  0.4413
14173TIP3    H163934   2.227   2.446  13.591  1.0066  0.6261  1.2504
14173TIP3    H263935   2.288   2.326  13.661  0.8766 -1.2972 -1.7745
14174TIP3   OH263936   2.941   5.742   0.410  0.8457  0.3163 -0.4596
14174TIP3    H163937   2.996   5.676   0.368  0.0049  0.2249 -1.4420
14174TIP3    H263938   2.926   5.808   0.343 -2.1644 -0.7992 -1.0367
14175TIP3   OH263939   1.915   1.377  16.273 -0.3429  0.5260 -0.4904
14175TIP3    H163940   1.954   1.412  16.353 -1.4885 -0.4198  0.5224
14175TIP3    H263941   1.971   1.303  16.249  0.4725  1.3073 -1.0470
14176TIP3   OH263942   1.112   1.224   3.524  0.2246 -0.2536  0.2885
14176TIP3    H163943   1.181   1.232   3.458 -0.0322  0.1237  0.0610
14176TIP3    H263944   1.032   1.246   3.477  0.1224  0.7494  0.9002
14177TIP3   OH263945   0.365   5.739   0.663 -0.0255 -0.3033  0.3675
14177TIP3    H163946   0.272   5.759   0.651  0.4197  1.2018 -0.8191
14177TIP3    H263947   0.386   5.775   0.749  0.0140  1.6618 -0.4093
14178TIP3   OH263948   4.730   1.372  12.811 -0.2773 -0.1205  0.2783
14178TIP3    H163949   4.794   1.306  12.837  0.0713  0.0568 -0.1321
14178TIP3    H263950   4.781   1.452  12.802 -0.3276 -0.2532 -1.3232
14179TIP3   OH263951   3.902   5.708  14.218  0.2639 -0.0540 -0.0865
14179TIP3    H163952   3.888   5.703  14.124  1.0686  1.3351 -0.3136
14179TIP3    H263953   3.964   5.780  14.229  0.4875 -0.4502  1.4786
14180TIP3   OH263954   0.652   5.855  12.149 -0.2389 -0.5704  0.2444
14180TIP3    H163955   0.576   5.909  12.172 -0.4073 -0.4784 -0.4915
14180TIP3    H263956   0.636   5.830  12.057  1.0794  0.2283 -0.2288
14181TIP3   OH263957   2.828   5.436   6.240  0.4983  0.3495 -0.1305
14181TIP3    H163958   2.814   5.527   6.268  1.0803  0.6655 -0.8423
14181TIP3    H263959   2.903   5.440   6.182 -0.4058 -0.3570 -1.4035
14182TIP3   OH263960   1.399   0.389   6.032  0.1296 -0.1842 -0.1979
14182TIP3    H163961   1.433   0.471   6.069 -1.1383  0.3464 -0.1431
14182TIP3    H263962   1.467   0.360   5.971  0.2938  1.3201 -0.7884
14183TIP3   OH263963   2.671   6.424   2.544 -0.3056 -0.0511  0.2756
14183TIP3    H163964   2.679   6.404   2.638 -0.7617 -0.8086  0.1636
14183TIP3    H263965   2.577   6.438   2.531 -0.2354  0.1197 -0.0581
14184TIP3   OH263966   1.103   2.658  14.451 -0.2006  0.5076 -0.2568
14184TIP3    H163967   1.158   2.616  14.517  0.9388  0.2135 -1.3295
14184TIP3    H263968   1.160   2.726  14.413 -1.7350  2.5132  0.8892
14185TIP3   OH263969   5.463   3.976  15.516 -0.6449  0.1976 -0.5202
14185TIP3    H163970   5.473   3.981  15.421 -0.6124  2.8867 -0.4648
14185TIP3    H263971   5.384   4.027  15.534 -0.4666  0.0035  0.9238
14186TIP3   OH263972   3.491   1.823   3.435  0.1629  0.0137 -0.5288
14186TIP3    H163973   3.395   1.828   3.439  0.2531  1.0776  1.2756
14186TIP3    H263974   3.520   1.914   3.435  1.2032 -0.2633  1.2983
14187TIP3   OH263975   1.662   2.295  11.040  1.2115  0.2828 -0.4431
14187TIP3    H163976   1.611   2.234  10.987  0.8154  0.0659  0.1783
14187TIP3    H263977   1.699   2.357  10.977  2.2082 -0.9980 -1.1505
14188TIP3   OH263978   5.001   4.337   5.099  0.2830  0.1407 -0.1608
14188TIP3    H163979   5.013   4.242   5.096  0.8096  0.1740  0.4553
14188TIP3    H263980   5.089   4.371   5.115 -0.2129  0.5880  1.8654
14189TIP3   OH263981   2.285   5.496   0.935  0.2247  0.3205 -0.4064
14189TIP3    H163982   2.237   5.542   0.865 -2.1338 -0.8055  0.3542
14189TIP3    H263983   2.327   5.423   0.890  0.0269  0.5037 -0.8998
14190TIP3   OH263984   0.789   1.308  11.334  0.6421  0.2982 -0.2659
14190TIP3    H163985   0.805   1.398  11.363  0.1998  1.0815 -2.2464
14190TIP3    H263986   0.695   1.305  11.316  0.5790 -0.6946  0.1546
14191TIP3   OH263987   0.099   2.981  13.390  0.3350 -0.1531 -1.1972
14191TIP3    H163988   0.119   3.018  13.476  2.1027 -2.3665 -0.5802
14191TIP3    H263989   0.018   2.931  13.404  1.2513 -1.4984 -0.4414
14192TIP3   OH263990   5.552   6.253  12.928  0.1838  0.1323  0.0208
14192TIP3    H163991   5.543   6.254  12.833  2.4690 -0.7125 -0.2754
14192TIP3    H263992   5.534   6.162  12.953 -0.8114  0.4364  0.4788
14193TIP3   OH263993   3.684   1.496   1.423  0.3745  0.3055 -1.1906
14193TIP3    H163994   3.642   1.548   1.491 -0.4571  0.3800 -1.7455
14193TIP3    H263995   3.777   1.496   1.446  0.3951  2.0728 -1.2080
14194TIP3   OH263996   6.225   3.491   4.867  0.1048 -0.0927 -0.5200
14194TIP3    H163997   6.179   3.564   4.909  0.9381  0.9006 -1.2820
14194TIP3    H263998   6.281   3.455   4.935  0.5373  0.7233 -0.4339
14195TIP3   OH263999   5.980   4.858  15.576 -0.1027  0.1124 -0.0757
14195TIP3    H164000   5.909   4.837  15.515  0.0751 -0.0220 -0.2409
14195TIP3    H264001   6.003   4.949  15.556 -1.5425  0.8116  1.3214
14196TIP3   OH264002   5.375   6.378   5.822  0.2815 -0.2239 -0.0674
14196TIP3    H164003   5.439   6.335   5.879  1.2964  1.8385  0.4736
14196TIP3    H264004   5.394   6.344   5.734  1.8270 -0.0540  0.1616
14197TIP3   OH264005   1.298   2.451   3.888  0.2332  0.5130 -0.8438
14197TIP3    H164006   1.305   2.430   3.981  0.0110 -0.3057 -1.0089
14197TIP3    H264007   1.242   2.529   3.885 -0.8907 -0.2527 -0.3781
14198TIP3   OH264008   5.714   5.417  12.386  0.2888  0.5911  0.3681
14198TIP3    H164009   5.687   5.340  12.436 -1.3417  0.3677 -0.7637
14198TIP3    H264010   5.801   5.439  12.420  0.9884 -1.9787  0.4659
14199TIP3   OH264011   1.087   1.629  16.968 -0.2918  0.0160  0.4222
14199TIP3    H164012   0.994   1.614  16.982 -0.1157  0.2975  2.0071
14199TIP3    H264013   1.116   1.554  16.917 -1.6873  0.7092 -1.5270
14200TIP3   OH264014   2.023   6.080   2.675  0.6096 -0.0073  0.3074
14200TIP3    H164015   2.003   6.021   2.748  2.5269 -0.5213  0.4785
14200TIP3    H264016   1.975   6.043   2.601 -0.1227 -0.3838  0.9509
14201TIP3   OH264017   6.647   6.438  11.707 -0.4712  0.5362 -0.1158
14201TIP3    H164018   6.681   6.482  11.785  1.0367  2.5755 -1.8088
14201TIP3    H264019   6.710   6.369  11.687 -0.5137  0.4353  0.1009
14202TIP3   OH264020   6.285   0.088  16.660  0.0343 -0.4952 -0.0903
14202TIP3    H164021   6.350   0.139  16.611 -1.5234  0.9498 -0.7360
14202TIP3    H264022   6.249   0.149  16.724 -1.2172 -1.0396 -0.2504
14203TIP3   OH264023   2.744   0.804   1.822 -0.3590  0.0138  0.2756
14203TIP3    H164024   2.798   0.755   1.884 -1.4042 -0.4740  0.8291
14203TIP3    H264025   2.800   0.875   1.792  0.1589  0.2914  1.8327
14204TIP3   OH264026   0.225   5.048   3.925 -0.0998  0.5919  0.6844
14204TIP3    H164027   0.194   5.104   3.854  0.3212 -1.7512 -1.5129
14204TIP3    H264028   0.151   4.992   3.945  0.1230  0.5346  1.3586
14205TIP3   OH264029   2.456   0.857   4.485  0.1623 -0.3912 -0.7285
14205TIP3    H164030   2.424   0.783   4.537 -0.4448  1.0090  0.9741
14205TIP3    H264031   2.445   0.828   4.394 -2.6533 -1.3728 -0.1937
14206TIP3   OH264032   2.824   5.175  16.693  0.1718  0.1654  0.0555
14206TIP3    H164033   2.886   5.114  16.654  0.3563  1.3816 -1.6873
14206TIP3    H264034   2.862   5.197  16.778  2.1423  0.8238 -0.9263
14207TIP3   OH264035   1.524   0.003   2.688  0.3079 -0.0793 -0.2194
14207TIP3    H164036   1.446  -0.052   2.679  0.2929 -0.6069  2.2443
14207TIP3    H264037   1.494   0.080   2.736  0.4457  1.9421 -3.1748
14208TIP3   OH264038   2.797   4.286  12.482  0.0855  0.2597  0.3149
14208TIP3    H164039   2.831   4.300  12.570  0.6480  1.8430 -0.1342
14208TIP3    H264040   2.840   4.352  12.428 -1.6541  0.5579 -0.7878
14209TIP3   OH264041   1.578   0.638   1.867  0.0826 -0.4457  0.0698
14209TIP3    H164042   1.641   0.702   1.834 -0.3582  0.2863  0.6138
14209TIP3    H264043   1.600   0.629   1.959  0.8138 -1.8968 -0.2155
14210TIP3   OH264044   1.357   0.577   0.312  0.4796 -0.1241 -0.2852
14210TIP3    H164045   1.388   0.571   0.402  2.9362 -2.1263 -1.1334
14210TIP3    H264046   1.422   0.528   0.261 -0.4279  1.5033 -3.2560
14211TIP3   OH264047   2.167   0.718  14.900  0.0209  0.6135  0.2945
14211TIP3    H164048   2.255   0.700  14.932  0.3307  0.3112 -0.6793
14211TIP3    H264049   2.130   0.631  14.881  0.4988  0.8235 -1.7999
14212TIP3   OH264050   5.784   6.570   3.797  0.7897 -0.0059 -0.5486
14212TIP3    H164051   5.817   6.570   3.887 -0.4531  2.1154 -0.0098
14212TIP3    H264052   5.714   6.636   3.797  0.7732  0.0860 -3.0893
14213TIP3   OH264053   2.046   0.640  12.361  0.7866  0.2784  0.1910
14213TIP3    H164054   2.088   0.716  12.401  0.5186 -1.0515  3.2289
14213TIP3    H264055   1.961   0.633  12.405  0.2506 -1.0647 -0.9607
14214TIP3   OH264056   1.285   6.661   3.312 -0.5075 -0.1520 -0.6945
14214TIP3    H164057   1.294   6.726   3.243 -0.9459  0.5821 -0.0838
14214TIP3    H264058   1.303   6.577   3.270  1.3347  0.4683 -1.2077
14215TIP3   OH264059   1.633   4.180   3.288 -0.2727  0.4412  0.1620
14215TIP3    H164060   1.683   4.101   3.269 -2.0711 -1.7336  3.4383
14215TIP3    H264061   1.558   4.176   3.229  0.3112  0.4127 -0.5830
14216TIP3   OH264062   2.866   5.555  15.196  1.3380 -0.5156 -0.6009
14216TIP3    H164063   2.935   5.593  15.141 -0.8913  1.0329 -2.5211
14216TIP3    H264064   2.787   5.560  15.143 -0.8609  0.3800  2.4665
14217TIP3   OH264065   6.684   6.038  14.854 -0.0333 -0.1929  0.2061
14217TIP3    H164066   6.677   6.020  14.760  1.5579 -0.0852  0.0315
14217TIP3    H264067   6.623   6.109  14.870  1.9798  2.0585 -1.4407
14218TIP3   OH264068   4.151   4.878  16.245  0.0100  0.1465 -0.2854
14218TIP3    H164069   4.162   4.952  16.304  1.0294 -0.9424  0.9555
14218TIP3    H264070   4.230   4.876  16.192 -0.9312  1.1648 -1.8335
14219TIP3   OH264071   6.656   1.849   1.454 -0.7454 -0.7545  0.2884
14219TIP3    H164072   6.720   1.779   1.447 -2.0719 -2.1314  1.1168
14219TIP3    H264073   6.595   1.819   1.522 -1.0930  1.4417  1.0331
14220TIP3   OH264074   1.928   5.325  16.697 -0.3080  0.5249  0.0509
14220TIP3    H164075   2.017   5.293  16.707  0.0820  1.5128 -0.1114
14220TIP3    H264076   1.897   5.341  16.786 -0.2789  0.2935  0.1019
14221TIP3   OH264077   4.670   1.040  15.302 -0.8270 -0.5988  0.2104
14221TIP3    H164078   4.671   1.081  15.215 -1.3846  0.3045  0.6143
14221TIP3    H264079   4.593   0.982  15.300  0.3198 -2.1662 -0.5772
14222TIP3   OH264080   4.371   6.688  13.636  0.1027 -0.0315 -0.0693
14222TIP3    H164081   4.325   6.723  13.712  1.0803 -0.1779  0.6019
14222TIP3    H264082   4.302   6.677  13.570 -1.0845 -1.4433  1.3198
14223TIP3   OH264083   0.521   4.391   0.098 -0.3552  0.5264 -1.0587
14223TIP3    H164084   0.597   4.417   0.047 -0.4789  0.1575 -1.4323
14223TIP3    H264085   0.459   4.356   0.034 -0.7892  0.7082 -0.7430
14224TIP3   OH264086   2.985   3.499  15.313 -0.3058  0.2648  0.1967
14224TIP3    H164087   2.968   3.484  15.220 -0.9295 -0.7400  0.4539
14224TIP3    H264088   2.898   3.505  15.353 -0.0480  0.6799  0.7177
14225TIP3   OH264089   4.438   3.947   4.394 -0.3414 -0.1153 -0.2727
14225TIP3    H164090   4.453   3.955   4.300 -2.7535  0.5664 -0.6677
14225TIP3    H264091   4.501   4.008   4.434  0.9805 -0.7109 -1.3604
14226TIP3   OH264092   1.802   2.895  14.295  0.1022 -0.3696 -0.6310
14226TIP3    H164093   1.755   2.918  14.215  1.2462 -0.8029 -1.4580
14226TIP3    H264094   1.887   2.862  14.264  0.8531  0.1355  0.7917
14227TIP3   OH264095   4.539   0.655   4.065 -0.5442 -0.0864  0.0807
14227TIP3    H164096   4.481   0.588   4.101 -0.8067 -0.9288 -1.7642
14227TIP3    H264097   4.613   0.605   4.029  0.4235  0.8237  0.7379
14228TIP3   OH264098   4.470   2.617  16.768  0.1271  0.3971 -0.0686
14228TIP3    H164099   4.537   2.601  16.702 -0.7279 -2.6024 -0.3795
14228TIP3    H264100   4.513   2.595  16.851  0.2111  0.8140  0.0001
14229TIP3   OH264101   0.352   0.158  10.510 -0.3363 -1.0419 -0.0610
14229TIP3    H164102   0.397   0.075  10.522  2.4394  0.2283 -0.9154
14229TIP3    H264103   0.279   0.154  10.571  0.9406 -3.2382  1.4771
14230TIP3   OH264104   3.303   0.832   0.171 -0.5597 -0.1568  0.3327
14230TIP3    H164105   3.312   0.920   0.208 -1.4727  0.0658  0.0350
14230TIP3    H264106   3.393   0.807   0.148 -0.1010  0.0900  1.7668
14231TIP3   OH264107   1.641   1.078   6.040 -0.1215  0.0041  0.2038
14231TIP3    H164108   1.670   1.083   5.949 -1.0447  1.1778 -0.0513
14231TIP3    H264109   1.680   1.155   6.081  0.3898 -0.5877  0.8501
14232TIP3   OH264110   5.242   5.336  12.104  0.1334  0.1569  0.6312
14232TIP3    H164111   5.273   5.276  12.036 -2.7585 -1.8405  0.8495
14232TIP3    H264112   5.173   5.386  12.061  1.6654  2.5579  0.8187
14233TIP3   OH264113   2.892   2.081   0.733 -0.0012  0.1950  0.4586
14233TIP3    H164114   2.861   2.111   0.648 -2.6159 -0.6086  1.0631
14233TIP3    H264115   2.964   2.141   0.754 -0.6666  1.7329 -1.3581
14234TIP3   OH264116   3.347   0.623  15.953 -0.2550  0.1652  0.1590
14234TIP3    H164117   3.343   0.713  15.921 -0.2264  0.7116  1.5839
14234TIP3    H264118   3.427   0.621  16.006  1.0478 -1.3835 -1.7169
14235TIP3   OH264119   0.686   1.044  12.025  0.5982  0.2537  0.5342
14235TIP3    H164120   0.599   1.077  12.002  0.8971  1.0305  0.4790
14235TIP3    H264121   0.722   1.010  11.943  1.0125  1.5073  0.1687
14236TIP3   OH264122   5.867   6.200   1.297 -0.4950 -0.1314  0.8709
14236TIP3    H164123   5.889   6.240   1.381 -0.0898 -2.0213  1.7380
14236TIP3    H264124   5.850   6.273   1.238  1.3286  1.2858  2.0269
14237TIP3   OH264125   6.000   0.834   0.832 -0.8089 -0.2605 -0.3114
14237TIP3    H164126   5.986   0.897   0.761 -0.5036 -1.0542 -1.0832
14237TIP3    H264127   5.915   0.827   0.874 -1.4439 -1.0790 -1.6838
14238TIP3   OH264128   3.743   4.491  15.538  0.0995  0.1704 -0.2277
14238TIP3    H164129   3.776   4.581  15.533 -0.4427  0.4017  0.2159
14238TIP3    H264130   3.804   4.440  15.485  0.1305  0.8808 -0.8909
14239TIP3   OH264131   3.725   5.939  15.000 -0.0965 -0.3170  0.5590
14239TIP3    H164132   3.676   5.859  15.017 -0.7667  0.3086  1.6654
14239TIP3    H264133   3.726   5.985  15.084  1.8645 -0.0140  0.4104
14240TIP3   OH264134   5.050   5.769   5.720  0.1211 -0.5868 -0.0724
14240TIP3    H164135   5.091   5.776   5.634 -0.4074 -0.0120 -0.2897
14240TIP3    H264136   4.958   5.788   5.704  0.0942 -0.0286  0.6856
14241TIP3   OH264137   5.446   2.473  10.655 -0.1528  0.3239 -0.2742
14241TIP3    H164138   5.473   2.538  10.590  1.1102 -0.5761 -0.7066
14241TIP3    H264139   5.372   2.512  10.699  0.6360  2.1065 -0.4440
14242TIP3   OH264140   6.629   1.427   5.490 -0.2213 -0.1483  0.1597
14242TIP3    H164141   6.649   1.521   5.492  0.8650 -0.3411  2.9181
14242TIP3    H264142   6.576   1.413   5.568 -0.7930 -1.7841 -0.4869
14243TIP3   OH264143   4.639   5.820  14.011 -0.5036 -0.7130  0.2383
14243TIP3    H164144   4.700   5.798  14.081 -0.6653 -3.6888 -0.4547
14243TIP3    H264145   4.694   5.833  13.934 -0.2065  3.6453  0.9140
14244TIP3   OH264146   2.155   5.139   3.121  0.1718  0.0749 -0.1289
14244TIP3    H164147   2.138   5.093   3.039  2.6539 -1.6025  0.1826
14244TIP3    H264148   2.236   5.187   3.106 -0.5120  1.5803  0.6957
14245TIP3   OH264149   5.464   6.779   3.614  0.3077  0.1160 -0.4758
14245TIP3    H164150   5.396   6.790   3.680  0.3681 -2.8025  0.2370
14245TIP3    H264151   5.422   6.730   3.543  1.4358 -1.2439 -0.2761
14246TIP3   OH264152   4.786   2.467   1.771  0.5902  0.2368  0.4622
14246TIP3    H164153   4.732   2.546   1.762  1.8274  1.2575  1.5777
14246TIP3    H264154   4.839   2.464   1.692  0.5358  0.5288  0.4140
14247TIP3   OH264155   2.562   4.611  13.590  0.1799 -0.4671 -0.0897
14247TIP3    H164156   2.637   4.664  13.564 -0.0745 -0.0590 -0.0026
14247TIP3    H264157   2.561   4.614  13.685  0.9256 -1.7088 -0.0245
14248TIP3   OH264158   5.384   4.255  17.207 -0.0344 -0.4374 -0.5988
14248TIP3    H164159   5.469   4.299  17.204  0.1326 -0.7197 -0.1860
14248TIP3    H264160   5.320   4.324  17.190  0.0772  0.4360  2.0478
14249TIP3   OH264161   3.157   4.721  14.801 -0.1166 -0.1530  0.0270
14249TIP3    H164162   3.077   4.738  14.851  0.4616  0.1198  0.8701
14249TIP3    H264163   3.146   4.772  14.721 -1.6765 -1.6804 -0.7950
14250TIP3   OH264164   2.601   5.875  14.963 -0.0023 -0.2372  0.3080
14250TIP3    H164165   2.575   5.884  15.055  1.4203  0.1634  0.7133
14250TIP3    H264166   2.697   5.876  14.966  0.0942 -1.6545 -1.0597
14251TIP3   OH264167   6.176   6.440  13.022  0.1875  0.8205  0.0750
14251TIP3    H164168   6.127   6.440  12.940  1.2311  0.2128 -0.5756
14251TIP3    H264169   6.193   6.532  13.040  0.6472  0.9303 -0.8387
14252TIP3   OH264170   1.937   1.870   3.321  0.8496  0.2381  0.3580
14252TIP3    H164171   2.031   1.879   3.311  0.8037  0.3469  0.0129
14252TIP3    H264172   1.900   1.908   3.241  0.4693  1.3395  1.0222
14253TIP3   OH264173   4.042   5.668   1.820  0.5351  0.3381  0.0461
14253TIP3    H164174   3.950   5.655   1.796  0.7681 -1.6959  0.1470
14253TIP3    H264175   4.040   5.741   1.882 -0.9864  0.4130 -0.0470
14254TIP3   OH264176   3.675   2.352   1.517 -0.2264  1.0793 -0.8427
14254TIP3    H164177   3.710   2.440   1.501 -0.4460  1.5628  1.0136
14254TIP3    H264178   3.586   2.368   1.550  0.5988  0.4073  2.0308
14255TIP3   OH264179   0.023   6.461   5.765 -0.0311 -0.1056 -0.1820
14255TIP3    H164180   0.046   6.440   5.855 -1.4666 -0.8376  0.0464
14255TIP3    H264181   0.081   6.407   5.712  1.0827  0.6135  0.2744
14256TIP3   OH264182   6.166   3.514  13.381  0.0556  0.0626  0.2503
14256TIP3    H164183   6.104   3.443  13.366  0.7073 -0.5217  0.2875
14256TIP3    H264184   6.153   3.540  13.472  0.5287 -0.7177  0.5521
14257TIP3   OH264185   3.493   1.097  16.727 -0.3760 -0.7813 -0.0078
14257TIP3    H164186   3.523   1.148  16.803  1.1589 -1.1564 -0.3115
14257TIP3    H264187   3.486   1.161  16.657  0.2197 -0.7584 -0.0518
14258TIP3   OH264188   6.294   2.373  16.892 -0.0420  0.1232  0.4396
14258TIP3    H164189   6.244   2.314  16.949 -0.3098 -0.5965 -0.5088
14258TIP3    H264190   6.228   2.432  16.856 -0.5150 -1.6419 -1.8269
14259TIP3   OH264191   6.514   2.746   0.479 -0.1832 -0.0664  0.1703
14259TIP3    H164192   6.443   2.704   0.528 -0.0999 -1.6283 -0.9717
14259TIP3    H264193   6.472   2.774   0.397  0.1967  0.3334  0.1149
14260TIP3   OH264194   0.924   1.425  10.434  0.0503  0.0007 -0.4065
14260TIP3    H164195   1.019   1.415  10.440  0.3609  1.2507 -2.1908
14260TIP3    H264196   0.911   1.519  10.419 -1.6338  0.1801  1.8117
14261TIP3   OH264197   0.584   4.234  16.808  0.0604 -0.3928  0.0985
14261TIP3    H164198   0.666   4.185  16.823  0.3511 -0.7952 -2.4102
14261TIP3    H264199   0.613   4.316  16.769 -0.7070 -0.5169 -0.7531
14262TIP3   OH264200   0.943   1.188   5.557  0.1131  0.0211 -0.1524
14262TIP3    H164201   0.889   1.131   5.611 -0.0124  1.2291  1.0442
14262TIP3    H264202   0.909   1.177   5.468 -1.0961 -0.3897  0.3477
14263TIP3   OH264203   1.882   4.901  13.198  0.1097  0.2408  0.0888
14263TIP3    H164204   1.824   4.956  13.145  0.5831  1.2519  0.5855
14263TIP3    H264205   1.956   4.958  13.219  0.6827 -0.6407  0.5075
14264TIP3   OH264206   1.127   4.399   4.635 -0.2897 -0.2927  0.2493
14264TIP3    H164207   1.205   4.443   4.601 -0.9350 -0.4561 -1.5975
14264TIP3    H264208   1.077   4.468   4.677  0.0858  0.1511 -0.0160
14265TIP3   OH264209   4.838   6.195  12.763  0.5754  0.0176 -0.2708
14265TIP3    H164210   4.799   6.174  12.678  3.2631  1.9764 -2.1610
14265TIP3    H264211   4.852   6.289  12.760  1.2796  0.0541  2.1565
14266TIP3   OH264212   2.771   2.154   4.764 -0.3683  0.2052 -0.4409
14266TIP3    H164213   2.738   2.069   4.736 -0.4538  0.0987 -0.0183
14266TIP3    H264214   2.865   2.151   4.745 -0.6252  0.6136 -1.9200
14267TIP3   OH264215   2.209   4.492  12.119  0.3909 -0.2483 -0.5735
14267TIP3    H164216   2.120   4.456  12.129  0.3776  0.1469  0.8818
14267TIP3    H264217   2.247   4.440  12.048 -0.2050 -2.0101  0.3177
14268TIP3   OH264218   4.085   2.859  13.041 -0.1280  0.1083  0.0667
14268TIP3    H164219   4.146   2.917  12.995 -0.1527 -0.2525 -0.4296
14268TIP3    H264220   4.139   2.786  13.071 -0.3452 -0.3068 -0.5393
14269TIP3   OH264221   5.174   1.500  11.629 -0.8514  0.4327 -0.1097
14269TIP3    H164222   5.268   1.484  11.643 -1.1008 -0.2281  0.9268
14269TIP3    H264223   5.163   1.491  11.534 -0.2652 -2.0163 -0.0342
14270TIP3   OH264224   0.417   5.710  12.061  0.9008 -0.0979  0.3923
14270TIP3    H164225   0.342   5.706  12.000  0.4087  1.0122  0.8928
14270TIP3    H264226   0.393   5.779  12.123  1.7998 -0.5959  1.3125
14271TIP3   OH264227   6.711   5.527   2.766  0.1088  0.5716  0.9746
14271TIP3    H164228   6.781   5.564   2.711  1.6779  0.0624  2.5479
14271TIP3    H264229   6.746   5.443   2.796 -1.3839  0.0895  1.4430
14272TIP3   OH264230   4.100   2.869  14.287  0.2137 -0.1674  0.5421
14272TIP3    H164231   4.069   2.959  14.274 -1.6396 -0.9305 -1.0121
14272TIP3    H264232   4.190   2.870  14.255 -0.9272  0.4284 -3.2780
14273TIP3   OH264233   0.612   3.275  12.279 -0.0177 -0.3407  0.3596
14273TIP3    H164234   0.548   3.206  12.262  0.7066 -0.4447 -2.4682
14273TIP3    H264235   0.697   3.235  12.258  0.6561  0.7360  0.9303
14274TIP3   OH264236   2.473   0.506  11.537  0.2668  0.3690 -0.3684
14274TIP3    H164237   2.419   0.554  11.598 -0.4286  0.6173 -1.1701
14274TIP3    H264238   2.560   0.544  11.547  0.1103  0.5762  0.2689
14275TIP3   OH264239   0.504   5.190  14.300 -0.0204  0.0415 -0.3764
14275TIP3    H164240   0.491   5.106  14.255  1.4694 -0.5461  0.2340
14275TIP3    H264241   0.416   5.227  14.305 -0.5957 -1.0827 -1.4220
14276TIP3   OH264242   4.139   6.383   1.852 -0.2482  0.3337  0.1324
14276TIP3    H164243   4.179   6.469   1.837  0.6773  0.1118  1.1588
14276TIP3    H264244   4.214   6.326   1.870 -0.9361 -0.4134  0.6694
14277TIP3   OH264245   3.867   2.634   4.960 -0.4749  0.5297  0.1332
14277TIP3    H164246   3.797   2.649   4.897 -1.7298  2.0139  1.7612
14277TIP3    H264247   3.904   2.721   4.976  1.2629 -0.1168 -0.1032
14278TIP3   OH264248   0.999   3.324   6.470 -0.7141  0.1509  0.0286
14278TIP3    H164249   0.985   3.364   6.556  1.2719 -0.4797  0.7014
14278TIP3    H264250   0.923   3.268   6.457 -0.9780  0.1454  1.4610
14279TIP3   OH264251   3.917   4.270  12.792 -0.5093 -0.2071 -0.5852
14279TIP3    H164252   3.935   4.254  12.885 -0.8710  0.2209 -0.4364
14279TIP3    H264253   4.000   4.300  12.756 -1.0120  2.5507  0.2731
14280TIP3   OH264254   3.524   2.663   2.037 -0.0513  0.2625 -0.3997
14280TIP3    H164255   3.530   2.621   2.122  1.4385 -1.7052 -1.4205
14280TIP3    H264256   3.455   2.729   2.048 -2.5708 -2.4312  1.2844
14281TIP3   OH264257   5.339   2.409   2.956 -0.7865  0.3603  0.5509
14281TIP3    H164258   5.305   2.330   2.916 -0.3943 -0.5733  1.9719
14281TIP3    H264259   5.262   2.466   2.967 -1.5543 -0.8663  1.8071
14282TIP3   OH264260   2.316   1.433  16.919  0.3506 -0.2888  0.5995
14282TIP3    H164261   2.251   1.498  16.891  1.3232  0.9307  1.0713
14282TIP3    H264262   2.400   1.473  16.898  0.9782 -1.3992  0.9301
14283TIP3   OH264263   0.206   1.386   3.949 -0.6505  0.2989  0.0262
14283TIP3    H164264   0.169   1.473   3.965  0.2044  0.4568  1.2536
14283TIP3    H264265   0.212   1.380   3.854 -1.4804  1.2540 -0.1095
14284TIP3   OH264266   1.544   2.470   1.451  0.0018  0.3520 -0.5749
14284TIP3    H164267   1.472   2.506   1.502  0.4182  1.1434 -0.5246
14284TIP3    H264268   1.562   2.385   1.491 -0.2613  0.5740  0.0317
14285TIP3   OH264269   6.010   2.044  16.205  0.0231 -0.2420 -0.6541
14285TIP3    H164270   6.032   2.091  16.125  0.2863 -1.2320 -1.1845
14285TIP3    H264271   5.916   2.028  16.198 -0.0670  0.2093 -0.4692
14286TIP3   OH264272   5.998   3.764  15.013 -0.0375 -0.3667 -0.6220
14286TIP3    H164273   5.944   3.830  14.969  0.2482 -0.1894 -0.7057
14286TIP3    H264274   5.942   3.730  15.083  0.1138  0.5621 -0.0379
14287TIP3   OH264275   4.314   5.333   2.721 -0.8413 -0.0816  0.6635
14287TIP3    H164276   4.364   5.393   2.665  0.1894 -1.7618 -0.2988
14287TIP3    H264277   4.223   5.358   2.706 -0.4302  1.9650  1.1837
14288TIP3   OH264278   3.823   4.678   4.588  0.0374 -0.0566 -0.3628
14288TIP3    H164279   3.852   4.626   4.663  0.0561 -0.1746 -0.4509
14288TIP3    H264280   3.863   4.764   4.601  0.8620 -0.3707 -0.7589
14289TIP3   OH264281   2.711   4.294  12.927 -0.4910  0.2804  0.0206
14289TIP3    H164282   2.675   4.227  12.870 -0.6168  0.3650  0.0001
14289TIP3    H264283   2.661   4.373  12.906  0.1894  0.5735 -0.5161
14290TIP3   OH264284   6.168   3.347   1.277 -0.0762 -0.9121  0.0957
14290TIP3    H164285   6.223   3.300   1.340 -0.7564 -1.0667  0.5757
14290TIP3    H264286   6.122   3.279   1.229  0.2743 -0.7867 -0.4238
14291TIP3   OH264287   5.046   1.650  13.823  0.1233 -0.0032 -0.5519
14291TIP3    H164288   4.954   1.647  13.848  0.0955  0.6832 -0.5521
14291TIP3    H264289   5.073   1.740  13.841  0.9411 -0.3427 -0.0453
14292TIP3   OH264290   1.870   3.944   2.148 -0.2763  0.6834 -0.4825
14292TIP3    H164291   1.943   4.000   2.119 -0.8230  0.5766 -2.1559
14292TIP3    H264292   1.841   3.985   2.229  2.4175  0.0155  0.9471
14293TIP3   OH264293   4.896   2.785   1.666 -0.3613 -0.0926 -0.0157
14293TIP3    H164294   4.876   2.877   1.685  1.5378  0.1684  0.9948
14293TIP3    H264295   4.970   2.789   1.605  0.9780 -0.8914  1.4826
14294TIP3   OH264296   4.671   1.542  11.368 -0.6835 -0.1979 -0.0053
14294TIP3    H164297   4.652   1.620  11.317 -0.4259  0.8998  1.4999
14294TIP3    H264298   4.762   1.520  11.346 -1.1363 -0.8030 -1.3264
14295TIP3   OH264299   5.135   0.855   0.523  0.4178 -0.7683 -0.9986
14295TIP3    H164300   5.209   0.805   0.489  0.8952 -0.8982  0.1847
14295TIP3    H264301   5.059   0.820   0.477  0.7577 -2.4388 -0.3430
14296TIP3   OH264302   1.364   0.957  16.423 -0.1032 -0.2296 -0.0970
14296TIP3    H164303   1.271   0.972  16.407 -0.6459 -2.0420  1.0081
14296TIP3    H264304   1.398   1.041  16.453 -1.7906  0.0593  1.1531
14297TIP3   OH264305   6.688   5.304  11.792  0.3682  0.0654 -0.0377
14297TIP3    H164306   6.721   5.369  11.853 -0.2154  0.2020  0.1387
14297TIP3    H264307   6.687   5.222  11.842 -1.9060  0.5169  0.7913
14298TIP3   OH264308   5.004   4.017  12.830 -0.1811 -0.2415 -0.2869
14298TIP3    H164309   5.008   4.109  12.801  0.6037 -0.8856 -2.4107
14298TIP3    H264310   5.000   3.967  12.749  1.0120 -2.1629  0.7802
14299TIP3   OH264311   1.592   4.895  13.118  0.2044 -0.2095  0.0597
14299TIP3    H164312   1.577   4.968  13.177  1.4886 -0.9893  1.4153
14299TIP3    H264313   1.544   4.822  13.157 -0.7215 -0.2282 -1.0540
14300TIP3   OH264314   5.602   6.430   1.800  0.1781  0.0179 -0.0204
14300TIP3    H164315   5.524   6.446   1.852  0.3823  0.2333  0.2241
14300TIP3    H264316   5.625   6.339   1.818 -0.4982 -0.3070 -0.7539
14301TIP3   OH264317   5.770   0.725  13.483 -0.0914  0.5925 -0.4137
14301TIP3    H164318   5.702   0.777  13.526 -0.2748 -0.3281  0.4409
14301TIP3    H264319   5.741   0.634  13.495  0.7805  0.2427 -0.9232
14302TIP3   OH264320   3.223   6.666   3.144 -0.1430  0.2572 -0.3041
14302TIP3    H164321   3.260   6.657   3.057 -0.3419 -1.5138 -0.2402
14302TIP3    H264322   3.135   6.701   3.129 -0.1333  0.0725 -0.8215
14303TIP3   OH264323   3.267   0.781   0.995 -0.4451 -0.0354 -0.2398
14303TIP3    H164324   3.278   0.742   0.909  0.4666  0.1254 -0.2147
14303TIP3    H264325   3.224   0.864   0.979 -2.2365 -0.9383 -0.3129
14304TIP3   OH264326   1.170   4.359   2.333  0.2569 -0.3076 -0.5828
14304TIP3    H164327   1.175   4.282   2.390  0.2140  0.0686 -0.0680
14304TIP3    H264328   1.145   4.324   2.248  1.2890 -1.0039 -0.6265
14305TIP3   OH264329   6.177   5.565  16.542  0.2165 -0.4969 -0.1715
14305TIP3    H164330   6.254   5.526  16.500  1.1254  1.2700 -0.2837
14305TIP3    H264331   6.151   5.502  16.609  1.9053 -1.0585  0.0050
14306TIP3   OH264332   1.139   3.514  13.704  0.2358 -0.0105  0.8751
14306TIP3    H164333   1.116   3.512  13.611 -1.9197 -0.3569  1.3443
14306TIP3    H264334   1.173   3.427  13.723  0.4124 -0.0324  0.4700
14307TIP3   OH264335   5.025   2.569  11.292  0.2873 -0.0830  0.6402
14307TIP3    H164336   5.003   2.495  11.236 -3.4497  1.7627 -0.6324
14307TIP3    H264337   4.954   2.575  11.355  2.1722  0.5485  2.8744
14308TIP3   OH264338   1.603   1.113  13.710  0.1655 -0.4981 -0.2459
14308TIP3    H164339   1.665   1.071  13.651  0.8564 -0.4113  0.3913
14308TIP3    H264340   1.609   1.062  13.791  0.1597  0.1210  0.1552
14309TIP3   OH264341   4.408   4.286  14.575  0.3881  0.4565 -0.4984
14309TIP3    H164342   4.312   4.283  14.572  0.3271  1.5302 -0.2071
14309TIP3    H264343   4.435   4.284  14.484 -0.0007  1.8502 -0.6663
14310TIP3   OH264344   4.294   4.265  16.255  0.1444  0.0659  0.1043
14310TIP3    H164345   4.201   4.251  16.269  0.3893 -0.4982  1.2295
14310TIP3    H264346   4.308   4.358  16.276 -0.2844  0.3604 -0.8435
14311TIP3   OH264347   3.188   2.971   1.417 -0.4299  0.1744  0.1499
14311TIP3    H164348   3.267   2.938   1.460 -0.0515 -0.0569 -0.6905
14311TIP3    H264349   3.183   3.063   1.442 -0.4253 -0.0396  0.9684
14312TIP3   OH264350   2.743   3.183  11.482 -0.2211  0.3752  0.6145
14312TIP3    H164351   2.812   3.248  11.494 -0.2487  0.6326 -0.5302
14312TIP3    H264352   2.753   3.154  11.391 -0.5410 -0.8432  0.9452
14313TIP3   OH264353   0.590   6.548   4.757  0.6690  0.4042 -0.0991
14313TIP3    H164354   0.610   6.641   4.769  1.3025  0.2767 -0.1467
14313TIP3    H264355   0.672   6.509   4.728  0.3082 -0.1050 -0.4582
14314TIP3   OH264356   5.859   1.916   1.390  0.3420  0.1293  0.0370
14314TIP3    H164357   5.813   1.852   1.445  0.9785  1.0495  1.6690
14314TIP3    H264358   5.931   1.866   1.351  0.0858 -0.4456  0.2806
14315TIP3   OH264359   3.812   2.980   1.893 -0.0907 -0.3269 -0.3989
14315TIP3    H164360   3.753   2.947   1.825  0.8715 -0.0723 -1.3801
14315TIP3    H264361   3.852   2.902   1.931  0.3548 -0.4114 -1.0365
14316TIP3   OH264362   5.685   6.704   2.831 -0.0756  0.0629  0.0882
14316TIP3    H164363   5.667   6.649   2.755 -1.5329  0.4555  0.1040
14316TIP3    H264364   5.607   6.694   2.886  0.3938  0.7864  0.9127
14317TIP3   OH264365   3.175   0.384   1.870  0.5400 -0.5445  0.4806
14317TIP3    H164366   3.081   0.397   1.857  0.5892 -1.0984 -0.4984
14317TIP3    H264367   3.193   0.299   1.828  1.6362 -0.0134 -0.1416
14318TIP3   OH264368   6.051   0.266   5.588 -0.1668 -0.5492 -0.5368
14318TIP3    H164369   6.081   0.197   5.529  1.9172 -0.6176  0.5197
14318TIP3    H264370   5.961   0.283   5.560  0.4887 -1.0380 -3.2518
14319TIP3   OH264371   4.142   0.861  12.436  0.0380 -0.2124  0.3534
14319TIP3    H164372   4.050   0.835  12.446  0.0433 -0.4527 -0.2006
14319TIP3    H264373   4.185   0.830  12.516 -0.3517 -0.1463  0.5900
14320TIP3   OH264374   4.682   3.618   1.178 -0.6171  0.1564  0.0939
14320TIP3    H164375   4.745   3.555   1.212 -0.6654  1.0605  1.9618
14320TIP3    H264376   4.662   3.587   1.089 -1.2438 -2.8737  1.1890
14321TIP3   OH264377   2.341   2.127   3.498 -0.1533 -0.0952  0.3435
14321TIP3    H164378   2.292   2.158   3.574  0.4825 -0.0320  0.7411
14321TIP3    H264379   2.419   2.183   3.496 -0.7369  0.7168 -1.0823
14322TIP3   OH264380   3.956   0.739   1.897  0.2779 -0.2629 -0.1821
14322TIP3    H164381   4.041   0.750   1.939  0.6499  1.2070 -1.2204
14322TIP3    H264382   3.908   0.820   1.918 -0.2818 -0.3996 -0.8600
14323TIP3   OH264383   3.597   0.860  13.602 -0.0100  0.1420 -0.3480
14323TIP3    H164384   3.633   0.881  13.516 -0.0016  0.8212 -0.1839
14323TIP3    H264385   3.535   0.931  13.621  0.2772  0.2125  0.3697
14324TIP3   OH264386   5.221   4.415   4.547 -0.1284  0.0850 -0.7556
14324TIP3    H164387   5.152   4.421   4.613  0.0576  1.8891 -0.6760
14324TIP3    H264388   5.298   4.452   4.590  0.1205  0.8410 -1.8209
14325TIP3   OH264389   4.118   1.353   3.745  0.2389 -0.2309 -0.1809
14325TIP3    H164390   4.144   1.278   3.798 -0.8557  0.2875  1.1435
14325TIP3    H264391   4.183   1.356   3.674  1.0454 -1.6421  0.4566
14326TIP3   OH264392   1.201   1.346  13.531  0.0773 -0.2957  0.6912
14326TIP3    H164393   1.294   1.326  13.542  0.0590 -1.1253 -0.5025
14326TIP3    H264394   1.198   1.413  13.463 -0.2274 -0.7131  0.2875
14327TIP3   OH264395   2.425   2.037  11.730 -0.0662  0.0199  0.1635
14327TIP3    H164396   2.363   2.046  11.658  0.1738 -0.4298 -0.1052
14327TIP3    H264397   2.421   1.944  11.753 -0.9216  0.3434  1.4379
14328TIP3   OH264398   6.298   2.936  14.184  0.1973 -0.0404  0.0277
14328TIP3    H164399   6.383   2.979  14.175 -0.6188  1.5864 -0.3884
14328TIP3    H264400   6.318   2.844  14.197  1.9890  0.1653 -1.0229
14329TIP3   OH264401   3.816   3.846  11.645  0.0621 -0.3300 -0.2345
14329TIP3    H164402   3.856   3.928  11.618 -1.1979 -0.2102 -1.8529
14329TIP3    H264403   3.860   3.779  11.593 -0.9851 -0.3260 -1.1492
14330TIP3   OH264404   2.670   2.070   3.570  0.3497  0.0126  0.0231
14330TIP3    H164405   2.702   1.993   3.523  0.3880  0.3095 -0.4477
14330TIP3    H264406   2.745   2.131   3.570 -0.6068  1.3312 -2.4247
14331TIP3   OH264407   1.477   1.226   6.716 -0.9373  0.4946  0.1632
14331TIP3    H164408   1.446   1.172   6.789  0.0306  1.1499  1.1010
14331TIP3    H264409   1.538   1.170   6.668 -0.4209  0.5347  0.7600
14332TIP3   OH264410   1.415   4.158  13.839 -0.3649 -0.1882 -0.1653
14332TIP3    H164411   1.438   4.141  13.748  0.0268  0.5079 -0.1988
14332TIP3    H264412   1.489   4.207  13.874  1.0762 -3.1922  1.4578
14333TIP3   OH264413   5.624   3.561  11.582 -0.2036  0.2918  0.2423
14333TIP3    H164414   5.715   3.532  11.576 -0.0589  0.8603 -0.3022
14333TIP3    H264415   5.583   3.528  11.502 -0.1497  1.1821 -0.1573
14334TIP3   OH264416   1.552   5.223  16.559 -0.1994 -0.2315 -0.6475
14334TIP3    H164417   1.588   5.157  16.499  0.8363 -0.6120  0.3747
14334TIP3    H264418   1.536   5.299  16.503  0.8036 -0.5547 -1.4096
14335TIP3   OH264419   5.133   5.592  13.349  0.4029  0.4262 -0.1485
14335TIP3    H164420   5.179   5.535  13.411  0.1185 -0.1885 -0.4852
14335TIP3    H264421   5.066   5.635  13.402 -0.0624 -0.3528 -0.0870
14336TIP3   OH264422   6.585   4.041   5.621 -0.0053 -0.2140 -0.6434
14336TIP3    H164423   6.556   3.991   5.698  0.0093  0.8790  0.1036
14336TIP3    H264424   6.622   4.121   5.658  0.7627 -0.0311 -1.7681
14337TIP3   OH264425   4.351   2.446   2.567  0.7036  0.5960  0.5517
14337TIP3    H164426   4.329   2.537   2.587 -1.6613  0.1749  0.1601
14337TIP3    H264427   4.393   2.451   2.481  1.1241  1.3739  0.7908
14338TIP3   OH264428   6.193   5.298  13.596  0.3518  0.2547 -0.1867
14338TIP3    H164429   6.234   5.337  13.519  0.9980  2.8835  1.3748
14338TIP3    H264430   6.104   5.333  13.596  0.5266  0.7410  0.5062
14339TIP3   OH264431   4.868   1.855   1.656  0.3067 -0.2765  0.2155
14339TIP3    H164432   4.942   1.864   1.716  0.9893 -0.8206 -0.5171
14339TIP3    H264433   4.858   1.760   1.643 -0.9835 -0.2472  0.8508
14340TIP3   OH264434   3.773   1.578  13.050  0.2096  0.5892 -0.2937
14340TIP3    H164435   3.684   1.543  13.046  0.3217 -0.1006  1.9627
14340TIP3    H264436   3.788   1.594  13.144  1.7778  2.5108 -0.8110
14341TIP3   OH264437   3.356   2.697   0.742 -0.2699 -0.1632 -0.0248
14341TIP3    H164438   3.328   2.698   0.834 -1.9520  2.0931 -0.4688
14341TIP3    H264439   3.451   2.708   0.746 -0.2457 -0.6901  1.4477
14342TIP3   OH264440   6.727   3.448  13.458  0.5417  0.0141  0.4208
14342TIP3    H164441   6.749   3.470  13.367 -0.2857  0.3430  0.2956
14342TIP3    H264442   6.793   3.494  13.510  1.1104 -0.2907 -0.0088
14343TIP3   OH264443   2.696   6.207  17.032  0.3891 -0.0218  0.2478
14343TIP3    H164444   2.618   6.248  16.995  1.6761 -0.1457 -2.8903
14343TIP3    H264445   2.674   6.114  17.038  0.5136 -0.1942 -1.4568
14344TIP3   OH264446   5.702   4.631  16.214  0.3077  0.1412  0.1201
14344TIP3    H164447   5.776   4.691  16.223  0.9027 -0.5774  0.0880
14344TIP3    H264448   5.643   4.656  16.286  1.5466 -0.6145  1.4559
14345TIP3   OH264449   4.556   1.658   1.672  0.3843  0.3058  0.1374
14345TIP3    H164450   4.636   1.682   1.625 -0.8545  2.4840 -1.0516
14345TIP3    H264451   4.490   1.649   1.603 -0.6385 -0.3078  1.1779
14346TIP3   OH264452   6.012   1.978  11.673 -0.1997  0.1231  0.2050
14346TIP3    H164453   6.033   1.920  11.746  0.4187 -1.0675 -0.8759
14346TIP3    H264454   6.051   1.935  11.596 -1.6204  0.8416 -0.9706
14347TIP3   OH264455   5.205   0.299   2.316  0.4772 -0.1280  0.0424
14347TIP3    H164456   5.239   0.230   2.260  0.7842 -0.2705  0.4032
14347TIP3    H264457   5.278   0.322   2.373  1.3746  2.5648 -1.9779
14348TIP3   OH264458   0.623   0.893   4.250 -0.1003  0.2806 -0.3336
14348TIP3    H164459   0.639   0.866   4.159 -0.8007  0.2963 -0.4643
14348TIP3    H264460   0.699   0.946   4.273  1.3187 -1.7310 -0.0811
14349TIP3   OH264461   4.144   5.126   0.229 -0.1162  0.1109  0.2755
14349TIP3    H164462   4.215   5.105   0.169 -1.0986  0.4805 -1.0801
14349TIP3    H264463   4.109   5.041   0.257 -0.1768 -0.0706 -0.3436
14350TIP3   OH264464   1.027   2.149  12.711  0.1198  0.1694 -0.2624
14350TIP3    H164465   1.022   2.070  12.766  0.8589  0.2086 -0.1278
14350TIP3    H264466   1.118   2.178  12.720 -0.5046  1.9188  0.9131
14351TIP3   OH264467   0.918   6.134   0.968 -0.0230 -0.0713  0.0062
14351TIP3    H164468   0.829   6.152   0.940  0.0507  1.9504  0.8967
14351TIP3    H264469   0.915   6.141   1.064  1.4361  2.0563 -0.0316
14352TIP3   OH264470   6.028   3.785   1.197  0.6118 -0.9781  0.0058
14352TIP3    H164471   6.014   3.693   1.173 -0.5784 -0.4082 -1.6489
14352TIP3    H264472   6.069   3.781   1.284 -0.3252 -3.0423  0.4102
14353TIP3   OH264473   1.476   2.100   4.871  0.0650 -0.1206  0.5112
14353TIP3    H164474   1.531   2.167   4.829  1.4465 -2.3154 -1.3855
14353TIP3    H264475   1.387   2.129   4.852  0.4874  2.4558  1.9210
14354TIP3   OH264476   5.674   0.074   3.205  0.5944  0.0253  0.0795
14354TIP3    H164477   5.636   0.103   3.288  1.7494 -0.0997  0.6883
14354TIP3    H264478   5.678  -0.021   3.212 -0.6613 -0.1134 -0.7627
14355TIP3   OH264479   6.520   6.354   2.992  0.0056 -0.2085  0.2057
14355TIP3    H164480   6.429   6.334   3.014 -0.0744  0.8457  0.9077
14355TIP3    H264481   6.564   6.269   2.996 -0.0046 -0.2409  4.6559
14356TIP3   OH264482   2.754   0.493   5.112 -0.6210  0.2945 -0.7822
14356TIP3    H164483   2.785   0.459   5.195  0.3106  1.5264 -0.5940
14356TIP3    H264484   2.822   0.470   5.049 -0.6831  0.5370 -0.9402
14357TIP3   OH264485   4.238   3.240  13.062  0.0073  0.5359  0.3321
14357TIP3    H164486   4.158   3.237  13.010 -0.1156  0.4229  0.5257
14357TIP3    H264487   4.222   3.309  13.127 -0.2896 -0.0933  0.9419
14358TIP3   OH264488   1.294   1.854   5.932  0.4541 -0.2532 -0.8669
14358TIP3    H164489   1.365   1.802   5.970  0.4822  0.7777  0.5550
14358TIP3    H264490   1.336   1.910   5.867  1.1712  1.1644  0.7623
14359TIP3   OH264491   1.356   5.503  16.532 -0.4854  0.9696  0.2514
14359TIP3    H164492   1.404   5.578  16.566  0.0382  1.3361 -1.2218
14359TIP3    H264493   1.414   5.465  16.466 -1.7058  0.6933 -0.7075
14360TIP3   OH264494   3.733   2.690   6.829  0.5850 -0.0641 -0.7859
14360TIP3    H164495   3.693   2.673   6.743  1.6592  0.0250 -1.3221
14360TIP3    H264496   3.779   2.608   6.850  0.2110 -0.1339 -0.2218
14361TIP3   OH264497   1.241   3.860   6.055  0.1910 -0.6206  0.2094
14361TIP3    H164498   1.271   3.853   6.145 -0.0531 -0.1339  0.3336
14361TIP3    H264499   1.146   3.843   6.060  0.0838 -0.0659  0.1268
14362TIP3   OH264500   1.637   5.426   3.103  0.1083 -0.1913  0.4282
14362TIP3    H164501   1.625   5.467   3.189 -1.6104  0.0118  0.1242
14362TIP3    H264502   1.697   5.353   3.120 -0.0160 -0.0174  1.7533
14363TIP3   OH264503   0.284   6.594  14.868  0.4557 -0.2687 -0.3806
14363TIP3    H164504   0.377   6.580  14.885  0.8279  1.0135 -1.1849
14363TIP3    H264505   0.257   6.518  14.816  1.1146 -0.5481 -0.3255
14364TIP3   OH264506   5.846   3.630  17.069 -0.9081 -0.0439  0.0109
14364TIP3    H164507   5.768   3.679  17.095 -1.5609 -1.9247  1.8865
14364TIP3    H264508   5.897   3.621  17.150 -0.3107 -1.5456 -0.4970
14365TIP3   OH264509   0.542   1.384  11.073 -0.9999  0.0574 -0.2073
14365TIP3    H164510   0.585   1.348  10.996 -2.5509 -1.2165 -0.5342
14365TIP3    H264511   0.452   1.403  11.044 -1.0251  1.5660  0.7311
14366TIP3   OH264512   3.870   0.977   1.486  0.6871  0.0577 -0.2148
14366TIP3    H164513   3.943   0.970   1.548  0.4436 -0.4647  0.0134
14366TIP3    H264514   3.792   0.987   1.541  0.5303  0.1523 -0.4507
14367TIP3   OH264515   2.998   1.003   2.004 -0.0513 -0.4078 -0.5418
14367TIP3    H164516   2.924   1.056   1.976 -0.0972 -0.2407 -0.1174
14367TIP3    H264517   2.997   0.926   1.947 -0.6440 -0.4834 -0.4325
14368TIP3   OH264518   3.290   0.004   4.318 -0.1547  0.5350  0.0888
14368TIP3    H164519   3.358   0.007   4.251  0.6267  0.1048  0.8404
14368TIP3    H264520   3.217  -0.041   4.276 -0.5937  2.3736 -1.2331
14369TIP3   OH264521   3.917   5.298  13.639  0.2069 -0.7816 -0.0610
14369TIP3    H164522   4.011   5.315  13.637 -0.1797  1.8070  0.8504
14369TIP3    H264523   3.897   5.283  13.732 -0.1218 -2.7376 -0.3949
14370TIP3   OH264524   5.309   2.403  14.555  0.2220 -0.1204 -0.2069
14370TIP3    H164525   5.280   2.446  14.635 -0.1424 -0.0843 -0.3536
14370TIP3    H264526   5.245   2.333  14.541 -0.2036  0.3860 -0.9040
14371TIP3   OH264527   5.523   3.743  13.958  0.1231 -0.2404  0.0176
14371TIP3    H164528   5.487   3.720  14.044 -2.3010  0.4778 -0.7451
14371TIP3    H264529   5.501   3.669  13.902  0.8498 -0.2671 -0.2494
14372TIP3   OH264530   2.826   6.334   5.204 -0.5214 -0.0108  0.0401
14372TIP3    H164531   2.898   6.360   5.261 -0.8562  1.1117 -0.0177
14372TIP3    H264532   2.763   6.406   5.210 -0.4589  0.2623 -1.9123
14373TIP3   OH264533   3.118   3.926  13.025  0.6451 -0.4168  0.2447
14373TIP3    H164534   3.121   4.019  12.999 -0.5370 -0.6167 -0.7099
14373TIP3    H264535   3.147   3.879  12.947  1.7083 -0.8475  0.8846
14374TIP3   OH264536   6.703   2.384   3.434  0.3137  0.1109 -0.1677
14374TIP3    H164537   6.765   2.455   3.450 -1.7505  2.1366 -0.6799
14374TIP3    H264538   6.689   2.345   3.520  1.2072  0.5306  0.1880
14375TIP3   OH264539   5.033   1.612   0.944  0.0281  0.7116  0.5394
14375TIP3    H164540   5.088   1.682   0.980 -0.2681  1.0741  0.3036
14375TIP3    H264541   5.042   1.540   1.005  3.6888 -0.6296 -1.2799
14376TIP3   OH264542   6.531   3.627   1.174  0.3301  0.1874 -0.0441
14376TIP3    H164543   6.578   3.707   1.148  0.1647 -0.0868 -1.2685
14376TIP3    H264544   6.600   3.567   1.203  0.4298  0.8586  1.1530
14377TIP3   OH264545   1.030   5.749   4.757 -0.4542  0.4588  0.4048
14377TIP3    H164546   0.964   5.807   4.719 -0.8205  0.6515  1.3192
14377TIP3    H264547   0.982   5.669   4.777 -0.1933  0.2453  0.1869
14378TIP3   OH264548   5.203   1.171  16.270 -0.6024  1.1618 -0.8008
14378TIP3    H164549   5.137   1.142  16.207 -0.4349  0.8228 -0.8222
14378TIP3    H264550   5.215   1.096  16.328 -1.1140  1.6396 -0.0603
14379TIP3   OH264551   0.741   6.436  16.991  0.1613  0.1417  0.6900
14379TIP3    H164552   0.759   6.490  16.914 -0.8010 -0.1949  0.2131
14379TIP3    H264553   0.806   6.464  17.056 -1.1519  2.8294  0.9654
14380TIP3   OH264554   0.498   2.869  14.869 -0.0987  0.1485 -0.1738
14380TIP3    H164555   0.549   2.946  14.841  1.6270 -0.2251  1.6844
14380TIP3    H264556   0.436   2.903  14.933  0.7471  0.0152  0.7393
14381TIP3   OH264557   4.472   3.602   5.916  0.0292  0.4498  0.8462
14381TIP3    H164558   4.491   3.514   5.950 -0.9071 -0.5026 -0.9103
14381TIP3    H264559   4.415   3.586   5.841 -1.2446  2.6665  1.2587
14382TIP3   OH264560   4.675   1.060   4.199  0.0119 -0.2887 -0.4109
14382TIP3    H164561   4.630   1.050   4.283  0.7685 -0.7437 -0.0413
14382TIP3    H264562   4.647   1.145   4.166  1.3553  0.9235  1.3418
14383TIP3   OH264563   3.952   2.933  15.849 -0.6325  0.5155 -0.2976
14383TIP3    H164564   4.037   2.952  15.810 -1.2972  0.7110 -1.7204
14383TIP3    H264565   3.918   3.019  15.874 -0.8441  0.5442 -0.6786
14384TIP3   OH264566   6.137   3.516  13.652  0.7292 -0.7092 -0.6091
14384TIP3    H164567   6.172   3.565  13.726  1.8647 -1.8602 -0.3462
14384TIP3    H264568   6.200   3.445  13.638 -0.8462 -2.1019 -0.9761
14385TIP3   OH264569   1.974   3.958  15.805  0.1427 -0.2114  0.0167
14385TIP3    H164570   2.016   4.026  15.857  1.5553 -0.0340 -1.2797
14385TIP3    H264571   2.033   3.883  15.811 -1.3571 -1.3426  1.3637
14386TIP3   OH264572   5.921   3.188  10.801 -0.7264  0.1182  0.4040
14386TIP3    H164573   5.946   3.247  10.730  1.2927  1.5055  2.1471
14386TIP3    H264574   5.849   3.234  10.845 -1.0345 -0.0803  0.1168
14387TIP3   OH264575   1.071   4.278   3.602  0.6404  0.6107 -0.0470
14387TIP3    H164576   1.059   4.373   3.601  0.5928  0.6320  1.1235
14387TIP3    H264577   1.165   4.266   3.609  0.7987  0.5311 -1.9084
14388TIP3   OH264578   3.367   6.577  13.693 -0.4558 -0.1545  0.8784
14388TIP3    H164579   3.314   6.595  13.615  0.1240 -0.9159  0.2967
14388TIP3    H264580   3.322   6.623  13.763  0.2820  2.5190 -0.2937
14389TIP3   OH264581   3.949   5.061   0.737 -0.4657 -0.3105 -0.2104
14389TIP3    H164582   3.947   5.015   0.821  0.2586  0.2204  0.1048
14389TIP3    H264583   3.868   5.112   0.736  0.0806  0.6095  0.7118
14390TIP3   OH264584   0.659   6.005  17.152 -0.2042 -0.3043  0.3624
14390TIP3    H164585   0.655   6.101  17.154  2.4509 -0.1074  0.8174
14390TIP3    H264586   0.655   5.979  17.244 -2.0804 -0.7502  0.1779
14391TIP3   OH264587   5.360   3.016   5.633  0.2042 -0.4003 -0.6429
14391TIP3    H164588   5.388   3.094   5.586  0.8079  0.5197  1.1419
14391TIP3    H264589   5.269   3.032   5.656  0.0345 -0.6668 -1.1129
14392TIP3   OH264590   6.654   4.626  13.832 -0.0981 -0.1832  0.2336
14392TIP3    H164591   6.741   4.607  13.867  0.8358  2.5207 -0.4103
14392TIP3    H264592   6.646   4.568  13.757  0.6697 -1.2364  0.9320
14393TIP3   OH264593   3.341   3.028  13.324 -0.1092 -0.0316 -0.9004
14393TIP3    H164594   3.339   2.950  13.380  0.2884  0.1413 -0.6431
14393TIP3    H264595   3.320   2.995  13.237  0.4835 -0.4989 -0.8747
14394TIP3   OH264596   0.191   1.155   0.652  0.3214  0.6187  0.5567
14394TIP3    H164597   0.122   1.183   0.712  1.3972  1.8431  1.2851
14394TIP3    H264598   0.272   1.168   0.701  1.2434  1.5512 -1.1135
14395TIP3   OH264599   6.182   1.468   5.611  0.2770  0.2122 -0.1550
14395TIP3    H164600   6.266   1.422   5.608 -0.2473 -0.7210 -1.5842
14395TIP3    H264601   6.164   1.479   5.705  0.5684 -2.2767  0.2598
14396TIP3   OH264602   3.714   0.830   1.032  0.4221  0.2976 -0.5155
14396TIP3    H164603   3.628   0.872   1.024 -0.7487 -2.2254 -3.4118
14396TIP3    H264604   3.756   0.874   1.106 -3.4013  1.5284  1.1581
14397TIP3   OH264605   2.719   1.974  13.868 -0.3288  0.3720 -0.0681
14397TIP3    H164606   2.628   1.943  13.860 -1.0208  2.0329  0.9108
14397TIP3    H264607   2.711   2.065  13.897  1.6470  0.9959 -1.3030
14398TIP3   OH264608   5.297   4.794   2.251  0.3718 -0.8147 -0.0655
14398TIP3    H164609   5.220   4.780   2.305  0.6694 -0.1715  0.5440
14398TIP3    H264610   5.266   4.783   2.161 -1.1147  2.1421 -0.0543
14399TIP3   OH264611   1.402   3.661   5.083 -0.0846 -0.0403 -0.1941
14399TIP3    H164612   1.317   3.674   5.124 -0.3149 -2.4073  0.2549
14399TIP3    H264613   1.439   3.585   5.129  1.2200 -0.5389 -1.9579
14400TIP3   OH264614   2.505   5.491   1.872 -0.3334  0.5181  0.0004
14400TIP3    H164615   2.413   5.487   1.896 -0.1460 -1.2496  0.6485
14400TIP3    H264616   2.551   5.496   1.956  0.1657  1.8523 -0.3321
14401TIP3   OH264617   1.562   6.759  12.206  0.0808 -0.6722  0.4378
14401TIP3    H164618   1.477   6.721  12.183 -0.8580  1.1759  0.7040
14401TIP3    H264619   1.609   6.764  12.122 -1.1134  0.7021 -0.1969
14402TIP3   OH264620   0.227   4.415   3.263 -0.5417  0.1538 -0.5367
14402TIP3    H164621   0.193   4.479   3.200  1.3427 -0.2252 -2.0617
14402TIP3    H264622   0.220   4.331   3.217  0.8475 -0.1336 -0.2681
14403TIP3   OH264623   3.623   0.149  17.150 -0.3101  0.0944  0.2017
14403TIP3    H164624   3.673   0.221  17.110  0.7169 -1.8111 -2.2043
14403TIP3    H264625   3.532   0.170  17.130 -0.1378  1.2686  0.5430
14404TIP3   OH264626   4.744   5.250  14.038  0.0682  0.0378 -0.8698
14404TIP3    H164627   4.721   5.334  13.999  1.6146  0.6530 -0.5223
14404TIP3    H264628   4.838   5.256  14.056 -0.4868 -0.1485  3.0370
14405TIP3   OH264629   4.289   1.401   5.010 -0.0740 -0.1707  0.5652
14405TIP3    H164630   4.239   1.481   5.023 -2.8713 -0.5626 -5.0188
14405TIP3    H264631   4.376   1.431   4.985  0.0220  0.8672  2.0248
14406TIP3   OH264632   0.141   3.635  11.565 -0.4849  0.3133  0.3766
14406TIP3    H164633   0.185   3.667  11.487 -1.3279 -0.5631 -0.4918
14406TIP3    H264634   0.075   3.573  11.532 -2.6373  1.8386  1.5738
14407TIP3   OH264635   0.725   2.653   4.793 -0.9265 -0.2234  0.4634
14407TIP3    H164636   0.768   2.709   4.728 -0.4908  0.6413  1.4552
14407TIP3    H264637   0.647   2.619   4.749 -0.0035 -0.6491 -0.8985
14408TIP3   OH264638   0.613   2.204  14.445 -0.3258  0.0417  0.1589
14408TIP3    H164639   0.608   2.177  14.537 -0.7901  0.7760  0.3579
14408TIP3    H264640   0.654   2.290  14.447  2.5198 -1.1710 -0.5885
14409TIP3   OH264641   1.529   0.910   1.417  0.1235  0.2148 -0.3931
14409TIP3    H164642   1.458   0.901   1.481  0.6113 -0.7302  0.0311
14409TIP3    H264643   1.584   0.833   1.431  0.4972  0.2317 -1.6352
14410TIP3   OH264644   2.196   3.833  11.348  0.5974  0.3075  0.6093
14410TIP3    H164645   2.273   3.807  11.399  0.6093 -0.5937  0.1552
14410TIP3    H264646   2.203   3.783  11.267 -0.2841  0.4815  0.4133
14411TIP3   OH264647   6.233   2.729  12.967 -0.3259 -0.8153  0.7650
14411TIP3    H164648   6.284   2.772  13.036 -0.4781  0.6327  0.0312
14411TIP3    H264649   6.148   2.713  13.006 -0.8982  1.3229  0.5491
14412TIP3   OH264650   1.947   6.549   1.785  0.0866 -0.3006 -0.0819
14412TIP3    H164651   1.901   6.509   1.859 -0.2185 -0.0409 -0.1333
14412TIP3    H264652   1.901   6.516   1.708  0.7087 -0.9613 -0.1800
14413TIP3   OH264653   3.375   5.439   4.807 -0.0831  0.0675  0.0460
14413TIP3    H164654   3.393   5.377   4.878 -1.6121  0.0818  0.4770
14413TIP3    H264655   3.280   5.454   4.812  0.3424  3.1681  0.5506
14414TIP3   OH264656   4.722   3.172   4.142 -0.4941 -0.0318 -0.2129
14414TIP3    H164657   4.710   3.239   4.075  1.7219 -0.1233 -0.7769
14414TIP3    H264658   4.652   3.189   4.205 -3.1170 -0.4063 -2.8401
14415TIP3   OH264659   1.007   4.600  14.153  0.2098  0.3054  0.0535
14415TIP3    H164660   1.050   4.545  14.087 -1.7771 -0.0626 -1.0041
14415TIP3    H264661   0.913   4.590  14.136 -0.3151  1.5440  1.8786
14416TIP3   OH264662   2.642   5.342  14.443  0.7692  0.6866 -0.4327
14416TIP3    H164663   2.558   5.331  14.398  0.5845  0.8876 -0.1372
14416TIP3    H264664   2.644   5.435  14.466  1.2964  0.7918 -0.8822
14417TIP3   OH264665   5.167   3.910   4.769 -0.5856  0.2296 -0.0318
14417TIP3    H164666   5.152   3.825   4.811  0.1304  0.0684 -0.0817
14417TIP3    H264667   5.141   3.975   4.835  0.2874 -0.0219  0.5848
14418TIP3   OH264668   5.505   3.729   1.721  0.3050  0.4438  0.6939
14418TIP3    H164669   5.431   3.757   1.774  0.3906  1.1990  0.4239
14418TIP3    H264670   5.491   3.770   1.635 -0.8597 -2.2872 -0.5527
14419TIP3   OH264671   0.864   0.880  16.205 -0.0742  0.4822 -0.1578
14419TIP3    H164672   0.879   0.926  16.122  1.6561 -0.3185 -0.3228
14419TIP3    H264673   0.952   0.868  16.242 -0.4787 -2.2490  0.1120
14420TIP3   OH264674   2.212   4.945  13.183 -0.5155  0.0717 -0.2517
14420TIP3    H164675   2.222   4.890  13.106 -2.3855 -0.0361 -0.4544
14420TIP3    H264676   2.262   4.900  13.251 -0.6051 -0.9711 -0.8545
14421TIP3   OH264677   0.082   0.862   0.581 -0.4707 -0.4209 -0.3797
14421TIP3    H164678   0.032   0.942   0.599  1.3684  1.2641 -2.1964
14421TIP3    H264679   0.073   0.810   0.661 -1.5371  1.7161  1.0082
14422TIP3   OH264680   2.902   3.996   4.296  0.1496  0.3065 -0.3796
14422TIP3    H164681   2.947   3.923   4.339 -0.0937 -0.6283 -1.6518
14422TIP3    H264682   2.818   3.958   4.268 -0.6475  1.5063  0.3072
14423TIP3   OH264683   5.540   3.327  17.143  0.5359 -0.1357  0.5339
14423TIP3    H164684   5.596   3.303  17.070  0.9810  0.7985  0.5509
14423TIP3    H264685   5.478   3.390  17.106  0.9213  0.5402  0.9957
14424TIP3   OH264686   5.293   6.293   3.063  0.2089 -0.0867  0.2064
14424TIP3    H164687   5.258   6.301   3.152 -2.8950  1.3033 -1.0202
14424TIP3    H264688   5.299   6.199   3.048  0.9956 -0.3505  1.9048
14425TIP3   OH264689   4.922   4.372   2.397  0.7890  0.3395  0.8105
14425TIP3    H164690   4.912   4.317   2.475 -0.6459  0.7697  0.9652
14425TIP3    H264691   4.845   4.429   2.398 -0.4222 -1.0697 -2.0333
14426TIP3   OH264692   1.399   5.656  16.116  0.5618 -0.4081 -0.1023
14426TIP3    H164693   1.438   5.598  16.182  0.9730 -1.7013 -1.4225
14426TIP3    H264694   1.306   5.660  16.140  0.7604 -0.5874  0.7335
14427TIP3   OH264695   3.357   4.062   0.769 -0.2007  0.2491  0.0769
14427TIP3    H164696   3.365   4.060   0.673  0.7336  0.1203  0.1447
14427TIP3    H264697   3.419   4.129   0.796 -0.8214  0.6322  0.5708
14428TIP3   OH264698   0.348   2.157   0.075  0.3998 -0.3030  0.6089
14428TIP3    H164699   0.354   2.239   0.124 -0.9927  2.0666 -2.7920
14428TIP3    H264700   0.384   2.177  -0.011  1.3958 -3.7920  0.0540
14429TIP3   OH264701   4.230   2.446  16.814 -0.6335 -0.1727 -0.3190
14429TIP3    H164702   4.150   2.496  16.826 -0.0184  0.5688  0.9061
14429TIP3    H264703   4.300   2.512  16.817  0.0172 -0.7580 -1.7124
14430TIP3   OH264704   5.275   5.610   1.804 -0.2024 -0.0700 -0.6716
14430TIP3    H164705   5.364   5.631   1.774 -1.0540  1.9861 -1.9755
14430TIP3    H264706   5.260   5.669   1.878 -0.7338  0.0946 -0.9085
14431TIP3   OH264707   5.703   6.359  14.170 -0.2986  0.6853 -0.4478
14431TIP3    H164708   5.737   6.396  14.252 -3.2411 -0.3428  1.4007
14431TIP3    H264709   5.737   6.417  14.102  1.3621  2.2701  1.5837
14432TIP3   OH264710   4.965   2.998   4.752 -0.4515  0.0777 -0.4776
14432TIP3    H164711   4.954   3.090   4.776  0.8448  0.6745 -1.9642
14432TIP3    H264712   5.017   3.001   4.671  0.5419 -2.0003  0.0254
14433TIP3   OH264713   0.222   3.032  11.260 -0.6463  0.1704  0.1799
14433TIP3    H164714   0.264   3.115  11.239 -1.1286  0.2697 -0.3998
14433TIP3    H264715   0.268   2.968  11.206 -1.0920  0.2455 -0.2879
14434TIP3   OH264716   1.183   6.157  17.136 -0.1581  0.0325  0.3337
14434TIP3    H164717   1.246   6.220  17.102  0.6101 -0.6338  0.4907
14434TIP3    H264718   1.101   6.176  17.090  0.7739 -0.6682 -1.7114
14435TIP3   OH264719   5.056   2.900   0.602 -0.6948  0.1906 -0.3266
14435TIP3    H164720   4.988   2.882   0.537  0.0125 -0.8308 -0.8191
14435TIP3    H264721   5.086   2.813   0.629  0.2162  0.6240  0.0865
14436TIP3   OH264722   2.380   0.436   2.427 -0.0911 -0.8426 -0.5833
14436TIP3    H164723   2.322   0.433   2.502 -0.8270  0.0343 -1.0919
14436TIP3    H264724   2.447   0.500   2.450 -0.5341 -0.2888 -0.8110
14437TIP3   OH264725   0.613   4.767   2.286 -0.2405 -0.3824 -0.2422
14437TIP3    H164726   0.533   4.792   2.241  1.5910  0.4726 -3.3335
14437TIP3    H264727   0.639   4.684   2.246  0.2216 -0.8610  0.9993
14438TIP3   OH264728   5.320   5.016   3.707  0.3145 -0.2747  0.3996
14438TIP3    H164729   5.376   5.093   3.714  0.9026 -0.5879 -0.6730
14438TIP3    H264730   5.314   4.999   3.613 -1.9846  0.0307  0.4303
14439TIP3   OH264731   0.530   6.593  13.075 -0.1135 -0.0029 -0.1074
14439TIP3    H164732   0.561   6.534  13.007 -2.0215 -0.5333 -0.5972
14439TIP3    H264733   0.494   6.535  13.143  0.9619  0.5413  0.9572
14440TIP3   OH264734   2.892   3.684   1.483  0.4285  0.1191  0.1639
14440TIP3    H164735   2.959   3.708   1.420 -1.4562  0.3590 -1.8656
14440TIP3    H264736   2.871   3.766   1.528 -0.1115  0.5471 -0.8417
14441TIP3   OH264737   4.198   2.165  10.850 -0.1115 -0.1378 -0.0841
14441TIP3    H164738   4.221   2.144  10.941 -0.0294  0.6157  0.0767
14441TIP3    H264739   4.189   2.260  10.849  2.6581  0.2114 -1.4781
14442TIP3   OH264740   1.020   1.670  12.863  0.7569 -0.3087  0.4910
14442TIP3    H164741   1.103   1.634  12.833  0.4403 -1.3788  0.8545
14442TIP3    H264742   1.029   1.675  12.958  0.3304 -0.6426  0.5538
14443TIP3   OH264743   1.063   4.157   5.617  0.0501  0.7611  0.5305
14443TIP3    H164744   0.998   4.100   5.576  0.2225  0.0812  1.1880
14443TIP3    H264745   1.012   4.219   5.669 -0.0731 -0.0655  1.4214
14444TIP3   OH264746   6.617   3.792  16.427 -0.6793 -0.2030 -0.0099
14444TIP3    H164747   6.689   3.848  16.456  0.5832 -1.8977  0.2634
14444TIP3    H264748   6.602   3.817  16.336  0.1363  0.2914 -0.0153
14445TIP3   OH264749   2.945   1.463   2.711 -0.4367 -0.0050 -0.5467
14445TIP3    H164750   3.025   1.411   2.711 -0.3940  0.0606 -0.5561
14445TIP3    H264751   2.891   1.424   2.643 -1.1611 -1.1952  0.6588
14446TIP3   OH264752   1.604   3.129  11.016 -0.1482 -0.2149 -0.3028
14446TIP3    H164753   1.679   3.184  11.037  0.5731 -1.6292  1.0498
14446TIP3    H264754   1.528   3.183  11.037  0.4939  0.7539 -0.3912
14447TIP3   OH264755   4.216   2.774  13.367  0.2720 -0.4899 -0.5587
14447TIP3    H164756   4.193   2.834  13.438  2.0378 -0.9728  0.4962
14447TIP3    H264757   4.139   2.718  13.357  0.1633 -0.7809  1.3988
14448TIP3   OH264758   1.134   4.318  11.126 -0.0530  0.1993  0.0113
14448TIP3    H164759   1.080   4.368  11.064 -0.8376 -0.2296  0.3317
14448TIP3    H264760   1.224   4.337  11.100 -0.3428  1.3998 -0.1803
14449TIP3   OH264761   1.211   1.182   2.813  0.3919  0.2632  0.0965
14449TIP3    H164762   1.305   1.173   2.832  0.3535 -0.3986 -0.0191
14449TIP3    H264763   1.170   1.113   2.864 -0.1364  1.1261  0.8705
14450TIP3   OH264764   0.691   0.199  16.174 -0.1162 -0.0170 -0.4337
14450TIP3    H164765   0.781   0.223  16.196  0.2140 -0.5251 -1.1794
14450TIP3    H264766   0.649   0.282  16.153  0.5737  0.0949 -1.4356
14451TIP3   OH264767   6.350   0.532  14.117 -0.5741 -0.0829 -0.5920
14451TIP3    H164768   6.314   0.450  14.151 -1.3928  0.1212 -0.9376
14451TIP3    H264769   6.275   0.576  14.077 -0.6567  1.9218  1.5887
14452TIP3   OH264770   6.531   0.811   3.582  0.1689 -0.0928  0.7415
14452TIP3    H164771   6.570   0.724   3.577 -1.4510 -0.8137 -0.1925
14452TIP3    H264772   6.605   0.871   3.578  1.1772 -1.3670 -1.6592
14453TIP3   OH264773   5.128   5.821   1.638 -0.2830  0.0639  0.7917
14453TIP3    H164774   5.204   5.778   1.677 -1.1765 -4.4468 -1.6762
14453TIP3    H264775   5.053   5.788   1.689 -0.9389 -0.6905 -0.5964
14454TIP3   OH264776   2.830   2.063   1.036 -0.3776  0.2601 -0.0788
14454TIP3    H164777   2.832   2.145   0.987  2.6920 -0.0648 -0.7338
14454TIP3    H264778   2.877   2.082   1.117 -0.2972 -0.6529  0.0990
14455TIP3   OH264779   6.009   3.025  12.508  0.0487  0.1844 -0.2935
14455TIP3    H164780   6.052   2.993  12.587  2.2641  0.8692 -1.1562
14455TIP3    H264781   5.985   2.945  12.460  0.5863 -0.2110  0.0903
14456TIP3   OH264782   0.465   4.590   1.357 -0.5377  0.5433 -0.6196
14456TIP3    H164783   0.389   4.534   1.340 -0.8663  1.2063 -1.4443
14456TIP3    H264784   0.538   4.546   1.314 -0.0209 -1.0174  1.6445
14457TIP3   OH264785   4.849   6.155   0.116 -0.3747  0.2568  0.7826
14457TIP3    H164786   4.797   6.226   0.154  0.5305  0.0148  2.5809
14457TIP3    H264787   4.932   6.159   0.163 -0.0651 -1.5960  0.4691
14458TIP3   OH264788   2.481   5.790  14.707  0.3962  0.4169 -0.1819
14458TIP3    H164789   2.522   5.784  14.793  0.7453  0.2692 -0.3518
14458TIP3    H264790   2.515   5.872  14.670  2.3938 -0.8029 -1.2346
14459TIP3   OH264791   4.519   1.252   3.857  0.1786 -0.0237  0.9702
14459TIP3    H164792   4.550   1.274   3.944  2.5993  0.6228  0.0245
14459TIP3    H264793   4.535   1.331   3.805  0.7278 -1.0527 -0.5011
14460TIP3   OH264794   2.825   1.317  15.402 -0.4860 -0.0291  0.3290
14460TIP3    H164795   2.839   1.409  15.379 -1.1540 -0.0505 -0.1929
14460TIP3    H264796   2.820   1.272  15.318 -1.6380 -0.3108  0.5422
14461TIP3   OH264797   2.828   1.010  12.290 -0.2369  0.3676 -0.1824
14461TIP3    H164798   2.892   0.945  12.260  0.4666  0.8583  0.2408
14461TIP3    H264799   2.878   1.090  12.300 -1.3109  1.3028 -1.8040
14462TIP3   OH264800   3.048   3.063   0.487 -0.0694  0.3433  0.6252
14462TIP3    H164801   3.102   2.997   0.531  0.0594  1.2984  1.9479
14462TIP3    H264802   3.026   3.126   0.555 -1.1877  1.0507 -0.3481
14463TIP3   OH264803   6.684   0.853  13.657  0.1635 -0.5894  0.7100
14463TIP3    H164804   6.612   0.828  13.715  0.0824 -0.1738  0.7911
14463TIP3    H264805   6.725   0.770  13.633 -0.3761 -0.8334  0.6178
14464TIP3   OH264806   1.270   5.666   5.202 -0.5479 -0.4555 -0.2068
14464TIP3    H164807   1.211   5.630   5.135  1.1603 -1.8591 -1.0131
14464TIP3    H264808   1.321   5.592   5.231  0.7181  0.7004  0.6016
14465TIP3   OH264809   6.187   0.390   3.485 -0.2641 -0.3145 -0.3333
14465TIP3    H164810   6.209   0.304   3.520 -1.0547 -0.0957  0.7412
14465TIP3    H264811   6.093   0.399   3.501  0.0254  1.2556  0.6953
14466TIP3   OH264812   5.888   0.546   4.258  0.2351 -0.4006  0.3238
14466TIP3    H164813   5.854   0.591   4.335 -0.1194  1.3314 -0.7698
14466TIP3    H264814   5.814   0.492   4.227  0.0631 -0.3523  0.6445
14467TIP3   OH264815   3.828   4.013  13.222  0.0836  0.2267  0.2209
14467TIP3    H164816   3.753   4.073  13.231  1.1874  1.9927 -1.4215
14467TIP3    H264817   3.862   4.030  13.134  1.6642 -1.4390  0.4431
14468TIP3   OH264818   3.004   0.354  15.831  0.3353 -0.0201 -0.0285
14468TIP3    H164819   3.045   0.271  15.853 -2.4207 -1.5662 -0.2829
14468TIP3    H264820   2.942   0.370  15.902  1.0609  2.0648  0.2098
14469TIP3   OH264821   0.073   1.295  11.696 -0.2681  0.2688  0.1193
14469TIP3    H164822   0.116   1.209  11.693 -0.6311  0.0681 -2.9104
14469TIP3    H264823   0.144   1.358  11.685 -0.2202  0.2596  0.3604
14470TIP3   OH264824   4.286   4.724   6.256 -0.4406 -0.2510  0.4531
14470TIP3    H164825   4.247   4.744   6.341  0.6402  0.3831  0.8228
14470TIP3    H264826   4.379   4.710   6.274 -0.4888 -1.8791 -0.3843
14471TIP3   OH264827   4.892   4.930   0.812  0.0641  0.1319 -0.2076
14471TIP3    H164828   4.819   4.962   0.865 -0.0780 -1.6700  0.7638
14471TIP3    H264829   4.851   4.878   0.743  0.1961  3.0382 -2.6838
14472TIP3   OH264830   1.414   5.377   3.351  0.5891 -0.3877  0.1679
14472TIP3    H164831   1.508   5.374   3.371  0.6959  1.2786  0.0414
14472TIP3    H264832   1.376   5.306   3.403  1.8478 -0.7611  0.6142
14473TIP3   OH264833   0.022   4.001   0.512 -0.3003  0.1998  0.8672
14473TIP3    H164834  -0.062   4.026   0.549  0.0810  0.7155  1.4104
14473TIP3    H264835   0.022   4.038   0.423  0.1896  2.0703  1.5941
14474TIP3   OH264836   1.465   2.429  12.135  0.3148 -0.2116  0.1159
14474TIP3    H164837   1.440   2.474  12.054 -0.2678 -0.3513  0.2128
14474TIP3    H264838   1.526   2.488  12.178  0.1192  0.1548 -0.1073
14475TIP3   OH264839   6.028   5.472   0.804  0.1630  0.2197 -0.3320
14475TIP3    H164840   6.100   5.411   0.788  2.7589  2.8598  0.6514
14475TIP3    H264841   6.029   5.487   0.898 -2.5846 -0.5692 -0.0705
14476TIP3   OH264842   1.705   0.082  17.175 -0.3211 -0.3686  0.2992
14476TIP3    H164843   1.684   0.002  17.127  1.3620 -0.2837 -0.6674
14476TIP3    H264844   1.678   0.153  17.116  1.2297 -0.2639 -0.3312
14477TIP3   OH264845   0.565   6.219  10.396  0.5739  0.4718  0.1608
14477TIP3    H164846   0.592   6.200  10.306 -0.9829 -1.7199  0.0587
14477TIP3    H264847   0.647   6.234  10.443  1.6228 -0.9613 -1.1068
14478TIP3   OH264848   2.155   5.521   2.144  0.2813  0.0831  0.4461
14478TIP3    H164849   2.071   5.567   2.138 -0.2586 -1.0036 -0.7769
14478TIP3    H264850   2.167   5.481   2.058  2.2216  0.4651  0.4938
14479TIP3   OH264851   2.919   2.918  11.696 -0.5073 -0.1258  0.5532
14479TIP3    H164852   3.014   2.920  11.713 -0.4966  2.9123  0.8053
14479TIP3    H264853   2.908   2.851  11.629  2.2666  1.2039 -1.4792
14480TIP3   OH264854   1.789   6.613  15.701  0.1445  0.5013 -0.1658
14480TIP3    H164855   1.817   6.671  15.631 -0.2724 -1.0123 -1.6359
14480TIP3    H264856   1.810   6.525  15.670 -1.3088 -0.3091  0.9956
14481TIP3   OH264857   5.302   2.027   5.827 -0.3973 -0.3322  0.1613
14481TIP3    H164858   5.367   1.982   5.774 -0.1444 -0.3786  0.5082
14481TIP3    H264859   5.300   1.978   5.909 -0.5012 -0.0243  0.3442
14482TIP3   OH264860   3.132   4.816  16.855  0.3566  0.2303 -0.2533
14482TIP3    H164861   3.218   4.858  16.856 -0.0302  1.1059  1.5393
14482TIP3    H264862   3.146   4.731  16.895  0.3930  0.4182  0.1433
14483TIP3   OH264863   6.771   2.330   0.072  0.3356  0.0108 -0.0831
14483TIP3    H164864   6.746   2.421   0.090 -2.9363 -0.9117  0.7064
14483TIP3    H264865   6.761   2.321  -0.023 -0.7520  0.1466  0.0065
14484TIP3   OH264866   5.399   1.759   1.350  0.3634 -0.0383 -0.2794
14484TIP3    H164867   5.327   1.742   1.412  1.0706 -1.6312  0.1620
14484TIP3    H264868   5.392   1.853   1.331 -1.4700 -0.0234  0.1905
14485TIP3   OH264869   1.628   0.587   5.727  0.2546  0.3003  0.2241
14485TIP3    H164870   1.669   0.673   5.713  0.5030  0.1777  0.1929
14485TIP3    H264871   1.542   0.608   5.765  0.2452  0.5684  0.0618
14486TIP3   OH264872   3.387   2.756   3.700 -0.2807 -0.1872 -0.0247
14486TIP3    H164873   3.447   2.708   3.644 -1.1456  0.8493 -1.9263
14486TIP3    H264874   3.435   2.768   3.782  1.7662 -0.1385 -1.1657
14487TIP3   OH264875   1.174   4.348   1.873 -0.0819  0.2115  0.4628
14487TIP3    H164876   1.091   4.338   1.922  0.4225 -0.4137  1.2163
14487TIP3    H264877   1.238   4.369   1.941  0.9768 -2.3452  0.3605
14488TIP3   OH264878   3.239   0.772   5.514  0.0057 -0.2871  0.3093
14488TIP3    H164879   3.216   0.837   5.580 -1.8785  0.4796 -1.0023
14488TIP3    H264880   3.245   0.822   5.433  0.3239 -1.4786 -0.4214
14489TIP3   OH264881   6.107   2.466  12.875  0.2037  0.0516 -0.2518
14489TIP3    H164882   6.033   2.460  12.814 -0.9959  0.5787  1.0673
14489TIP3    H264883   6.160   2.538  12.842 -0.5809  0.5143 -0.5427
14490TIP3   OH264884   5.583   6.243   1.329 -0.1320  0.0858 -0.3987
14490TIP3    H164885   5.566   6.290   1.411  1.8980  0.8389 -0.3449
14490TIP3    H264886   5.677   6.257   1.312 -0.7354  1.1671 -3.5883
14491TIP3   OH264887   4.522   2.238   1.233  0.0088  0.1972 -0.5666
14491TIP3    H164888   4.575   2.160   1.250 -2.0189 -0.8739  1.2793
14491TIP3    H264889   4.584   2.311   1.242  1.4397 -1.0603  0.3229
14492TIP3   OH264890   2.982   4.620  16.088 -0.0950 -0.2253  0.4362
14492TIP3    H164891   2.900   4.668  16.099  0.3605  0.2163  2.2158
14492TIP3    H264892   3.020   4.656  16.007 -2.1627 -1.2782 -1.0836
14493TIP3   OH264893   0.864   1.781   0.149 -0.2840 -0.2636  0.0546
14493TIP3    H164894   0.865   1.715   0.080  0.2194  1.4068 -1.6417
14493TIP3    H264895   0.808   1.850   0.114 -0.2691  0.4995  1.4734
14494TIP3   OH264896   5.799   2.199  16.868 -0.2734 -0.1880 -1.0920
14494TIP3    H164897   5.764   2.215  16.956  1.3746 -1.6054 -0.1077
14494TIP3    H264898   5.765   2.272  16.815  0.2624  1.8331  1.1577
14495TIP3   OH264899   3.982   1.275   4.548  0.0591 -0.2212  0.4131
14495TIP3    H164900   3.901   1.240   4.587 -0.8893  1.4942  0.0830
14495TIP3    H264901   4.043   1.281   4.621 -1.1664  1.4106  1.3699
14496TIP3   OH264902   5.350   5.702  10.614  0.8757  0.2087  0.0101
14496TIP3    H164903   5.409   5.657  10.554  1.9449 -0.9208  1.8100
14496TIP3    H264904   5.377   5.793  10.612  0.5200  0.3051 -1.5988
14497TIP3   OH264905   3.493   4.745  16.377 -0.2624 -0.3543 -0.0726
14497TIP3    H164906   3.552   4.729  16.451 -1.3189  0.3354  0.9399
14497TIP3    H264907   3.534   4.699  16.304  0.0611 -2.2995  1.2548
14498TIP3   OH264908   6.229   3.391  15.051 -0.1472 -0.0581 -0.5711
14498TIP3    H164909   6.322   3.367  15.039 -0.1061  0.0108 -0.3910
14498TIP3    H264910   6.215   3.463  14.990 -0.2657 -0.5269 -1.1049
14499TIP3   OH264911   5.256   2.301   0.531  0.3335 -0.2781  0.4583
14499TIP3    H164912   5.239   2.208   0.548 -1.0472  0.0992  1.3043
14499TIP3    H264913   5.187   2.347   0.579  0.4686  1.1575 -0.6662
14500TIP3   OH264914   0.039   1.014  13.810 -0.4807 -0.0238 -0.3400
14500TIP3    H164915  -0.003   1.099  13.826  0.0144  0.7687 -2.7890
14500TIP3    H264916  -0.029   0.961  13.768 -0.5328 -0.5452  0.3931
14501TIP3   OH264917   2.311   3.452  12.357 -0.4852  0.2753  0.0919
14501TIP3    H164918   2.296   3.419  12.445 -0.4104 -1.5361 -0.5262
14501TIP3    H264919   2.242   3.518  12.343  0.1621  1.3756  1.8501
14502TIP3   OH264920   0.226   1.141   5.169 -0.4631  0.2971 -0.6339
14502TIP3    H164921   0.220   1.164   5.262  0.8796  2.3741 -0.9946
14502TIP3    H264922   0.188   1.053   5.164 -1.3607  0.4662  1.7225
14503TIP3   OH264923   3.789   2.112  16.205 -0.0491 -0.1645  0.5897
14503TIP3    H164924   3.812   2.173  16.275 -0.6270  0.1173  0.5397
14503TIP3    H264925   3.804   2.025  16.244  0.2388 -0.0022  0.8472
14504TIP3   OH264926   5.461   3.729  14.226 -0.0449  0.2031 -0.1199
14504TIP3    H164927   5.442   3.817  14.260 -0.0606  0.3360 -0.4620
14504TIP3    H264928   5.476   3.676  14.303 -0.7783  0.3385  0.1211
14505TIP3   OH264929   0.390   1.459   5.715 -0.0549 -0.4002  0.1730
14505TIP3    H164930   0.438   1.480   5.795 -0.8562 -0.3961  0.6571
14505TIP3    H264931   0.417   1.526   5.652  1.7175 -1.2606 -0.0383
14506TIP3   OH264932   5.080   6.708  12.332 -0.5328  0.4434  0.1234
14506TIP3    H164933   5.035   6.760  12.266 -1.0048 -1.1831 -0.8981
14506TIP3    H264934   5.026   6.630  12.342  0.3761 -0.0704  1.2722
14507TIP3   OH264935   3.349   2.156  17.013  0.5324  0.7582  0.2144
14507TIP3    H164936   3.386   2.144  17.100  0.3798  0.3548  0.2257
14507TIP3    H264937   3.378   2.243  16.986  0.8612  0.7453  0.5288
14508TIP3   OH264938   3.219   4.309   2.003  0.3633 -0.4145 -0.2931
14508TIP3    H164939   3.147   4.341   1.948  0.6239 -0.7242 -0.8223
14508TIP3    H264940   3.234   4.379   2.066 -1.1864 -0.8281  0.5821
14509TIP3   OH264941   1.088   6.742  16.359 -0.2390 -0.1903 -0.1476
14509TIP3    H164942   1.015   6.730  16.299 -1.1582 -0.7792  1.0399
14509TIP3    H264943   1.053   6.795  16.430  0.9166  0.7710 -0.2516
14510TIP3   OH264944   3.507   5.186   4.297  0.0363 -0.2102 -0.0557
14510TIP3    H164945   3.497   5.235   4.379  0.4957  1.3204 -0.8777
14510TIP3    H264946   3.481   5.248   4.229  0.3633 -1.2204 -1.1278
14511TIP3   OH264947   6.042   4.791  12.310 -0.0808 -0.0343  0.2443
14511TIP3    H164948   6.048   4.718  12.371  0.0270 -1.5567 -1.5222
14511TIP3    H264949   5.957   4.832  12.330  0.2819 -0.0231  1.8808
14512TIP3   OH264950   0.918   4.216   5.010 -0.3396 -0.3253  0.1240
14512TIP3    H164951   1.001   4.185   4.975 -1.3865 -1.3084 -1.6677
14512TIP3    H264952   0.893   4.150   5.075  0.2250 -0.0674  0.6101
14513TIP3   OH264953   4.346   4.298  12.769  0.6461  0.0733 -0.4178
14513TIP3    H164954   4.315   4.208  12.782  2.1365 -0.5730 -1.0658
14513TIP3    H264955   4.388   4.320  12.852  0.7353 -0.0297 -0.4348
14514TIP3   OH264956   6.154   5.743   5.531 -0.0861 -0.1502 -0.3315
14514TIP3    H164957   6.222   5.683   5.501  1.4176  1.2160  0.2026
14514TIP3    H264958   6.185   5.774   5.616 -2.4719 -1.1533  1.0107
14515TIP3   OH264959   5.469   3.529  11.870  0.1725  0.3899  0.3472
14515TIP3    H164960   5.520   3.572  11.801  0.3447  0.7702  0.7114
14515TIP3    H264961   5.532   3.511  11.940  0.4738 -1.9187 -0.4085
14516TIP3   OH264962   6.307   0.762  14.317  0.3608 -0.1142 -0.0231
14516TIP3    H164963   6.215   0.737  14.315  0.4022 -0.2790 -2.3606
14516TIP3    H264964   6.353   0.690  14.274  1.2947  0.9510 -0.8963
14517TIP3   OH264965   3.109   2.419   4.468 -0.5198 -0.0739  0.9680
14517TIP3    H164966   3.087   2.459   4.553 -0.6886 -2.5962  2.2095
14517TIP3    H264967   3.195   2.455   4.446 -0.6002  0.8494  2.0438
14518TIP3   OH264968   1.296   0.714  13.593  0.5643  0.3066  0.4675
14518TIP3    H164969   1.264   0.731  13.682  2.2558 -1.7063  1.5564
14518TIP3    H264970   1.271   0.792  13.543 -0.2758  1.5923  2.7396
14519TIP3   OH264971   0.304   5.163  16.599  0.4310  0.6638  0.1425
14519TIP3    H164972   0.365   5.104  16.556 -0.5480  0.7702 -1.4622
14519TIP3    H264973   0.218   5.135  16.569 -0.0672  2.8204 -0.6129
14520TIP3   OH264974   1.354   0.317   6.632  0.6144  0.4846  1.0968
14520TIP3    H164975   1.276   0.291   6.681  0.0776  1.1892  0.6448
14520TIP3    H264976   1.319   0.365   6.557  1.4822  0.6296  0.7824
14521TIP3   OH264977   4.948   4.907  17.001  0.5610 -0.3318  0.0722
14521TIP3    H164978   5.014   4.838  16.997  0.4452 -0.6693  2.4350
14521TIP3    H264979   4.956   4.942  17.089 -0.2303  1.8686 -0.6621
14522TIP3   OH264980   5.141   1.098   1.310 -0.1139 -0.4392  0.5273
14522TIP3    H164981   5.090   1.063   1.384  0.2224 -0.5448  0.7122
14522TIP3    H264982   5.132   1.032   1.242  0.3951 -0.8217  0.8244
14523TIP3   OH264983   4.038   0.724  10.888 -0.7493 -0.7388 -0.1255
14523TIP3    H164984   3.992   0.781  10.949 -1.7262 -1.3622 -0.2431
14523TIP3    H264985   4.092   0.783  10.835 -1.9239  0.1237 -0.4177
14524TIP3   OH264986   4.900   2.371  13.642 -0.6789 -0.2250 -0.1828
14524TIP3    H164987   4.890   2.285  13.683  0.4767 -1.3157 -2.0220
14524TIP3    H264988   4.887   2.355  13.548 -0.5169  1.6285 -0.5719
14525TIP3   OH264989   0.791   5.504   3.793  0.4618  0.1484 -0.2111
14525TIP3    H164990   0.749   5.426   3.830  0.4912  0.1592 -0.1559
14525TIP3    H264991   0.873   5.512   3.841 -0.4194  1.3461  1.1700
14526TIP3   OH264992   5.026   6.281   0.279  0.5424  0.7905 -0.0566
14526TIP3    H164993   5.101   6.259   0.335  1.8692 -0.6019 -2.2619
14526TIP3    H264994   5.043   6.371   0.252  2.0944  0.1537 -1.4113
14527TIP3   OH264995   2.363   0.620   0.941  0.2594  0.7455  0.3501
14527TIP3    H164996   2.313   0.538   0.941  3.8527 -1.7453 -2.1364
14527TIP3    H264997   2.314   0.678   0.883 -1.2131 -0.4291  0.3432
14528TIP3   OH264998   2.715   1.414  14.461 -0.4193 -0.2657 -0.3136
14528TIP3    H164999   2.664   1.440  14.384 -2.5007  0.9699  1.3875
14528TIP3    H265000   2.656   1.358  14.511 -0.0326  0.9090  1.5414
14529TIP3   OH265001   5.525   0.917  13.584 -0.2914 -0.2059 -0.0077
14529TIP3    H165002   5.531   0.834  13.631  1.3192 -1.2917 -1.9677
14529TIP3    H265003   5.481   0.976  13.645 -3.3802 -2.9839  0.7659
14530TIP3   OH265004   1.379   6.383  15.841 -0.0997 -0.4674  0.5963
14530TIP3    H165005   1.304   6.439  15.861 -1.2856 -1.7264 -0.0843
14530TIP3    H265006   1.370   6.364  15.747  0.7866 -1.0531  0.6143
14531TIP3   OH265007   5.448   4.784  16.682  0.0698  0.0594 -0.0813
14531TIP3    H165008   5.376   4.818  16.629 -1.4590 -1.1292  1.1390
14531TIP3    H265009   5.501   4.861  16.702 -0.5239  0.8748 -1.4639
14532TIP3   OH265010   5.862   4.100  14.060  0.3497 -0.6832 -0.1764
14532TIP3    H165011   5.873   4.046  14.138  0.9320 -0.3143  0.0084
14532TIP3    H265012   5.926   4.066  13.998  1.0969  0.1050  0.1283
14533TIP3   OH265013   2.715   3.457   3.084 -0.3202 -0.2849 -0.4574
14533TIP3    H165014   2.741   3.548   3.068 -1.0805 -0.3231 -2.1595
14533TIP3    H265015   2.793   3.406   3.063  0.3887 -0.0123  1.3547
14534TIP3   OH265016   1.950   5.647  12.059 -0.4587 -0.2970 -0.6161
14534TIP3    H165017   1.938   5.609  11.972 -0.2647  1.2015 -1.3278
14534TIP3    H265018   1.864   5.682  12.083 -0.1563  0.6563 -0.8892
14535TIP3   OH265019   6.357   5.934  14.292  0.5778  0.1231  0.1371
14535TIP3    H165020   6.295   5.940  14.219 -0.6666  0.3200  1.1621
14535TIP3    H265021   6.430   5.989  14.266  1.8014 -2.4689 -2.4393
14536TIP3   OH265022   2.921   0.313   3.922  0.0199 -0.0162 -0.5237
14536TIP3    H165023   2.848   0.365   3.957  0.4698  0.3332 -0.0828
14536TIP3    H265024   2.901   0.223   3.948 -1.0908 -0.1753 -1.8481
14537TIP3   OH265025   0.670   4.284   5.436  0.0108 -0.3574 -0.2867
14537TIP3    H165026   0.699   4.309   5.348  0.0001  0.7714  0.0212
14537TIP3    H265027   0.726   4.210   5.459  0.4801 -0.2259 -0.9719
14538TIP3   OH265028   3.829   2.070  13.917 -0.7589  0.1587 -0.4367
14538TIP3    H165029   3.887   2.066  13.841 -3.3077  1.4723 -2.5967
14538TIP3    H265030   3.846   2.156  13.956 -1.2164  0.5391 -1.0621
14539TIP3   OH265031   0.507   0.130  14.989  0.5485  0.2319 -0.2464
14539TIP3    H165032   0.588   0.145  14.940 -1.6101  0.6368 -4.1085
14539TIP3    H265033   0.496   0.210  15.041  2.0869  0.6185 -0.4674
14540TIP3   OH265034   5.502   1.855   0.567 -0.4325  0.3884  0.3773
14540TIP3    H165035   5.563   1.806   0.622 -1.5580 -0.7918  0.6335
14540TIP3    H265036   5.447   1.787   0.526 -0.6831  1.3388 -0.9139
14541TIP3   OH265037   4.101   1.905   0.106  0.5102  0.2047  0.0412
14541TIP3    H165038   4.021   1.955   0.119  1.3664  1.3745  1.0053
14541TIP3    H265039   4.139   1.941   0.027  0.5735  0.3185  0.1236
14542TIP3   OH265040   0.163   0.569   2.736 -0.3540  0.4150 -0.2304
14542TIP3    H165041   0.209   0.573   2.819  1.5205 -0.6609 -1.1544
14542TIP3    H265042   0.220   0.616   2.674 -1.4031  0.6504 -1.0520
14543TIP3   OH265043   3.308   4.525  13.589 -0.3999  0.0134  0.2065
14543TIP3    H165044   3.337   4.446  13.543 -1.9435 -1.3943  1.5028
14543TIP3    H265045   3.239   4.562  13.533 -1.6036 -1.1569  0.8568
14544TIP3   OH265046   5.618   4.223   5.739 -0.1673  0.2848  0.0222
14544TIP3    H165047   5.678   4.196   5.809  0.6495 -0.0947 -0.7979
14544TIP3    H265048   5.638   4.163   5.667 -0.0817  1.4854 -0.9761
14545TIP3   OH265049   4.837   1.934  15.605  0.4733 -0.2764 -0.1186
14545TIP3    H165050   4.752   1.978  15.609 -0.3977 -1.4223 -3.2138
14545TIP3    H265051   4.887   1.973  15.677 -1.5706  2.7322 -0.1292
14546TIP3   OH265052   4.264   3.486   1.146 -0.2436 -0.2303  0.3116
14546TIP3    H165053   4.254   3.581   1.136  1.9607  0.2305  1.8879
14546TIP3    H265054   4.250   3.470   1.240  1.1587 -1.1834  0.3882
14547TIP3   OH265055   4.593   2.029   3.806 -0.2364  0.0624 -0.2406
14547TIP3    H165056   4.605   2.116   3.843 -1.7871 -0.0606  0.6072
14547TIP3    H265057   4.499   2.018   3.798 -0.0368 -0.3336 -3.3125
14548TIP3   OH265058   6.706   2.658  13.928 -0.3268  0.3471 -0.2521
14548TIP3    H165059   6.633   2.719  13.927 -0.6862 -0.0852 -0.5802
14548TIP3    H265060   6.668   2.574  13.952  0.5836  0.7515  3.1597
14549TIP3   OH265061   5.464   1.351   0.210  0.2663  0.6302  0.2924
14549TIP3    H165062   5.504   1.285   0.266  1.7609  2.0808  1.0517
14549TIP3    H265063   5.510   1.344   0.126 -1.8044 -1.3787 -0.7699
14550TIP3   OH265064   6.105   1.631  14.574  0.3874 -0.4600 -0.5571
14550TIP3    H165065   6.157   1.575  14.517  0.6695 -1.0348  0.2477
14550TIP3    H265066   6.083   1.707  14.520  1.4571 -0.5402 -1.1261
14551TIP3   OH265067   0.460   2.321  13.437 -0.7921  0.1287  0.0843
14551TIP3    H165068   0.418   2.362  13.361  0.8058 -0.0422 -0.9501
14551TIP3    H265069   0.538   2.375  13.453  1.3987 -2.3952 -1.3226
14552TIP3   OH265070   1.139   0.905   2.820 -0.0894 -0.3054 -0.1067
14552TIP3    H165071   1.231   0.877   2.819  0.1995  0.6358 -0.4261
14552TIP3    H265072   1.117   0.918   2.728 -0.4022 -0.0808 -0.0006
14553TIP3   OH265073   4.260   0.717  12.743  0.4518  0.0057  0.2883
14553TIP3    H165074   4.336   0.664  12.767 -0.6041 -1.1434  1.2441
14553TIP3    H265075   4.200   0.656  12.700 -0.1472  0.7761  0.0021
14554TIP3   OH265076   0.924   4.727  14.724 -0.1038  0.1728 -0.0545
14554TIP3    H165077   0.909   4.725  14.819  2.3189 -1.0152  0.3909
14554TIP3    H265078   0.911   4.636  14.696  1.3082  0.0759 -0.4451
14555TIP3   OH265079   3.246   0.065   2.560 -0.0963  0.0698  0.1787
14555TIP3    H165080   3.214   0.106   2.479  1.4859  2.2983  0.5969
14555TIP3    H265081   3.179   0.084   2.625 -1.0939 -1.2271 -0.4104
14556TIP3   OH265082   5.077   0.088   4.433  0.4786  0.0942  0.0598
14556TIP3    H165083   5.141   0.159   4.441  0.6067  0.1821 -1.4996
14556TIP3    H265084   5.129   0.008   4.439  0.2984  0.0722  2.1348
14557TIP3   OH265085   5.648   2.063  14.050  0.0153  0.0231 -0.0089
14557TIP3    H165086   5.590   1.988  14.045  0.5565 -0.3229 -1.3171
14557TIP3    H265087   5.735   2.026  14.061  0.7272  0.2297 -3.7409
14558TIP3   OH265088   0.459   3.480  11.927  0.4386  0.5150  0.4407
14558TIP3    H165089   0.372   3.442  11.937 -0.2681  2.1939  1.0602
14558TIP3    H265090   0.459   3.517  11.839  0.8598 -0.2184  0.1190
14559TIP3   OH265091   0.562   4.041   4.823 -0.3691 -0.0948 -0.4634
14559TIP3    H165092   0.633   4.104   4.811 -0.1548 -0.4474 -1.1000
14559TIP3    H265093   0.496   4.088   4.874  0.2945  0.2586  0.0942
14560TIP3   OH265094   1.128   1.527  11.854  0.2035 -0.2049  0.4880
14560TIP3    H165095   1.126   1.478  11.772 -1.8182 -2.9836  2.0097
14560TIP3    H265096   1.221   1.538  11.873  0.7188 -1.2372 -1.1886
14561TIP3   OH265097   3.616   5.040   4.793  0.1691  0.0690 -0.2712
14561TIP3    H165098   3.554   5.006   4.857 -0.7325  0.8812 -0.6904
14561TIP3    H265099   3.603   4.986   4.716 -1.0069  1.0982 -0.8162
14562TIP3   OH265100   0.144   5.232   1.927  0.4622  0.0894  0.2272
14562TIP3    H165101   0.073   5.170   1.946  0.2014 -0.2346 -1.6123
14562TIP3    H265102   0.202   5.225   2.002 -0.9856 -0.3156  1.3565
14563TIP3   OH265103   0.429   4.996   4.298 -0.8455 -0.1440  0.1847
14563TIP3    H165104   0.445   4.943   4.220 -3.3884 -1.1286  0.2450
14563TIP3    H265105   0.445   5.086   4.270  0.5480 -0.6710 -0.7901
14564TIP3   OH265106   3.340   2.534   4.359  0.3689  0.0068 -0.5040
14564TIP3    H165107   3.374   2.623   4.358  0.2138  0.0817 -2.4675
14564TIP3    H265108   3.398   2.485   4.300  0.0847 -1.0450  0.0622
14565TIP3   OH265109   6.779   5.793  13.512 -0.3111  0.0464 -0.3828
14565TIP3    H165110   6.740   5.869  13.554 -1.2836 -0.9419  0.5614
14565TIP3    H265111   6.762   5.806  13.418  0.5971  1.5532 -0.3733
14566TIP3   OH265112   5.936   2.446   4.728  0.4915 -0.6558 -0.6015
14566TIP3    H165113   5.863   2.387   4.744  0.9706 -0.8460  1.0328
14566TIP3    H265114   5.897   2.520   4.681 -1.0544 -0.1073  1.3983
14567TIP3   OH265115   1.712   3.828   4.618  0.3416 -0.0996  0.4594
14567TIP3    H165116   1.677   3.877   4.692  0.4939  0.4556  0.1670
14567TIP3    H265117   1.755   3.752   4.657 -1.1436 -0.7905  0.8410
14568TIP3   OH265118   3.815   6.044   6.139 -0.2298  0.1843 -0.1644
14568TIP3    H165119   3.791   6.105   6.069  0.6224  1.4083  0.5520
14568TIP3    H265120   3.764   6.073   6.215  0.4932  0.3055  0.2979
14569TIP3   OH265121   4.369   0.279  16.945  0.4556  0.2155  0.2567
14569TIP3    H165122   4.367   0.373  16.929 -0.0756  0.1310 -0.1630
14569TIP3    H265123   4.362   0.239  16.859 -1.0338 -0.2238  0.5495
14570TIP3   OH265124   2.317   6.456   0.170 -0.3131 -0.7330 -0.7897
14570TIP3    H165125   2.327   6.545   0.206 -1.3339  0.0565 -2.3411
14570TIP3    H265126   2.272   6.408   0.239 -2.6704  0.8725 -1.0638
14571TIP3   OH265127   3.516   3.782   0.933  0.1061  0.0385 -0.4342
14571TIP3    H165128   3.511   3.773   1.028  0.7996 -0.2454 -0.4100
14571TIP3    H265129   3.427   3.767   0.902  0.0625 -0.9313  0.1036
14572TIP3   OH265130   0.237   4.735   1.602  0.1993 -0.1187 -0.7316
14572TIP3    H165131   0.319   4.779   1.579  0.4128 -0.1624 -0.0646
14572TIP3    H265132   0.179   4.806   1.629  0.2581 -0.1586 -0.4989
14573TIP3   OH265133   2.960   6.188  11.511  0.2125  0.7487 -0.7651
14573TIP3    H165134   2.899   6.235  11.569 -0.7310  1.6058 -2.3759
14573TIP3    H265135   2.903   6.141  11.450  1.1361 -2.0199  0.3213
14574TIP3   OH265136   6.765   0.413  16.476 -0.1912  0.2972 -0.1055
14574TIP3    H165137   6.694   0.446  16.530 -2.1239  1.4338 -3.0580
14574TIP3    H265138   6.831   0.483  16.477 -0.2357  0.3363  0.6405
14575TIP3   OH265139   4.530   0.464  16.120  0.1399 -0.3050 -0.2734
14575TIP3    H165140   4.602   0.407  16.092  0.7404  1.1470 -1.9336
14575TIP3    H265141   4.521   0.527  16.048 -0.8436  1.3384  1.2169
14576TIP3   OH265142   6.710   4.764   1.581  1.1985 -0.4618  0.4779
14576TIP3    H165143   6.740   4.849   1.611  1.3181 -0.0166 -0.8463
14576TIP3    H265144   6.637   4.783   1.522  1.9067 -1.1916 -0.6652
14577TIP3   OH265145   3.680   1.448   4.475  0.2919  0.0055 -0.0950
14577TIP3    H165146   3.598   1.497   4.477 -0.0777 -0.6021  1.9406
14577TIP3    H265147   3.696   1.424   4.566  4.7101  3.2980  0.3602
14578TIP3   OH265148   0.890   0.367  15.809  1.1356 -1.2453  0.4935
14578TIP3    H165149   0.915   0.380  15.717  0.9255  0.7046  0.6791
14578TIP3    H265150   0.969   0.391  15.859  0.2964  0.8878  0.9059
14579TIP3   OH265151   5.202   0.897  11.681  0.1366 -0.1552  0.5341
14579TIP3    H165152   5.237   0.825  11.629  0.3825  0.0048  0.4776
14579TIP3    H265153   5.241   0.976  11.642 -0.0480 -0.0001  0.6613
14580TIP3   OH265154   1.426   3.897  15.415 -0.4270 -0.0109  0.2763
14580TIP3    H165155   1.363   3.850  15.360 -0.1159  0.4582 -0.4996
14580TIP3    H265156   1.415   3.859  15.502 -1.2461 -0.4597 -0.0115
14581TIP3   OH265157   2.065   2.561   2.016  0.1003 -0.1799 -0.0560
14581TIP3    H165158   1.987   2.567   2.070  0.6775  1.0885  0.6904
14581TIP3    H265159   2.037   2.586   1.929 -0.2600  0.6128  0.2841
14582TIP3   OH265160   6.327   2.328  16.495 -0.0115  0.1891  0.3791
14582TIP3    H165161   6.292   2.347  16.408  2.3123 -0.2764 -0.7388
14582TIP3    H265162   6.321   2.233  16.504 -0.2306  0.2345  0.7215
14583TIP3   OH265163   4.927   0.639   0.534 -0.0687  0.5631 -0.2914
14583TIP3    H165164   4.955   0.570   0.474 -0.3264  0.4465 -0.2763
14583TIP3    H265165   4.837   0.617   0.556 -0.6877  1.7335 -1.4859
14584TIP3   OH265166   5.187   2.596   4.086 -0.2809 -0.1772  0.0846
14584TIP3    H165167   5.098   2.614   4.115  0.6490  2.6676  1.6627
14584TIP3    H265168   5.199   2.655   4.011  0.4543  0.0323  0.3557
14585TIP3   OH265169   4.805   5.286  13.596 -0.0521 -0.1968  0.0898
14585TIP3    H165170   4.808   5.369  13.643  0.2607 -0.5123  0.6440
14585TIP3    H265171   4.777   5.309  13.508 -2.0717  0.2587  0.7883
14586TIP3   OH265172   1.388   1.390   0.752  0.7862  0.1995  0.6243
14586TIP3    H165173   1.432   1.473   0.734  0.1306  0.4074 -0.0497
14586TIP3    H265174   1.419   1.331   0.683 -1.9471  1.0739 -1.5379
14587TIP3   OH265175   6.131   0.239   4.490 -0.3274  0.1405 -0.5108
14587TIP3    H165176   6.185   0.318   4.500 -0.5798  0.1961  0.5533
14587TIP3    H265177   6.049   0.260   4.535  0.7282 -1.7845  2.7190
14588TIP3   OH265178   2.188   2.548   5.556  0.4676 -0.0390 -0.7703
14588TIP3    H165179   2.125   2.488   5.515  1.1946 -2.8968  1.9418
14588TIP3    H265180   2.272   2.501   5.553  1.5343  1.7380 -0.3142
14589TIP3   OH265181   6.608   6.218   4.996 -0.1826 -0.6141  0.2090
14589TIP3    H165182   6.559   6.245   5.073 -0.3669  0.7180 -0.3517
14589TIP3    H265183   6.543   6.176   4.939 -0.5947  0.7165 -0.3222
14590TIP3   OH265184   0.381   5.797  10.763  0.4303  0.3358 -0.2812
14590TIP3    H165185   0.403   5.704  10.771  1.8483  0.7133  0.6857
14590TIP3    H265186   0.460   5.842  10.793 -0.0118  1.8677 -1.3220
14591TIP3   OH265187   2.261   4.148  15.491 -0.1830  0.7263 -0.0870
14591TIP3    H165188   2.271   4.212  15.421  0.9133  0.5495 -0.1069
14591TIP3    H265189   2.203   4.191  15.555 -0.6913  1.1221 -0.7987
14592TIP3   OH265190   4.395   2.593  11.273 -0.1830  0.2175 -0.5089
14592TIP3    H165191   4.428   2.677  11.305 -0.8341  1.0265 -1.8526
14592TIP3    H265192   4.381   2.541  11.351  2.7613  0.3816  0.2183
14593TIP3   OH265193   6.081   6.523   4.171 -0.0268 -0.8395 -0.1694
14593TIP3    H165194   6.047   6.558   4.089 -0.9679 -0.6082  0.3140
14593TIP3    H265195   6.012   6.538   4.235  0.3156 -1.8535  0.4751
14594TIP3   OH265196   5.350   1.492  17.055  0.3502 -0.0500  0.3721
14594TIP3    H165197   5.299   1.453  17.126 -0.2486  1.2202  0.6707
14594TIP3    H265198   5.392   1.568  17.094 -0.0839  0.7413 -0.6512
14595TIP3   OH265199   6.532   2.962  12.767  0.1201 -0.6202  0.0605
14595TIP3    H165200   6.541   3.038  12.709 -1.0966 -1.3885 -1.2192
14595TIP3    H265201   6.516   2.999  12.853  0.4486  0.5750 -0.3717
14596TIP3   OH265202   1.197   0.116  11.981  0.4116 -0.2359 -0.7913
14596TIP3    H165203   1.118   0.081  11.940 -0.3242  0.5334 -0.0763
14596TIP3    H265204   1.258   0.042  11.983 -0.0722 -0.6931 -1.8561
14597TIP3   OH265205   6.633   5.646  17.242  0.5519 -0.1798  0.2636
14597TIP3    H165206   6.542   5.659  17.267  0.7514  3.7975 -0.4391
14597TIP3    H265207   6.683   5.660  17.322  0.6459 -0.7637  0.3142
14598TIP3   OH265208   5.370   5.475  12.887  0.0191 -0.0131 -0.1616
14598TIP3    H165209   5.419   5.542  12.840  0.1370 -0.5742 -0.8547
14598TIP3    H265210   5.399   5.482  12.978  0.6151  0.3424 -0.3779
14599TIP3   OH265211   0.213   3.463   3.406 -0.2452  0.0416  0.0966
14599TIP3    H165212   0.260   3.379   3.404 -0.8546 -0.2804 -0.9152
14599TIP3    H265213   0.148   3.456   3.337 -0.9277  0.9993  0.6297
14600TIP3   OH265214   3.526   3.518  12.148 -0.4651  0.0790  0.2327
14600TIP3    H165215   3.547   3.585  12.084  1.0950  0.0325  0.6646
14600TIP3    H265216   3.476   3.452  12.099 -0.3518  0.6289 -0.6355
14601TIP3   OH265217   4.975   5.952   1.993  0.3328 -0.0403  0.1688
14601TIP3    H165218   4.946   5.862   2.004 -1.4083  0.6857  2.5555
14601TIP3    H265219   4.926   5.984   1.917 -0.4826 -0.5987  0.4440
14602TIP3   OH265220   0.339   4.048   4.163 -0.2493  0.4058 -0.6727
14602TIP3    H165221   0.347   3.974   4.224 -1.3021 -0.3915 -1.4586
14602TIP3    H265222   0.317   4.123   4.219  0.1119 -0.0229  0.0574
14603TIP3   OH265223   6.244   0.955   5.175 -0.2126 -0.5970  0.3982
14603TIP3    H165224   6.276   1.025   5.118 -0.4351 -2.0321 -1.6106
14603TIP3    H265225   6.315   0.940   5.237  1.7856 -1.5055 -1.9235
14604TIP3   OH265226   5.087   6.611   3.519  0.4851  0.2477 -0.5798
14604TIP3    H165227   5.089   6.678   3.451  0.7890  0.8122 -0.0180
14604TIP3    H265228   5.004   6.625   3.564  0.2411 -0.1866 -0.8910
14605TIP3   OH265229   6.447   3.611   1.876 -0.0970 -1.0744 -0.1734
14605TIP3    H165230   6.508   3.537   1.885  0.7078 -0.5475 -1.1316
14605TIP3    H265231   6.430   3.617   1.782 -0.9464 -0.6532  0.0015
14606TIP3   OH265232   4.242   3.563  13.636  0.3413 -0.3306  0.0624
14606TIP3    H165233   4.168   3.623  13.644 -1.4191 -2.3950  0.1367
14606TIP3    H265234   4.311   3.602  13.690 -0.8814  1.3584  0.4681
14607TIP3   OH265235   3.227   4.856   2.283  0.8196 -0.3303 -0.6820
14607TIP3    H165236   3.206   4.945   2.253  0.3528  0.0402  0.6710
14607TIP3    H265237   3.286   4.822   2.216  2.6502  1.7490 -0.2645
14608TIP3   OH265238   1.122   1.045   1.985  0.2332 -0.3479 -0.6390
14608TIP3    H165239   1.172   1.001   1.916  1.2835  0.1152 -0.1969
14608TIP3    H265240   1.154   1.136   1.982 -0.9399  0.0755 -0.6608
14609TIP3   OH265241   6.174   2.797  16.086 -0.4039 -0.4776 -0.0670
14609TIP3    H165242   6.123   2.725  16.048 -0.2849 -0.1734 -0.8187
14609TIP3    H265243   6.264   2.778  16.060 -0.2160 -0.6541  0.6932
14610TIP3   OH265244   5.259   4.991   1.089  0.4180  1.1142  0.0989
14610TIP3    H165245   5.264   5.021   1.180 -1.3336 -2.4024  1.5331
14610TIP3    H265246   5.317   4.915   1.086 -2.1584 -0.9710 -0.6100
14611TIP3   OH265247   1.584   2.636  13.810  0.4815  0.0625  0.7128
14611TIP3    H165248   1.617   2.570  13.749  0.0267  0.4246  0.0679
14611TIP3    H265249   1.511   2.593  13.854 -0.1136  0.2809 -0.0415
14612TIP3   OH265250   2.781   0.073   3.977 -0.2594  0.2792  0.1281
14612TIP3    H165251   2.707   0.127   3.952 -0.8424 -0.4047  0.3380
14612TIP3    H265252   2.749  -0.017   3.968 -0.3487 -0.0401  2.7156
14613TIP3   OH265253   0.806   4.229   3.627  0.3702 -0.8578 -0.5046
14613TIP3    H165254   0.862   4.260   3.557  0.0180 -1.7135 -1.1935
14613TIP3    H265255   0.807   4.299   3.692  1.9471 -0.7066 -0.6488
14614TIP3   OH265256   2.734   1.129  14.350 -0.1585 -0.0187  1.0249
14614TIP3    H165257   2.807   1.178  14.387 -1.7216  1.6040  2.1707
14614TIP3    H265258   2.679   1.107  14.426 -0.6526 -1.5745  0.2576
14615TIP3   OH265259   3.526   5.777   1.963  0.4484  0.4250 -0.3518
14615TIP3    H165260   3.466   5.814   2.028 -1.2109 -0.4118 -1.3579
14615TIP3    H265261   3.526   5.683   1.980  0.4685  0.2667 -1.1752
14616TIP3   OH265262   5.670   2.526   3.311  0.0862 -0.3928  0.0467
14616TIP3    H165263   5.608   2.585   3.353 -0.2301 -0.1772 -0.6967
14616TIP3    H265264   5.711   2.579   3.242 -1.1335 -1.3490 -1.4935
14617TIP3   OH265265   3.854   4.646   0.825  0.0570 -0.4401 -0.7846
14617TIP3    H165266   3.888   4.608   0.906 -1.7104 -0.9882 -0.2547
14617TIP3    H265267   3.925   4.636   0.762  1.1161 -0.8800  0.4404
14618TIP3   OH265268   1.377   3.502  14.417 -0.2444  0.3518  0.1056
14618TIP3    H165269   1.369   3.512  14.512 -0.8331  1.7272 -0.0633
14618TIP3    H265270   1.427   3.422  14.405  0.9433  0.8286  1.6090
14619TIP3   OH265271   6.016   0.620  12.824 -0.3813 -0.0251  0.0596
14619TIP3    H165272   6.068   0.543  12.849 -0.7336 -0.0888  0.6124
14619TIP3    H265273   5.992   0.604  12.733 -1.5058 -1.1712  0.5377
14620TIP3   OH265274   5.970   2.845  17.154 -0.1170 -0.4191  0.1186
14620TIP3    H165275   6.024   2.923  17.168 -0.3473  0.0233 -1.2650
14620TIP3    H265276   5.903   2.850  17.222  2.0818 -1.5159  2.5120
14621TIP3   OH265277   2.351   3.784  16.618  0.1623 -0.1096 -0.3083
14621TIP3    H165278   2.295   3.727  16.670 -0.0807  0.3313 -0.0737
14621TIP3    H265279   2.440   3.759  16.641  0.0562 -0.4491 -0.2717
14622TIP3   OH265280   5.694   2.850   0.839 -0.2622 -0.8140 -1.0828
14622TIP3    H165281   5.787   2.838   0.860 -0.6027  0.4614  1.5522
14622TIP3    H265282   5.648   2.790   0.898 -1.1646 -0.6725 -1.6189
14623TIP3   OH265283   6.102   6.768   0.099 -0.2228  0.2373 -0.3850
14623TIP3    H165284   6.029   6.755   0.038 -0.4083 -0.8647  0.0521
14623TIP3    H265285   6.074   6.724   0.180  0.1982  1.3105  0.3679
14624TIP3   OH265286   5.463   5.766  14.697  0.0180  0.7854  0.3210
14624TIP3    H165287   5.503   5.853  14.692 -0.3013  0.9093 -0.2192
14624TIP3    H265288   5.428   5.762  14.786 -0.5755  1.4997  0.1398
14625TIP3   OH265289   2.498   4.238   0.928 -0.2933 -0.3429 -0.1366
14625TIP3    H165290   2.451   4.157   0.909  1.8932 -1.4017 -1.3845
14625TIP3    H265291   2.591   4.216   0.918  0.4945  1.8269  1.4786
14626TIP3   OH265292   5.407   3.644  16.539  0.1426 -0.2028 -0.5252
14626TIP3    H165293   5.345   3.618  16.470  0.4661 -3.3607  0.2232
14626TIP3    H265294   5.493   3.626  16.502  0.6950  3.2634 -1.1998
14627TIP3   OH265295   2.412   6.183   4.061 -0.1785 -0.2145 -0.3673
14627TIP3    H165296   2.485   6.124   4.079  0.1057  0.0653 -0.5863
14627TIP3    H265297   2.339   6.125   4.039 -0.7240 -0.5969  2.1754
14628TIP3   OH265298   1.576   4.482  17.081 -0.7001 -0.0882 -0.1457
14628TIP3    H165299   1.548   4.553  17.022 -2.4888 -1.0139 -0.4505
14628TIP3    H265300   1.624   4.422  17.024 -1.6166 -0.5126 -0.4805
14629TIP3   OH265301   1.247   1.922   4.131  0.3612  0.2673  0.0449
14629TIP3    H165302   1.195   1.858   4.082  1.7553 -0.6054 -0.3613
14629TIP3    H265303   1.272   1.988   4.066 -0.6693  0.9916  0.3596
14630TIP3   OH265304   3.905   4.842  10.892  1.1238 -0.2277  0.7875
14630TIP3    H165305   3.996   4.846  10.861  0.2099 -0.8698 -2.4092
14630TIP3    H265306   3.854   4.830  10.812 -1.9195  1.4596  2.3151
14631TIP3   OH265307   1.173   6.773  15.959 -0.2193  0.7317  0.3637
14631TIP3    H165308   1.245   6.752  16.019  0.5059 -1.0696 -1.0668
14631TIP3    H265309   1.205   6.849  15.909 -0.6817  2.0110  1.9143
14632TIP3   OH265310   3.613   6.528   5.964 -0.3212  0.0437  0.3215
14632TIP3    H165311   3.624   6.433   5.967 -0.9125 -0.0811 -0.8700
14632TIP3    H265312   3.700   6.563   5.984  0.6921 -0.8156 -2.0905
14633TIP3   OH265313   4.426   4.064  12.532  0.0703  0.1239 -0.2616
14633TIP3    H165314   4.373   4.080  12.610  0.4489  1.0571 -0.1774
14633TIP3    H265315   4.514   4.048  12.565 -0.4501 -3.4158 -0.2664
14634TIP3   OH265316   3.147   6.153  15.686 -0.3727 -0.1258 -0.9215
14634TIP3    H165317   3.083   6.138  15.755 -0.8785  1.4185 -1.0304
14634TIP3    H265318   3.208   6.079  15.694 -1.3592 -0.8654  0.0788
14635TIP3   OH265319   2.466   3.554   3.775  0.2238 -0.5043 -0.0726
14635TIP3    H165320   2.450   3.463   3.747  0.6039 -0.5301 -0.2188
14635TIP3    H265321   2.465   3.550   3.870 -0.5169 -0.5222 -0.0745
14636TIP3   OH265322   4.956   4.689   3.715 -0.4854 -0.0682 -0.2344
14636TIP3    H165323   5.016   4.746   3.763  1.4199 -0.1155 -2.4170
14636TIP3    H265324   4.870   4.712   3.748  0.4682  2.0847  0.9469
14637TIP3   OH265325   6.186   1.642   1.750 -0.6962 -0.3530  0.1694
14637TIP3    H165326   6.228   1.652   1.665 -1.1245  2.0064  0.1705
14637TIP3    H265327   6.094   1.628   1.730 -0.9628  1.2014  0.2234
14638TIP3   OH265328   4.017   0.471   3.076  0.3405 -0.4561 -0.3707
14638TIP3    H165329   4.072   0.452   3.000  0.3166 -1.3935 -0.1642
14638TIP3    H265330   3.954   0.536   3.045  1.7655  0.9229 -0.5153
14639TIP3   OH265331   5.125   1.433   2.065 -0.4816 -0.4858 -0.3414
14639TIP3    H165332   5.175   1.509   2.093 -0.5234 -0.8377  0.7160
14639TIP3    H265333   5.034   1.453   2.089 -0.9923  0.3686 -2.6953
14640TIP3   OH265334   0.331   1.500   1.740 -0.2083  0.3072  0.1073
14640TIP3    H165335   0.406   1.525   1.794 -0.6056 -2.1225  1.9580
14640TIP3    H265336   0.346   1.409   1.717 -1.2513  0.5741 -1.9674
14641TIP3   OH265337   1.028   3.623   1.890 -0.1901 -0.0610 -0.0313
14641TIP3    H165338   1.042   3.532   1.862 -0.0356  0.0401 -0.2850
14641TIP3    H265339   0.951   3.651   1.841 -1.0186 -0.4636  1.0051
14642TIP3   OH265340   3.182   6.639   0.052 -0.2884  0.3343  0.3570
14642TIP3    H165341   3.153   6.548   0.060  0.7643 -0.3508 -2.3412
14642TIP3    H265342   3.157   6.663  -0.037 -2.5153  3.5264  1.6512
14643TIP3   OH265343   1.144   1.617  12.422 -0.3854  1.0320 -0.2302
14643TIP3    H165344   1.089   1.622  12.343  0.8455  1.3020 -1.0919
14643TIP3    H265345   1.202   1.543  12.405 -0.1638  1.0404  0.4746
14644TIP3   OH265346   5.831   4.339   2.514  0.0767  0.2458 -0.1017
14644TIP3    H165347   5.874   4.411   2.560  1.5892  1.4721 -3.1882
14644TIP3    H265348   5.860   4.260   2.560  3.2635  1.2470 -0.1691
14645TIP3   OH265349   3.357   1.210   5.881  0.3595 -0.2297 -0.3918
14645TIP3    H165350   3.446   1.245   5.880  0.1188  0.4201 -0.0190
14645TIP3    H265351   3.368   1.115   5.876  1.0183 -0.1043 -1.9697
14646TIP3   OH265352   1.261   1.804  12.579 -0.3724  0.4880 -0.2394
14646TIP3    H165353   1.275   1.883  12.527 -1.2661  0.5241 -0.4430
14646TIP3    H265354   1.196   1.754  12.530 -1.5318  0.7068  1.0104
14647TIP3   OH265355   0.823   6.225   3.256 -0.1537 -0.0311 -0.2645
14647TIP3    H165356   0.881   6.300   3.272 -1.3190  0.9696 -0.5756
14647TIP3    H265357   0.880   6.149   3.263  0.5706  0.6590  2.8405
14648TIP3   OH265358   5.543   2.079   4.766  0.4629 -0.2110 -0.0721
14648TIP3    H165359   5.536   2.002   4.823  0.5356 -0.4220 -0.3501
14648TIP3    H265360   5.604   2.052   4.697  1.4652  0.4943  0.5007
14649TIP3   OH265361   4.947   0.748   0.889  0.2966  0.3121  0.5053
14649TIP3    H165362   4.878   0.688   0.916  0.9857 -1.6836 -1.8482
14649TIP3    H265363   4.905   0.806   0.826  0.5010 -0.1512 -0.0578
14650TIP3   OH265364   2.561   0.125  14.710  0.2716 -0.2716  0.2298
14650TIP3    H165365   2.638   0.131  14.766 -1.1502  0.7747  2.1563
14650TIP3    H265366   2.573   0.193  14.644  0.8588  0.0594  0.6773
14651TIP3   OH265367   5.741   6.133   6.164  0.4366 -0.0642 -0.7218
14651TIP3    H165368   5.689   6.126   6.244 -0.9285 -0.5019 -1.5967
14651TIP3    H265369   5.781   6.047   6.153 -0.5194 -0.4739 -1.2102
14652TIP3   OH265370   6.578   5.781  14.407 -0.0135 -0.1457 -0.5777
14652TIP3    H165371   6.489   5.755  14.384 -0.2755 -0.3378  0.6073
14652TIP3    H265372   6.594   5.859  14.355 -1.2541  0.4966 -0.0316
14653TIP3   OH265373   3.730   0.684  13.761  0.2160 -0.0990 -0.1984
14653TIP3    H165374   3.789   0.755  13.786 -0.7503  0.6684 -0.0003
14653TIP3    H265375   3.673   0.723  13.695 -0.7239 -0.5046  0.3560
14654TIP3   OH265376   2.196   0.637   5.846 -0.3346  0.0851 -0.8487
14654TIP3    H165377   2.130   0.696   5.809  0.1459  0.8649 -0.4753
14654TIP3    H265378   2.256   0.621   5.774  0.1439  0.9471 -0.6583
14655TIP3   OH265379   1.390   6.674   5.819 -0.3148 -0.1403 -1.0719
14655TIP3    H165380   1.362   6.678   5.910  0.1933  0.9717 -0.9417
14655TIP3    H265381   1.475   6.629   5.822  0.2687  0.9365 -0.8264
14656TIP3   OH265382   5.248   2.248   2.248  0.3289 -0.4773 -0.3017
14656TIP3    H165383   5.221   2.339   2.263 -0.1360 -0.6153 -0.2966
14656TIP3    H265384   5.173   2.195   2.277  1.0952 -0.9217  0.9358
14657TIP3   OH265385   4.072   2.667   3.387  0.1214  0.1087 -0.1648
14657TIP3    H165386   4.052   2.761   3.390 -0.6544  0.0681 -2.1049
14657TIP3    H265387   3.987   2.624   3.403 -0.0697 -0.1816 -1.7685
14658TIP3   OH265388   1.303   6.657  14.608  0.2394  0.2122  0.8552
14658TIP3    H165389   1.377   6.629  14.554 -1.0568 -0.3880 -0.6804
14658TIP3    H265390   1.265   6.576  14.641 -0.9703  0.3542 -0.1073
14659TIP3   OH265391   6.000   4.612   5.041  0.3045  0.1394  0.3024
14659TIP3    H165392   5.941   4.590   4.969  1.3281  0.3511 -0.6213
14659TIP3    H265393   5.956   4.683   5.087  0.5148  1.3580 -1.3037
14660TIP3   OH265394   6.560   4.252  14.501 -0.0931  0.3022  0.1457
14660TIP3    H165395   6.653   4.231  14.499 -0.4347 -1.5240  1.0560
14660TIP3    H265396   6.547   4.313  14.428  2.1256  2.1518  1.1529
14661TIP3   OH265397   0.817   1.697   3.616  0.2365  0.2925  0.5502
14661TIP3    H165398   0.890   1.703   3.554 -0.7848  0.5258 -0.6922
14661TIP3    H265399   0.743   1.666   3.563 -0.6725  0.4602  1.6719
14662TIP3   OH265400   1.201   6.526   2.319 -0.0094  0.2481  0.2534
14662TIP3    H165401   1.106   6.517   2.314 -0.3469  0.0263  3.8474
14662TIP3    H265402   1.218   6.617   2.294 -0.9350 -0.0856 -1.7666
14663TIP3   OH265403   2.845   6.588   0.170 -0.4153  0.2056  0.3325
14663TIP3    H165404   2.837   6.677   0.137 -0.4992  0.0478 -0.0771
14663TIP3    H265405   2.775   6.540   0.126  0.8769 -0.5238 -0.9910
14664TIP3   OH265406   2.457   2.344  15.323  0.3625 -0.0365  0.2694
14664TIP3    H165407   2.529   2.281  15.312  2.2562  1.5157  2.7560
14664TIP3    H265408   2.442   2.378  15.235  1.5475 -1.5937 -0.5888
14665TIP3   OH265409   3.036   0.521  12.763 -0.2812  0.6033  0.4704
14665TIP3    H165410   2.952   0.475  12.770  0.4263 -0.6798  0.7244
14665TIP3    H265411   3.018   0.592  12.701 -1.0877 -0.8119 -1.0310
14666TIP3   OH265412   1.159   4.663  15.650 -0.0176  0.0456 -0.2658
14666TIP3    H165413   1.084   4.618  15.613  0.3971  0.1204 -1.2532
14666TIP3    H265414   1.234   4.607  15.630  0.0837 -0.6056  1.7206
14667TIP3   OH265415   6.050   6.325  15.221 -0.2902  0.1439  0.2973
14667TIP3    H165416   6.118   6.388  15.198 -2.1014  2.2311  0.2458
14667TIP3    H265417   6.097   6.251  15.260  1.9474  1.5932  0.5352
14668TIP3   OH265418   2.595   3.392  15.035 -0.2239 -0.0580 -0.0280
14668TIP3    H165419   2.624   3.368  15.123 -1.2266  0.8926  0.5903
14668TIP3    H265420   2.629   3.323  14.979  1.5936  0.0171  0.9031
14669TIP3   OH265421   0.998   0.275  16.208  0.6059  1.1491 -0.6221
14669TIP3    H165422   1.032   0.240  16.291  1.7133 -0.7145 -1.7755
14669TIP3    H265423   0.934   0.341  16.234  0.4953  0.2256  1.7150
14670TIP3   OH265424   4.422   1.998  15.964 -0.2279 -0.1758 -0.7836
14670TIP3    H165425   4.397   1.978  16.054 -1.2539  0.7286 -0.8458
14670TIP3    H265426   4.375   1.933  15.911 -2.6837  1.5424 -0.9029
14671TIP3   OH265427   4.774   5.298   4.330 -0.5891 -0.1096  0.5202
14671TIP3    H165428   4.744   5.361   4.396 -1.9301  0.3903 -0.5293
14671TIP3    H265429   4.730   5.216   4.353 -0.0674 -0.2701  0.9684
14672TIP3   OH265430   0.174   4.779  16.697  0.5863 -0.1003 -0.1318
14672TIP3    H165431   0.099   4.770  16.638  1.3311  0.1039 -1.1437
14672TIP3    H265432   0.138   4.763  16.784 -1.1883  2.4173 -0.2641
14673TIP3   OH265433   2.363   0.488   3.895  0.4710 -0.7566  0.3672
14673TIP3    H165434   2.311   0.550   3.947  0.0704  0.4524 -1.4098
14673TIP3    H265435   2.299   0.445   3.838  1.4097  1.7540 -2.8627
14674TIP3   OH265436   3.883   2.433  14.257 -0.0845  0.0532  0.1967
14674TIP3    H165437   3.904   2.427  14.350 -1.0764 -0.6769  0.3920
14674TIP3    H265438   3.885   2.526  14.238 -0.0469  0.2219  0.9902
14675TIP3   OH265439   0.731   5.838  11.189 -0.5440 -0.1204 -0.3002
14675TIP3    H165440   0.680   5.919  11.185 -1.4262 -0.7237 -1.7342
14675TIP3    H265441   0.812   5.858  11.142  0.5168  0.7527  1.7478
14676TIP3   OH265442   0.567   1.285  15.344  0.0468  0.4131 -0.3073
14676TIP3    H165443   0.533   1.369  15.313 -1.6374  0.0689  0.4801
14676TIP3    H265444   0.496   1.249  15.397  0.8560 -1.3702 -0.3718
14677TIP3   OH265445   5.363   1.014   0.724 -0.8543 -0.1284 -0.4996
14677TIP3    H165446   5.406   0.962   0.657 -2.1815 -0.7696 -0.8889
14677TIP3    H265447   5.346   1.099   0.682 -0.6258 -0.1207 -0.5775
14678TIP3   OH265448   6.081   5.409   6.031 -0.4994 -0.1379 -0.2029
14678TIP3    H165449   5.994   5.441   6.006  0.0835  1.3951 -0.3268
14678TIP3    H265450   6.127   5.486   6.064  1.1318 -0.7290 -0.9943
14679TIP3   OH265451   4.312   2.693  16.495 -0.1915 -0.6717  0.5267
14679TIP3    H165452   4.245   2.760  16.483 -0.0718 -0.5781  0.3771
14679TIP3    H265453   4.393   2.741  16.510  0.1845 -0.7408 -1.0582
14680TIP3   OH265454   6.132   1.423   0.002  0.0382  0.4547 -0.4476
14680TIP3    H165455   6.211   1.392  -0.042  0.5382 -0.6857  1.1840
14680TIP3    H265456   6.140   1.392   0.092 -2.0694  0.6684 -0.1350
14681TIP3   OH265457   0.651   0.558  11.651 -0.1901 -0.7916 -0.0594
14681TIP3    H165458   0.590   0.510  11.706  0.5317 -2.3125 -0.5298
14681TIP3    H265459   0.597   0.621  11.603 -1.4772 -2.3832 -0.7965
14682TIP3   OH265460   3.946   0.589  13.302 -0.0641 -0.2965  0.3871
14682TIP3    H165461   3.946   0.654  13.232  0.8984  1.9306  2.3002
14682TIP3    H265462   4.038   0.563  13.311  0.0593  0.4869  1.6721
14683TIP3   OH265463   0.752   3.283  16.364 -0.9538  0.0969  0.2911
14683TIP3    H165464   0.687   3.324  16.306 -1.5119 -0.6594  0.3745
14683TIP3    H265465   0.833   3.330  16.345 -1.0266 -0.4003 -1.4189
14684TIP3   OH265466   1.658   3.225  11.349 -0.1939  0.2451 -0.4993
14684TIP3    H165467   1.750   3.231  11.373 -0.1481  1.8167 -0.9031
14684TIP3    H265468   1.639   3.132  11.347  0.5643 -0.0568  2.5688
14685TIP3   OH265469   3.171   4.778   3.351 -0.1049 -0.1015  0.2217
14685TIP3    H165470   3.256   4.775   3.395  0.4687  0.9990 -0.7769
14685TIP3    H265471   3.164   4.694   3.307  0.9002  0.1578 -0.4599
14686TIP3   OH265472   5.193   1.855  15.642 -0.2737 -0.1201  0.5989
14686TIP3    H165473   5.268   1.871  15.585 -1.4494  1.1576 -0.6508
14686TIP3    H265474   5.179   1.938  15.686  0.1859 -0.8966  2.2918
14687TIP3   OH265475   3.662   5.629   3.025  0.2725  0.0506  0.6181
14687TIP3    H165476   3.687   5.541   3.055 -2.0400 -0.6823  0.6114
14687TIP3    H265477   3.667   5.624   2.930 -0.0858 -0.1504  0.6095
14688TIP3   OH265478   1.595   2.769  12.964  0.3377 -0.4230  0.2785
14688TIP3    H165479   1.529   2.798  13.026  0.1064 -1.7373  0.6728
14688TIP3    H265480   1.572   2.679  12.944  1.3227 -0.5232 -0.5045
14689TIP3   OH265481   6.761   6.331   0.457  0.7205 -0.1766 -0.6266
14689TIP3    H165482   6.693   6.384   0.499  1.6045 -0.5746  1.4348
14689TIP3    H265483   6.714   6.278   0.393 -0.7335  0.4091 -0.0819
14690TIP3   OH265484   0.557   1.914  12.749 -0.0395 -0.1451  0.7804
14690TIP3    H165485   0.649   1.890  12.752 -0.2661 -1.1459  0.1761
14690TIP3    H265486   0.515   1.857  12.814 -0.3174 -0.0787  0.6608
14691TIP3   OH265487   4.889   2.570   5.965  0.2837 -0.1143 -0.6050
14691TIP3    H165488   4.949   2.513   6.012 -0.6987 -1.1401 -0.5496
14691TIP3    H265489   4.859   2.632   6.032  0.4837 -0.2531 -0.3836
14692TIP3   OH265490   0.158   4.569   1.396  0.4393 -0.1427  0.2625
14692TIP3    H165491   0.141   4.631   1.325  0.5378  0.4178  0.7289
14692TIP3    H265492   0.157   4.622   1.475  0.5182 -0.7392  0.6655
14693TIP3   OH265493   6.359   6.029   2.699  0.5357 -0.1806 -0.0419
14693TIP3    H165494   6.409   6.063   2.626 -1.9278  0.1295 -1.6950
14693TIP3    H265495   6.379   5.936   2.701  1.3174 -0.0297 -0.5120
14694TIP3   OH265496   1.321   5.596   4.359  0.3722  0.0894  0.1768
14694TIP3    H165497   1.233   5.603   4.396 -0.4787 -0.9189 -1.5223
14694TIP3    H265498   1.375   5.652   4.415 -1.3147  0.6675  1.3196
14695TIP3   OH265499   3.928   5.331   1.707 -0.6283  0.9838  0.3162
14695TIP3    H165500   3.961   5.297   1.624 -3.3564 -1.3293  0.0327
14695TIP3    H265501   3.999   5.315   1.769  1.3749  2.5421 -1.4295
14696TIP3   OH265502   3.030   4.754  11.425  0.3309  0.4244 -0.0287
14696TIP3    H165503   3.022   4.683  11.490 -1.1104 -2.1855 -2.8095
14696TIP3    H265504   3.124   4.763  11.412  0.6972  1.2479  2.5044
14697TIP3   OH265505   2.115   5.077  12.032  0.5960 -0.7480 -0.0739
14697TIP3    H165506   2.036   5.064  11.980  0.7633 -0.4043 -0.4180
14697TIP3    H265507   2.186   5.082  11.967  0.6592  0.9459  0.0869
14698TIP3   OH265508   5.393   1.728  14.215 -0.3968  0.1254  0.4750
14698TIP3    H165509   5.434   1.737  14.301 -1.2537  2.0053  0.7385
14698TIP3    H265510   5.300   1.738  14.231 -0.6043  0.1349 -0.6237
14699TIP3   OH265511   4.458   1.580  15.553  0.0840 -0.2366  0.6656
14699TIP3    H165512   4.382   1.530  15.583 -0.3693  0.8740  1.4831
14699TIP3    H265513   4.452   1.580  15.458 -0.3979 -0.9850  0.6943
14700TIP3   OH265514   5.342   0.800   3.497  0.7070 -0.8574 -0.1659
14700TIP3    H165515   5.398   0.737   3.543  2.9141  1.0447 -0.0896
14700TIP3    H265516   5.391   0.823   3.418  0.6255  1.6936  0.4350
14701TIP3   OH265517   6.139   6.120  16.070  0.4101  0.0309  0.7573
14701TIP3    H165518   6.191   6.153  15.996 -1.3136 -0.3435 -0.7074
14701TIP3    H265519   6.130   6.027  16.053 -2.6202  0.4298 -0.3623
14702TIP3   OH265520   5.492   5.994   6.447  0.0646  0.0990  0.3672
14702TIP3    H165521   5.488   6.074   6.500 -0.2943  0.9752 -0.9488
14702TIP3    H265522   5.570   5.948   6.479  0.2370  0.9389  1.1897
14703TIP3   OH265523   6.104   4.028  15.495  0.6335  0.3528  0.0793
14703TIP3    H165524   6.076   4.017  15.586  1.1368  1.4470  0.3968
14703TIP3    H265525   6.045   3.973  15.444  1.1151 -1.2608  1.1760
14704TIP3   OH265526   4.408   0.852   4.841  0.0787 -0.1254 -0.4388
14704TIP3    H165527   4.327   0.806   4.864  0.1151 -0.1714 -0.4023
14704TIP3    H265528   4.456   0.860   4.924  1.2113 -2.2390 -0.8273
14705TIP3   OH265529   5.619   3.002  13.344  0.2896  0.2595 -0.5022
14705TIP3    H165530   5.541   2.999  13.289 -0.5334 -0.9600  0.6769
14705TIP3    H265531   5.607   2.932  13.408  2.3966 -0.0296 -0.3348
14706TIP3   OH265532   4.223   1.844  12.454  0.1663 -0.0304  0.2436
14706TIP3    H165533   4.303   1.896  12.457  1.2391 -1.6175  0.2410
14706TIP3    H265534   4.217   1.805  12.541 -0.9329  0.5057  0.4271
14707TIP3   OH265535   5.776   2.983  14.389 -0.1866 -0.3914 -0.1351
14707TIP3    H165536   5.855   2.980  14.335 -0.0091 -1.3103  0.1669
14707TIP3    H265537   5.734   3.066  14.364  0.8576  0.1064 -0.3044
14708TIP3   OH265538   3.691   2.257   0.243 -0.0506  0.1004 -0.5336
14708TIP3    H165539   3.692   2.353   0.244 -0.1997  0.1022  0.5194
14708TIP3    H265540   3.699   2.232   0.335 -0.2061 -0.8985 -0.7818
14709TIP3   OH265541   5.644   4.770   4.977 -0.5175  0.3344  0.7538
14709TIP3    H165542   5.731   4.793   5.009  1.2833 -2.2266 -1.8295
14709TIP3    H265543   5.624   4.687   5.019 -0.6003 -0.2903 -0.4844
14710TIP3   OH265544   2.654   3.421  16.667  0.0801 -0.1619 -0.0591
14710TIP3    H165545   2.739   3.397  16.703 -0.2637  0.3059  1.1011
14710TIP3    H265546   2.594   3.353  16.698 -0.1007 -0.1137 -0.2951
14711TIP3   OH265547   6.587   6.027   3.860  0.0387  0.1127  0.0582
14711TIP3    H165548   6.560   6.115   3.835 -0.9366  0.3553  1.8421
14711TIP3    H265549   6.615   6.035   3.951  1.6860 -1.0949 -0.2864
14712TIP3   OH265550   3.526   0.521  15.770 -0.0660 -0.1160 -0.2704
14712TIP3    H165551   3.442   0.522  15.815 -0.8549  0.3203 -1.6676
14712TIP3    H265552   3.547   0.613  15.755 -0.7249 -0.2320 -2.2852
14713TIP3   OH265553   6.558   1.942   0.572 -0.2846  0.9187 -0.2831
14713TIP3    H165554   6.649   1.913   0.569 -0.5797  0.0352 -1.1830
14713TIP3    H265555   6.563   2.038   0.570  0.6184  0.8737 -0.3817
14714TIP3   OH265556   5.907   4.411  16.950 -0.1829 -0.2969 -0.0869
14714TIP3    H165557   5.840   4.344  16.937 -0.5315 -0.0242  0.2908
14714TIP3    H265558   5.888   4.448  17.036 -1.0904  1.5216 -1.0173
14715TIP3   OH265559   4.301   1.639  11.193  0.5707 -0.1431 -0.0577
14715TIP3    H165560   4.271   1.563  11.243 -1.2326  0.7206  0.2502
14715TIP3    H265561   4.306   1.608  11.103  1.7258 -1.1133  0.3076
14716TIP3   OH265562   6.215   5.782   2.626 -0.1703  0.0845  1.1686
14716TIP3    H165563   6.143   5.844   2.628  0.7959  1.2880  0.1483
14716TIP3    H265564   6.174   5.697   2.646 -2.4704  0.1581 -2.3759
14717TIP3   OH265565   6.570   0.500  15.857 -0.1639  0.8951  0.1457
14717TIP3    H165566   6.571   0.518  15.763  0.4751  0.7824  0.1319
14717TIP3    H265567   6.479   0.475  15.875  0.0729 -0.6994 -0.7420
14718TIP3   OH265568   5.530   2.573   4.589  0.0068  0.2449  0.1457
14718TIP3    H165569   5.454   2.516   4.602  0.4043 -0.8062 -1.6994
14718TIP3    H265570   5.600   2.513   4.564  1.2955  1.2693  1.1470
14719TIP3   OH265571   5.873   4.805   5.162  0.2336 -0.7445  0.4498
14719TIP3    H165572   5.832   4.886   5.131 -0.4772 -1.2159  0.1224
14719TIP3    H265573   5.918   4.830   5.242  2.0504  0.5097 -0.8577
14720TIP3   OH265574   4.386   4.693  11.489  0.0906  0.2197 -0.4191
14720TIP3    H165575   4.371   4.614  11.437  0.9064  0.5565 -1.1892
14720TIP3    H265576   4.319   4.754  11.458  2.0080  1.2507 -2.8800
14721TIP3   OH265577   6.381   3.369  13.666 -0.5751 -0.4663 -0.1052
14721TIP3    H165578   6.472   3.397  13.662 -0.6028 -0.4112 -0.3382
14721TIP3    H265579   6.360   3.368  13.760 -0.6726  0.6068 -0.1030
14722TIP3   OH265580   1.199   0.826  11.432 -0.2170  0.8529 -0.4701
14722TIP3    H165581   1.272   0.851  11.375  0.1060  2.0563  0.4137
14722TIP3    H265582   1.177   0.737  11.405  0.6297  0.9886 -1.7274
14723TIP3   OH265583   6.253   4.486   3.779  0.1280  0.2516 -0.6554
14723TIP3    H165584   6.341   4.479   3.743 -0.3942 -1.5203 -1.7140
14723TIP3    H265585   6.237   4.401   3.821 -0.8138  0.8134  0.1906
14724TIP3   OH265586   5.116   1.785  16.309 -0.0258 -0.1361 -0.4068
14724TIP3    H165587   5.150   1.728  16.240 -0.2418 -1.2746  0.4034
14724TIP3    H265588   5.026   1.803  16.283 -0.6973 -2.0208  0.4213
14725TIP3   OH265589   4.864   0.506  15.242 -0.0301 -0.0984  0.0846
14725TIP3    H165590   4.887   0.515  15.334  1.1020  0.2192 -0.2178
14725TIP3    H265591   4.793   0.568  15.229  0.5757  0.6988  0.4906
14726TIP3   OH265592   3.351   6.136  13.279  0.2331  0.7109 -0.1669
14726TIP3    H165593   3.261   6.106  13.273  0.2288  0.3873  1.2371
14726TIP3    H265594   3.394   6.099  13.202 -0.7497  0.6121 -0.6807
14727TIP3   OH265595   4.346   3.441  13.406 -0.3568 -0.0207  0.1776
14727TIP3    H165596   4.257   3.439  13.370  0.4967  1.7108 -2.2841
14727TIP3    H265597   4.340   3.505  13.478 -0.8516  1.2213 -0.9160
14728TIP3   OH265598   3.237   6.688  12.244 -1.1107 -0.7028  0.1208
14728TIP3    H165599   3.233   6.776  12.282 -0.6675 -0.5105 -0.2523
14728TIP3    H265600   3.302   6.696  12.174  2.1762 -2.3372  2.7183
14729TIP3   OH265601   3.068   4.682   4.805  0.4970 -0.6350 -0.3440
14729TIP3    H165602   3.023   4.608   4.845  1.0534  0.3297  2.2210
14729TIP3    H265603   3.007   4.756   4.814  0.7919 -0.2998 -0.9801
14730TIP3   OH265604   2.657   2.239  16.282 -0.0956  0.0751  0.2909
14730TIP3    H165605   2.657   2.147  16.305  0.0024 -0.5156 -1.8419
14730TIP3    H265606   2.585   2.277  16.332 -0.6005 -1.3085  0.6383
14731TIP3   OH265607   1.552   4.519  13.315  0.3888  0.3678 -0.6825
14731TIP3    H165608   1.477   4.577  13.323  1.8810  2.2755  0.4963
14731TIP3    H265609   1.537   4.470  13.234 -1.9715  0.8177 -0.5788
14732TIP3   OH265610   1.340   5.458  11.433 -0.1205  0.3763  0.4649
14732TIP3    H165611   1.379   5.372  11.449 -0.6788 -0.3373 -1.6097
14732TIP3    H265612   1.302   5.451  11.345 -0.7925  2.5350  0.5166
14733TIP3   OH265613   4.513   0.948   1.323 -0.5793  0.0213 -0.5289
14733TIP3    H165614   4.423   0.955   1.292 -0.0333 -0.5611 -2.3167
14733TIP3    H265615   4.564   0.922   1.247  0.6366 -2.8682  1.1181
14734TIP3   OH265616   3.310   3.138   4.826 -0.2835  0.0060  0.1487
14734TIP3    H165617   3.380   3.147   4.891 -1.0466 -1.4873  1.2365
14734TIP3    H265618   3.322   3.213   4.768  0.8267  1.0476  1.6314
14735TIP3   OH265619   3.949   4.583   4.011  0.2166 -0.1568 -0.1755
14735TIP3    H165620   3.861   4.623   4.016  0.3000  0.0049  0.0371
14735TIP3    H265621   3.936   4.503   3.961 -0.3599 -0.9758  1.2294
14736TIP3   OH265622   4.515   4.957   0.575  0.1704 -0.8412  0.3821
14736TIP3    H165623   4.517   4.927   0.484  1.0572 -1.1451  0.4926
14736TIP3    H265624   4.535   5.050   0.569  0.3683 -0.8892  0.2773
14737TIP3   OH265625   4.721   1.612  12.511 -0.5352 -0.4983 -0.3458
14737TIP3    H165626   4.649   1.592  12.570  1.2527  0.1578  2.2477
14737TIP3    H265627   4.785   1.543  12.526 -0.3093 -0.7161 -2.1064
14738TIP3   OH265628   4.682   1.833  15.374 -0.0544 -0.1418 -0.1349
14738TIP3    H165629   4.613   1.899  15.377 -0.1559 -0.2826  1.9116
14738TIP3    H265630   4.758   1.876  15.414 -0.0827 -1.1762  1.0974
14739TIP3   OH265631   1.124   1.516   1.152  0.3870 -0.2903 -0.1752
14739TIP3    H165632   1.210   1.504   1.110  0.4484 -0.2725 -0.0565
14739TIP3    H265633   1.092   1.427   1.166 -0.1456 -0.2816 -1.2929
14740TIP3   OH265634   6.773   5.498   0.836 -0.3614  0.1690 -0.3829
14740TIP3    H165635   6.804   5.420   0.789  1.6922  0.4850  0.3039
14740TIP3    H265636   6.721   5.546   0.773 -0.4169 -1.0369 -1.2869
14741TIP3   OH265637   6.697   1.066   0.143  0.7782  0.1212  0.0526
14741TIP3    H165638   6.715   1.048   0.236 -1.3075 -0.5991  0.3697
14741TIP3    H265639   6.634   1.137   0.144  0.9604  0.2991 -0.8336
14742TIP3   OH265640   5.886   6.421   0.456 -0.0330  0.2537  0.3006
14742TIP3    H165641   5.979   6.420   0.479  0.5081  3.5377 -1.1819
14742TIP3    H265642   5.840   6.417   0.540  1.4533 -0.6793  1.1022
14743TIP3   OH265643   5.618   1.455   4.028 -0.4981 -0.5212 -0.0867
14743TIP3    H165644   5.524   1.463   4.047 -0.1882  1.3814  0.8813
14743TIP3    H265645   5.629   1.495   3.942 -0.4600 -0.0545  0.1367
14744TIP3   OH265646   4.987   0.794   4.241 -0.1485 -0.5167 -0.5446
14744TIP3    H165647   5.064   0.775   4.294 -1.7363  0.6114  2.3930
14744TIP3    H265648   4.998   0.884   4.212  0.3833 -0.8974 -1.5483
14745TIP3   OH265649   5.090   6.138   0.962  0.1157  0.0991  0.6300
14745TIP3    H165650   5.114   6.062   0.908  0.9968 -0.0164  1.1768
14745TIP3    H265651   5.035   6.101   1.032 -1.0650  0.2551 -0.1762
14746TIP3   OH265652   5.173   3.160   6.105  0.2842 -0.3479 -0.1361
14746TIP3    H165653   5.232   3.222   6.147  1.7239 -1.2007 -0.7798
14746TIP3    H265654   5.127   3.211   6.039  0.5731  0.2718  0.1321
14747TIP3   OH265655   1.008   2.555  10.601 -0.2891  0.2637  0.0939
14747TIP3    H165656   1.092   2.564  10.646 -0.3531  1.1081  0.0641
14747TIP3    H265657   1.015   2.473  10.552  1.2799  1.2396 -1.4563
14748TIP3   OH265658   3.184   4.033   5.717  0.3741  0.2540 -0.1474
14748TIP3    H165659   3.212   4.074   5.798 -0.4564  0.2783  0.1444
14748TIP3    H265660   3.264   4.001   5.676  0.7379 -0.3642  1.0179
14749TIP3   OH265661   1.027   2.753   5.336  0.3160 -0.6954 -0.1500
14749TIP3    H165662   1.026   2.658   5.351  0.0634 -0.4976  1.2229
14749TIP3    H265663   1.039   2.791   5.423 -2.0074  0.6009 -0.3152
14750TIP3   OH265664   0.792   0.522  12.277 -0.7886  0.4659 -0.1511
14750TIP3    H165665   0.838   0.585  12.332 -0.0667  0.4462 -0.7111
14750TIP3    H265666   0.700   0.531  12.302 -0.4011 -0.1476  1.6377
14751TIP3   OH265667   3.517   2.079  11.798 -0.1328  0.3119  0.2613
14751TIP3    H165668   3.593   2.072  11.856 -0.6120  1.5386  1.0683
14751TIP3    H265669   3.541   2.147  11.735  0.5179 -1.2354 -1.2616
14752TIP3   OH265670   2.164   6.469  13.641  0.0238  0.1560  0.1724
14752TIP3    H165671   2.093   6.501  13.585 -0.2940 -1.1020 -0.1675
14752TIP3    H265672   2.190   6.546  13.692 -0.0426  1.2038 -1.2998
14753TIP3   OH265673   5.718   5.748  13.874 -0.1035 -0.0173  0.4284
14753TIP3    H165674   5.646   5.768  13.934  0.9673 -0.3461  1.9166
14753TIP3    H265675   5.779   5.697  13.928  2.6085  2.6850  0.2029
14754TIP3   OH265676   3.886   5.445   0.685 -0.2700  0.8758  0.3719
14754TIP3    H165677   3.846   5.446   0.598  1.9149  0.6432 -0.7244
14754TIP3    H265678   3.941   5.367   0.685  0.5007  1.3830  1.6185
14755TIP3   OH265679   5.280   0.758   4.183  0.1182 -0.2057  1.2150
14755TIP3    H165680   5.239   0.797   4.106  0.7721 -0.7778  0.5674
14755TIP3    H265681   5.257   0.818   4.255 -0.7636  0.1586  0.6443
14756TIP3   OH265682   0.916   6.133   5.619 -0.5504 -0.6370 -0.6103
14756TIP3    H165683   0.959   6.048   5.629 -1.2812 -1.2144 -2.1088
14756TIP3    H265684   0.824   6.116   5.638 -0.2832  0.5176  2.2034
14757TIP3   OH265685   3.646   5.285  10.718  0.3311 -0.2458  0.8735
14757TIP3    H165686   3.637   5.379  10.705  0.3351 -0.1687  1.4089
14757TIP3    H265687   3.738   5.267  10.699  0.6373  0.0693  1.9997
14758TIP3   OH265688   1.917   4.624   1.205  0.0209 -0.1264 -0.2529
14758TIP3    H165689   1.830   4.644   1.240  0.2899  2.3540 -0.8063
14758TIP3    H265690   1.899   4.571   1.127 -0.9470 -0.3455  0.0974
14759TIP3   OH265691   6.074   3.603  12.801 -0.5546  0.0537 -0.0379
14759TIP3    H165692   6.088   3.539  12.871 -0.0331  2.4087  2.1869
14759TIP3    H265693   6.159   3.613  12.759 -0.4961 -0.2674  0.0054
14760TIP3   OH265694   2.917   3.293   3.003 -0.3950  0.3179  0.0568
14760TIP3    H165695   2.880   3.227   3.061 -0.7565  2.0051  1.8319
14760TIP3    H265696   3.008   3.302   3.032  0.1316 -0.4792 -1.2303
14761TIP3   OH265697   0.156   3.765  12.488  1.2974 -0.6126  0.2204
14761TIP3    H165698   0.116   3.796  12.568  0.5064 -0.5389 -0.1930
14761TIP3    H265699   0.238   3.725  12.516  1.5893  0.4601  0.9216
14762TIP3   OH265700   5.969   5.989  17.113 -0.5922  0.2648  0.4873
14762TIP3    H165701   6.042   5.995  17.052 -0.1618  1.0072  1.0560
14762TIP3    H265702   5.901   6.044  17.075 -0.3932  0.5783  0.5822
14763TIP3   OH265703   6.361   3.779  15.853 -0.4043  0.1099  0.4409
14763TIP3    H165704   6.284   3.833  15.833  0.4263  1.3843  0.5891
14763TIP3    H265705   6.389   3.744  15.769 -1.4474 -0.8093  0.4527
14764TIP3   OH265706   1.992   2.716  14.137 -0.2419  0.1819  0.2470
14764TIP3    H165707   2.018   2.746  14.050 -2.3474  0.2677 -0.4042
14764TIP3    H265708   1.941   2.637  14.121  1.1560 -1.0911  1.6096
14765TIP3   OH265709   2.039   0.285  12.977  0.0262 -0.0409  0.2222
14765TIP3    H165710   2.058   0.194  12.955  2.2357  0.3854  0.0956
14765TIP3    H265711   2.059   0.334  12.898 -0.5181  0.6282  0.4897
14766TIP3   OH265712   0.652   5.704  11.889  0.2606  0.5432 -0.1365
14766TIP3    H165713   0.564   5.687  11.921 -0.1725  1.7457 -0.6121
14766TIP3    H265714   0.702   5.625  11.911 -0.9115 -0.1300  0.1923
14767TIP3   OH265715   3.377   4.060   4.376  0.3948  0.2742 -0.2151
14767TIP3    H165716   3.362   4.119   4.450  2.2070  0.6770 -0.1082
14767TIP3    H265717   3.420   4.115   4.310 -0.6468 -0.2245 -1.3413
14768TIP3   OH265718   5.001   1.370   1.046 -0.1282  0.0498  0.3530
14768TIP3    H165719   4.997   1.311   1.121 -0.4174  0.2627  0.5054
14768TIP3    H265720   5.054   1.323   0.982  1.0230  0.3058  1.0802
14769TIP3   OH265721   3.510   6.013  11.459  0.3632 -0.0197  0.7094
14769TIP3    H165722   3.512   6.056  11.374 -2.1611  0.9842  1.0991
14769TIP3    H265723   3.455   6.068  11.514 -2.3998 -3.1995  1.4862
14770TIP3   OH265724   2.713   3.903  12.143  0.2736 -0.0726 -0.5931
14770TIP3    H165725   2.781   3.964  12.173 -0.4578  0.5510 -0.1621
14770TIP3    H265726   2.710   3.915  12.049 -0.6221  1.3772 -0.3951
14771TIP3   OH265727   4.236   2.726   2.069 -0.4347  0.0309 -0.0127
14771TIP3    H165728   4.268   2.675   1.995  1.3212  0.2872  0.5226
14771TIP3    H265729   4.171   2.786   2.032 -0.3326 -0.5516 -1.1521
14772TIP3   OH265730   2.772   2.855  13.961  0.2740  0.3076  0.0399
14772TIP3    H165731   2.715   2.860  14.038 -1.5211 -0.9765 -1.1275
14772TIP3    H265732   2.773   2.945  13.927  0.9189  0.8505  1.3837
14773TIP3   OH265733   2.252   6.224  13.785 -0.0957 -0.0634  0.2298
14773TIP3    H165734   2.246   6.306  13.736  1.5883  1.4303  2.2817
14773TIP3    H265735   2.333   6.233  13.835 -0.3699 -2.6005  1.2552
14774TIP3   OH265736   3.876   5.903   5.337  0.4206 -0.4427  0.5426
14774TIP3    H165737   3.828   5.912   5.419  1.8838 -0.8025  1.4881
14774TIP3    H265738   3.860   5.986   5.291 -2.7149 -1.3196 -0.1559
14775TIP3   OH265739   5.872   0.493  11.597 -0.5264 -0.6019 -0.1350
14775TIP3    H165740   5.933   0.529  11.661 -1.8214 -0.2772  0.9705
14775TIP3    H265741   5.922   0.426  11.550  1.1179  0.7315 -0.3505
14776TIP3   OH265742   6.663   0.933   1.587 -0.1569 -0.1850 -0.0285
14776TIP3    H165743   6.624   1.011   1.628  0.6319 -0.6970  1.7936
14776TIP3    H265744   6.746   0.965   1.549  0.1354 -0.1153  0.6599
14777TIP3   OH265745   6.102   3.985  12.099  0.1963 -0.2337  0.2002
14777TIP3    H165746   6.140   3.961  12.184 -0.3177  1.5999  0.9872
14777TIP3    H265747   6.098   4.080  12.100 -0.0834 -0.1795 -1.7969
14778TIP3   OH265748   0.609   2.507  14.167 -0.1305 -0.1644  0.0858
14778TIP3    H165749   0.647   2.488  14.252  1.1701  1.8712  0.0254
14778TIP3    H265750   0.675   2.478  14.104 -0.6223 -0.6602 -0.2168
14779TIP3   OH265751   4.528   4.788  11.002 -0.0231 -0.1512  0.4126
14779TIP3    H165752   4.600   4.822  10.948  0.4394  1.3401  1.8835
14779TIP3    H265753   4.449   4.823  10.961  0.0139 -1.9358 -1.3165
14780TIP3   OH265754   6.157   2.058   4.556  0.0591 -0.8554 -0.6034
14780TIP3    H165755   6.235   2.114   4.554 -0.0409 -0.7231 -1.5592
14780TIP3    H265756   6.145   2.036   4.648 -3.1388  5.3328  1.0159
14781TIP3   OH265757   1.041   0.488   1.175  0.2026 -0.6551  0.5588
14781TIP3    H165758   1.115   0.517   1.122  0.2282  0.0387  0.9633
14781TIP3    H265759   1.077   0.478   1.263  0.3191 -2.4225  0.3653
14782TIP3   OH265760   0.826   5.826  11.467 -0.1163  0.7523  0.2285
14782TIP3    H165761   0.797   5.864  11.384 -0.9778  0.0014  0.1736
14782TIP3    H265762   0.745   5.804  11.513  0.3601 -0.2870  0.5975
14783TIP3   OH265763   5.660   4.750  13.731  0.5957  0.4533  0.3354
14783TIP3    H165764   5.599   4.812  13.692 -0.3308 -1.2842 -1.1375
14783TIP3    H265765   5.696   4.702  13.657  1.7667 -0.3435  1.3719
14784TIP3   OH265766   1.447   3.617  16.911  0.2822  0.1081  0.1791
14784TIP3    H165767   1.354   3.592  16.909  0.1223  0.6975 -0.0370
14784TIP3    H265768   1.487   3.554  16.971  0.4205 -2.3544 -2.2757
14785TIP3   OH265769   1.459   5.457   5.256  0.6212  0.4425 -0.2971
14785TIP3    H165770   1.536   5.445   5.200  0.8943  0.4396  0.0746
14785TIP3    H265771   1.440   5.369   5.289  0.2475  0.3841 -0.6552
14786TIP3   OH265772   2.899   5.967   5.521 -0.5681 -0.3698 -0.3351
14786TIP3    H165773   2.827   5.906   5.509 -1.0548 -0.0401  0.7818
14786TIP3    H265774   2.885   6.004   5.608  1.9001 -1.5327  0.6336
14787TIP3   OH265775   6.260   0.496   2.375 -0.6562 -0.5379 -0.0813
14787TIP3    H165776   6.190   0.510   2.439 -0.0772  0.6791  0.2999
14787TIP3    H265777   6.231   0.544   2.297  0.6090  1.6543  0.7171
14788TIP3   OH265778   6.047   1.972  13.000  0.4358  0.3982  0.2865
14788TIP3    H165779   6.090   2.049  12.962  0.7716  0.0740 -0.0012
14788TIP3    H265780   6.006   2.005  13.080  1.8169  0.5853  0.9559
14789TIP3   OH265781   1.693   6.123  14.027 -0.1147 -0.1552  0.4055
14789TIP3    H165782   1.735   6.182  13.965  2.5046 -1.4874  0.7518
14789TIP3    H265783   1.697   6.170  14.111  2.6195 -0.9477  0.8290
14790TIP3   OH265784   3.093   1.943   3.736 -0.0661 -0.4183  0.4511
14790TIP3    H165785   3.178   1.977   3.710 -0.3270 -0.1982 -0.1274
14790TIP3    H265786   3.113   1.864   3.786  0.4122 -1.3491 -1.1757
14791TIP3   OH265787   5.493   1.923  13.337 -0.2571 -0.0984 -0.6344
14791TIP3    H165788   5.422   1.876  13.381 -0.2302  0.2033 -0.2528
14791TIP3    H265789   5.572   1.872  13.356 -0.2819 -0.0953 -0.5205
14792TIP3   OH265790   0.421   4.643   0.254  0.1012 -0.2684  0.0539
14792TIP3    H165791   0.432   4.571   0.191  1.3084  1.4267 -1.7799
14792TIP3    H265792   0.501   4.694   0.246 -1.0129  1.6984  0.7893
14793TIP3   OH265793   1.481   3.834  17.096 -0.4706 -0.0831  0.0408
14793TIP3    H165794   1.468   3.770  17.166  3.5144 -0.2986  0.8397
14793TIP3    H265795   1.515   3.782  17.023  0.9300  0.7920  0.0289
14794TIP3   OH265796   0.934   1.044   4.929  0.3260  0.1742 -0.2144
14794TIP3    H165797   0.921   0.966   4.982 -2.1771  0.0647 -0.8799
14794TIP3    H265798   1.013   1.026   4.878  3.0364  0.3775  3.4854
14795TIP3   OH265799   2.112   4.382   4.383 -0.6819  0.1578 -0.3206
14795TIP3    H165800   2.029   4.378   4.431 -1.0069  2.4178 -0.5871
14795TIP3    H265801   2.088   4.364   4.292 -1.2769  2.6815 -0.7286
14796TIP3   OH265802   5.669   0.860  13.880 -0.3218 -0.4841  0.2817
14796TIP3    H165803   5.647   0.771  13.853 -0.3745 -0.3957  0.0294
14796TIP3    H265804   5.586   0.908  13.876 -0.1426 -0.2110 -0.4353
14797TIP3   OH265805   4.085   3.743   0.996  0.0240  0.1494 -1.1779
14797TIP3    H165806   4.056   3.768   0.908  2.3509  0.5823 -1.8738
14797TIP3    H265807   4.169   3.787   1.007 -0.1461 -0.0065  1.2372
14798TIP3   OH265808   5.064   4.010   2.735 -0.1644  0.2844  0.1704
14798TIP3    H165809   5.020   4.028   2.652  0.2602 -1.6237 -0.5370
14798TIP3    H265810   5.157   4.020   2.716  0.0753 -1.9270 -0.1700
14799TIP3   OH265811   1.871   4.951  11.189  0.0805 -0.1798 -0.2927
14799TIP3    H165812   1.923   4.929  11.112 -0.7302 -0.3617 -0.7915
14799TIP3    H265813   1.829   5.034  11.166  0.1292 -0.0409  0.1081
14800TIP3   OH265814   3.557   3.184  14.156 -0.4544 -0.3804 -0.2554
14800TIP3    H165815   3.602   3.154  14.077  0.8469 -0.0169  0.3270
14800TIP3    H265816   3.510   3.263  14.128  2.0427  1.2617 -0.1465
14801TIP3   OH265817   1.271   5.261   4.639  0.4701 -0.0932  0.1473
14801TIP3    H165818   1.242   5.298   4.556  2.9251  0.8498 -0.3896
14801TIP3    H265819   1.282   5.337   4.697  3.3385 -0.0994 -0.2383
14802TIP3   OH265820   5.216   5.333   1.940  0.2090 -0.4347 -0.0322
14802TIP3    H165821   5.172   5.318   2.024  0.2781  1.3666  0.3647
14802TIP3    H265822   5.225   5.428   1.934  1.1745 -0.5864 -1.5956
14803TIP3   OH265823   0.413   4.695  16.353  0.0332  0.4067  0.2856
14803TIP3    H165824   0.476   4.766  16.367 -0.2669  0.9518 -0.9752
14803TIP3    H265825   0.378   4.712  16.265  0.3322 -1.6066 -0.2592
14804TIP3   OH265826   6.308   2.049   3.583  0.1751  0.2032  0.2337
14804TIP3    H165827   6.346   2.031   3.497  1.2022  0.9672  0.5053
14804TIP3    H265828   6.216   2.023   3.575  0.8764 -2.5586 -0.2093
14805TIP3   OH265829   4.931   1.280  14.469  0.0057  0.0991 -0.4123
14805TIP3    H165830   4.898   1.196  14.502 -2.8876  2.0188  2.0463
14805TIP3    H265831   4.982   1.316  14.542  1.6277  0.3861 -1.6122
14806TIP3   OH265832   4.011   6.103   5.901 -0.2983 -0.2749 -0.5230
14806TIP3    H165833   4.034   6.132   5.989  0.8502  1.1961 -1.2708
14806TIP3    H265834   4.029   6.008   5.902 -0.2267 -0.2653  0.7875
14807TIP3   OH265835   2.303   3.641   0.830  0.3322 -0.6566  0.3254
14807TIP3    H165836   2.289   3.578   0.759  1.4643 -1.5014  0.8208
14807TIP3    H265837   2.216   3.678   0.846 -0.0713 -0.9551 -1.0141
14808TIP3   OH265838   2.701   3.608  15.868 -0.4847  0.7095  0.6329
14808TIP3    H165839   2.612   3.595  15.901 -0.7294  1.0669  0.1342
14808TIP3    H265840   2.706   3.701  15.848 -0.6083  0.4001 -1.0148
14809TIP3   OH265841   5.063   5.459  16.178  0.0836 -0.4501 -0.0767
14809TIP3    H165842   5.103   5.381  16.215  0.4360  1.1602  3.3497
14809TIP3    H265843   5.137   5.516  16.156 -0.2101  0.2709  0.7747
14810TIP3   OH265844   5.318   5.765  15.352 -0.0129  0.1990 -0.6011
14810TIP3    H165845   5.382   5.703  15.318  0.7585  0.2472  0.6895
14810TIP3    H265846   5.331   5.763  15.447 -1.0668  1.1527 -0.4127
14811TIP3   OH265847   3.846   3.217  10.751 -0.3114 -0.0073 -0.2173
14811TIP3    H165848   3.886   3.286  10.699 -0.1818 -0.5151 -0.8038
14811TIP3    H265849   3.761   3.203  10.711  0.6815 -2.0043 -1.8057
14812TIP3   OH265850   6.009   5.362   4.538  0.7230 -0.3910 -0.8531
14812TIP3    H165851   6.006   5.457   4.529  0.3339 -0.2757  0.3983
14812TIP3    H265852   5.919   5.333   4.524  1.1185 -0.8042 -3.1026
14813TIP3   OH265853   1.317   5.318   0.095 -0.4203 -0.4486 -0.2903
14813TIP3    H165854   1.231   5.303   0.056  0.2671 -1.0597 -1.6389
14813TIP3    H265855   1.348   5.398   0.054  1.4522 -2.4964 -3.2281
14814TIP3   OH265856   5.404   3.239  15.231  0.4479 -0.1394  0.5096
14814TIP3    H165857   5.398   3.222  15.325 -0.9383 -0.7288  0.3412
14814TIP3    H265858   5.365   3.326  15.220 -1.1838 -0.8624  0.2859
14815TIP3   OH265859   3.877   6.573  15.056 -0.1815 -0.4490 -0.2128
14815TIP3    H165860   3.793   6.589  15.099 -0.0950 -1.7057  0.4748
14815TIP3    H265861   3.937   6.636  15.096 -0.5287 -0.3482  0.1630
14816TIP3   OH265862   1.823   3.435  12.291 -0.6020 -0.3002 -0.5085
14816TIP3    H165863   1.749   3.432  12.352 -0.1737 -0.3416  0.0101
14816TIP3    H265864   1.853   3.526  12.293  0.4542 -0.6473  0.6095
14817TIP3   OH265865   2.662   5.490  10.524  0.2735  0.4285 -0.3186
14817TIP3    H165866   2.621   5.407  10.549  0.7022  0.3565  0.1543
14817TIP3    H265867   2.754   5.468  10.510  0.3879  0.8241 -0.1996
14818TIP3   OH265868   3.975   5.968  14.880 -0.3787  0.1616 -0.3361
14818TIP3    H165869   3.998   5.875  14.880 -1.2331 -0.0581  0.4677
14818TIP3    H265870   3.886   5.971  14.914 -0.0380  1.3587  0.5207
14819TIP3   OH265871   6.608   0.603  14.092  0.6472 -0.2394  0.2670
14819TIP3    H165872   6.634   0.567  14.177  0.3421 -1.4657 -0.1523
14819TIP3    H265873   6.513   0.594  14.091  0.8313 -2.7113 -1.2764
14820TIP3   OH265874   6.307   6.380  16.385  0.3391 -0.2546 -0.2147
14820TIP3    H165875   6.352   6.396  16.468  1.9089  0.2875 -1.1269
14820TIP3    H265876   6.378   6.360  16.323 -0.7853 -0.4872 -1.4661
14821TIP3   OH265877   5.280   0.722   2.955 -0.2483 -0.4827  0.0462
14821TIP3    H165878   5.250   0.804   2.993  0.2324  0.0594 -0.7190
14821TIP3    H265879   5.290   0.663   3.030 -1.8496 -0.2627  0.4813
14822TIP3   OH265880   2.099   2.137  11.055 -0.4416 -0.3149  0.3852
14822TIP3    H165881   2.125   2.228  11.042  1.3686 -0.5588  1.8417
14822TIP3    H265882   2.165   2.086  11.006 -2.8159 -0.8779 -2.4892
14823TIP3   OH265883   3.042   1.067   0.061 -0.1463 -0.5882  0.0844
14823TIP3    H165884   3.007   1.013   0.132 -0.3077 -0.4324  0.1241
14823TIP3    H265885   2.968   1.081   0.002 -0.7981  1.6035  1.2839
14824TIP3   OH265886   3.443   4.068   1.655  0.2895 -0.4788  0.2469
14824TIP3    H165887   3.462   4.006   1.586  0.3646  2.2969 -2.4270
14824TIP3    H265888   3.528   4.109   1.675  0.1270 -0.6866  1.4346
14825TIP3   OH265889   2.494   0.083   5.203  0.4053 -0.3131  0.4081
14825TIP3    H165890   2.475   0.152   5.267 -2.0375  0.1281 -0.6725
14825TIP3    H265891   2.532   0.130   5.129 -1.7260  0.0243 -0.5299
14826TIP3   OH265892   2.313   0.735  17.256  0.3249  0.1414 -0.1604
14826TIP3    H165893   2.222   0.750  17.232  0.5677  1.2151 -0.4938
14826TIP3    H265894   2.348   0.823  17.273  1.0805 -0.3169  0.7706
14827TIP3   OH265895   3.746   3.717   4.923  0.1831 -0.2719 -0.0996
14827TIP3    H165896   3.805   3.728   4.998 -0.2288  0.6502  0.0994
14827TIP3    H265897   3.805   3.712   4.847  0.5711 -0.6191  0.2156
14828TIP3   OH265898   0.497   0.452   4.159 -0.4148 -0.3649 -0.7328
14828TIP3    H165899   0.516   0.527   4.215  1.9944 -0.7745 -0.9036
14828TIP3    H265900   0.437   0.487   4.092  1.0552  1.5822 -1.1267
14829TIP3   OH265901   5.676   5.002  14.627  0.0558 -0.1311 -0.0323
14829TIP3    H165902   5.724   5.084  14.611  0.3634 -0.6534 -2.0256
14829TIP3    H265903   5.689   4.985  14.720 -0.1387  2.1545  0.4847
14830TIP3   OH265904   3.073   0.627  14.758 -0.2326 -0.1216  0.3746
14830TIP3    H165905   3.140   0.562  14.780  0.4850  1.0967  1.9366
14830TIP3    H265906   3.010   0.578  14.704  1.1870 -1.6437 -0.0069
14831TIP3   OH265907   4.586   0.235   6.406  0.2268  0.6068  0.0814
14831TIP3    H165908   4.528   0.247   6.481 -1.9856 -0.7651 -1.2879
14831TIP3    H265909   4.650   0.306   6.413 -1.4247  2.0109  1.8802
14832TIP3   OH265910   0.920   5.772   4.295 -0.6407 -0.1399  0.1003
14832TIP3    H165911   0.930   5.832   4.220  0.6280  0.5922  0.8167
14832TIP3    H265912   0.829   5.745   4.292 -0.8214  0.5267 -1.2337
14833TIP3   OH265913   1.778   6.188   3.852 -0.3204  0.3450  0.1125
14833TIP3    H165914   1.727   6.109   3.869  0.6419 -0.7007 -1.5914
14833TIP3    H265915   1.774   6.200   3.757  2.4294  0.2891 -0.0844
14834TIP3   OH265916   0.279   1.350  10.958 -0.2347 -0.0805 -0.0899
14834TIP3    H165917   0.295   1.329  10.866 -2.5488 -2.2443 -0.1008
14834TIP3    H265918   0.219   1.424  10.957 -0.2189 -0.0720 -0.3013
14835TIP3   OH265919   3.992   5.298  14.558 -0.1955  0.2882 -0.6240
14835TIP3    H165920   3.993   5.393  14.576  1.1841  0.2337 -0.2670
14835TIP3    H265921   3.961   5.291  14.468  0.4025  1.1538 -0.9174
14836TIP3   OH265922   1.738   1.589   2.893  0.1118  0.5109  0.0643
14836TIP3    H165923   1.729   1.590   2.988  0.1669  1.8160  0.0744
14836TIP3    H265924   1.828   1.558   2.877  0.4466  1.2293  0.4876
14837TIP3   OH265925   2.269   1.026  17.081  0.3275  0.1333  0.0249
14837TIP3    H165926   2.194   1.083  17.065  0.6115  0.7969  0.9238
14837TIP3    H265927   2.331   1.046  17.011 -0.2479 -0.2842 -0.6135
14838TIP3   OH265928   2.927   0.486  14.016  0.2733  0.8839  0.1990
14838TIP3    H165929   2.926   0.522  13.927 -0.5514 -1.0359 -0.6217
14838TIP3    H265930   2.996   0.420  14.014 -0.3918  0.1530  0.6739
14839TIP3   OH265931   2.334   4.175  14.275  0.4549  0.3238 -0.3715
14839TIP3    H165932   2.402   4.209  14.333  1.5910  1.1601 -2.1063
14839TIP3    H265933   2.375   4.172  14.188 -1.2050 -0.7568 -1.1829
14840TIP3   OH265934   4.067   2.506   4.630 -0.1387 -0.0396  0.4119
14840TIP3    H165935   4.135   2.573   4.622  0.9459 -1.1513 -0.0698
14840TIP3    H265936   4.061   2.490   4.725 -1.2471  1.5211  0.6445
14841TIP3   OH265937   6.235   4.868  16.252 -0.4017 -0.0928 -0.2862
14841TIP3    H165938   6.210   4.952  16.214 -2.8367 -0.5588  0.1014
14841TIP3    H265939   6.188   4.803  16.200  1.6009 -1.2868 -0.7039
14842TIP3   OH265940   5.528   6.266  10.762  0.3718  0.1550  0.3851
14842TIP3    H165941   5.589   6.209  10.809  0.5352 -0.8411 -0.9850
14842TIP3    H265942   5.583   6.335  10.725  0.7522 -0.9323 -1.1386
14843TIP3   OH265943   3.401   4.798  13.553  0.1328 -0.2948  0.0865
14843TIP3    H165944   3.418   4.815  13.646 -2.1382  0.4038  0.4451
14843TIP3    H265945   3.367   4.708  13.551 -1.2827  0.2049  0.2022
14844TIP3   OH265946   2.447   6.681   2.874  0.0414  0.4403  0.4361
14844TIP3    H165947   2.423   6.749   2.937  0.4379  2.4482 -1.4662
14844TIP3    H265948   2.534   6.705   2.844 -0.2203 -0.3145 -1.0326
14845TIP3   OH265949   3.823   3.838  12.544 -1.0552 -0.3566  0.0698
14845TIP3    H165950   3.871   3.907  12.591 -0.9382  0.2511 -0.9126
14845TIP3    H265951   3.866   3.833  12.459  0.0140 -2.8228  0.6749
14846TIP3   OH265952   1.980   2.119  14.908  0.8083  0.9841  0.4748
14846TIP3    H165953   2.056   2.101  14.853 -0.0749 -0.0681 -0.4427
14846TIP3    H265954   2.017   2.132  14.996  1.9977 -0.1616  0.1849
14847TIP3   OH265955   3.228   1.672  16.849 -0.5123 -0.2057  0.3665
14847TIP3    H165956   3.165   1.701  16.783  0.0105  1.1845  0.4417
14847TIP3    H265957   3.313   1.681  16.807 -0.3587 -2.8365 -0.0089
14848TIP3   OH265958   6.371   2.833   1.455  0.2219  0.0614 -0.1162
14848TIP3    H165959   6.401   2.744   1.474 -1.4382 -0.8421 -1.5232
14848TIP3    H265960   6.334   2.864   1.538  0.5674 -0.6444  0.3104
14849TIP3   OH265961   2.470   2.745   1.184  0.7102  0.5683  0.5982
14849TIP3    H165962   2.503   2.682   1.120 -1.1825 -1.2445  1.2669
14849TIP3    H265963   2.395   2.786   1.140  0.8074  0.9968  0.8330
14850TIP3   OH265964   0.394   4.528  11.407 -0.3517 -0.1648  0.4725
14850TIP3    H165965   0.327   4.461  11.417  0.1117 -0.5733  0.9334
14850TIP3    H265966   0.476   4.478  11.405 -0.1519  0.1620 -1.8713
14851TIP3   OH265967   1.211   4.443   0.509 -0.3283 -0.7379  0.7701
14851TIP3    H165968   1.241   4.415   0.422  1.7316  0.0269  1.1758
14851TIP3    H265969   1.289   4.436   0.564 -1.7520 -1.8569  2.7561
14852TIP3   OH265970   5.391   5.443  13.488 -0.4228 -0.1150  0.1977
14852TIP3    H165971   5.462   5.401  13.439  0.4812  1.6197 -0.0685
14852TIP3    H265972   5.324   5.376  13.496  0.1521 -0.9946 -1.8700
14853TIP3   OH265973   3.267   4.837  13.036  0.5378  0.1510 -0.2958
14853TIP3    H165974   3.308   4.863  13.118  0.2206 -1.0098  0.2480
14853TIP3    H265975   3.196   4.778  13.062  1.7271 -1.9285 -1.4795
14854TIP3   OH265976   2.579   2.124  12.753 -0.0491  0.1024  0.1542
14854TIP3    H165977   2.631   2.044  12.756  1.9478  1.3779  1.7532
14854TIP3    H265978   2.494   2.098  12.788  0.5496 -1.3321  0.6319
14855TIP3   OH265979   1.173   4.914  14.903  0.3068 -0.0946 -0.0188
14855TIP3    H165980   1.211   4.943  14.986  1.3574 -0.8643 -0.2199
14855TIP3    H265981   1.239   4.934  14.837  0.0472 -0.7346 -0.4861
14856TIP3   OH265982   0.303   5.940  12.490 -0.0103  0.2873 -0.1650
14856TIP3    H165983   0.334   6.031  12.486  2.7145 -0.4782  1.1431
14856TIP3    H265984   0.273   5.929  12.580  0.9166 -0.4664  0.0579
14857TIP3   OH265985   6.187   6.067  15.044 -0.2137  0.6162  0.1305
14857TIP3    H165986   6.212   5.991  14.991 -0.3885 -0.2154  1.2137
14857TIP3    H265987   6.176   6.138  14.980  2.3109  0.3695 -0.6665
14858TIP3   OH265988   5.406   2.156   3.093 -0.4080  0.3860 -0.5614
14858TIP3    H165989   5.481   2.099   3.077 -1.1505 -0.4751 -1.1059
14858TIP3    H265990   5.356   2.153   3.011 -0.1696  2.3170 -0.8443
14859TIP3   OH265991   6.026   4.703  11.712  0.3104 -0.2551  0.5721
14859TIP3    H165992   6.011   4.742  11.798 -0.4528  0.9270 -0.0741
14859TIP3    H265993   6.073   4.770  11.663 -0.9811 -0.1115 -0.5471
14860TIP3   OH265994   2.878   6.766  12.448  0.2220 -0.4182  0.2905
14860TIP3    H165995   2.888   6.828  12.376  1.2224 -1.5420 -0.5755
14860TIP3    H265996   2.844   6.819  12.521  1.1550  1.1653 -0.3687
14861TIP3   OH265997   4.294   6.117  17.004 -0.4158 -0.2591 -0.0262
14861TIP3    H165998   4.279   6.146  17.094  0.0693 -0.1457  0.0176
14861TIP3    H265999   4.228   6.164  16.953 -0.8996 -0.5614  0.3086
14862TIP3   OH266000   3.196   1.923  12.944  0.0137  0.6610  0.8235
14862TIP3    H166001   3.118   1.870  12.955 -0.4940  1.1403 -0.3086
14862TIP3    H266002   3.203   1.972  13.026 -1.1565  0.9664  0.7565
14863TIP3   OH266003   1.602   0.525  16.323 -0.3944  0.2082 -1.1497
14863TIP3    H166004   1.680   0.483  16.359  0.1575 -0.3848 -2.9249
14863TIP3    H266005   1.595   0.607  16.371  1.3371  0.2760 -0.9343
14864TIP3   OH266006   0.384   0.632   3.962  0.1174 -0.2230 -0.4912
14864TIP3    H166007   0.379   0.585   3.879  1.0090  1.7669 -1.7638
14864TIP3    H266008   0.384   0.725   3.936  2.5935  0.4622  1.5685
14865TIP3   OH266009   6.140   6.245   5.603 -0.1076  0.2775  0.2836
14865TIP3    H166010   6.217   6.203   5.564 -1.3214 -0.8737 -0.9934
14865TIP3    H266011   6.170   6.333   5.626  2.5711 -1.1112  3.0401
14866TIP3   OH266012   0.022   1.729  16.523 -0.2696 -0.3057  0.4238
14866TIP3    H166013   0.068   1.688  16.450 -2.3912 -2.3799  0.1221
14866TIP3    H266014  -0.063   1.685  16.525 -0.4839 -0.0307  3.8707
14867TIP3   OH266015   1.581   2.832   2.744 -0.0735  0.0887  0.8889
14867TIP3    H166016   1.487   2.836   2.757 -0.1266  1.0780  0.3673
14867TIP3    H266017   1.592   2.799   2.655  0.1389 -1.8089  1.5857
14868TIP3   OH266018   4.915   3.837   1.617 -0.2948  0.2628 -0.6304
14868TIP3    H166019   4.869   3.777   1.676  1.8131 -1.6483 -0.8140
14868TIP3    H266020   4.963   3.896   1.675 -0.6093  0.3310 -0.4387
14869TIP3   OH266021   4.857   3.720   3.429 -0.1574 -0.5162  0.2773
14869TIP3    H166022   4.932   3.702   3.372  1.8264 -4.5289  3.5196
14869TIP3    H266023   4.897   3.744   3.513 -2.4082 -2.5184  2.0647
14870TIP3   OH266024   3.075   5.990  11.683 -0.2997  0.1096  0.1104
14870TIP3    H166025   2.995   5.945  11.711 -0.0973 -1.3106 -1.4120
14870TIP3    H266026   3.048   6.036  11.603  0.5028 -0.7890 -0.6941
14871TIP3   OH266027   2.965   3.631  16.293  0.0836  0.6795 -0.0345
14871TIP3    H166028   3.023   3.686  16.241 -1.5090  1.4215 -1.0954
14871TIP3    H266029   2.892   3.689  16.317 -0.1192 -0.1464  1.4984
14872TIP3   OH266030   5.234   2.026  12.287  0.0807  0.0353 -0.7007
14872TIP3    H166031   5.244   2.005  12.380  0.1477  0.8596 -0.5108
14872TIP3    H266032   5.266   2.116  12.279 -0.0834  0.0361 -1.4945
14873TIP3   OH266033   5.255   0.729   5.104 -0.1011 -0.3942 -0.3013
14873TIP3    H166034   5.220   0.783   5.034 -0.3606 -0.8664 -0.5382
14873TIP3    H266035   5.228   0.640   5.082 -0.3311 -0.5302  0.4813
14874TIP3   OH266036   4.829   0.855   3.843 -0.2869  0.0575 -0.1926
14874TIP3    H166037   4.869   0.941   3.849 -1.1947  0.5885 -1.3345
14874TIP3    H266038   4.738   0.868   3.871  0.0509 -0.9415  1.4936
14875TIP3   OH266039   5.642   2.252  14.248 -0.4072 -0.3471 -0.2257
14875TIP3    H166040   5.704   2.212  14.309  0.5271  1.1693 -0.1475
14875TIP3    H266041   5.651   2.202  14.167  1.5149  0.3213 -0.4683
14876TIP3   OH266042   1.070   0.982   2.562  0.1655  0.0616 -0.3365
14876TIP3    H166043   1.020   1.016   2.488 -0.2030  1.0314  0.3274
14876TIP3    H266044   1.143   1.043   2.571 -0.9165  1.1953  1.3467
14877TIP3   OH266045   1.625   0.368   2.585  0.0520 -0.2367  0.7164
14877TIP3    H166046   1.684   0.294   2.580  0.5028 -0.0278  2.2137
14877TIP3    H266047   1.620   0.402   2.496  0.8663 -1.2701  0.2614
14878TIP3   OH266048   0.659   5.066   2.363 -0.1625 -0.3443 -0.2225
14878TIP3    H166049   0.739   5.092   2.409 -0.0900  0.5885 -0.8490
14878TIP3    H266050   0.681   4.981   2.325  0.5446 -0.1057 -0.3768
14879TIP3   OH266051   2.730   6.484   1.167  0.3639 -0.3680 -0.0702
14879TIP3    H166052   2.714   6.393   1.140  1.0700 -0.6077  0.2846
14879TIP3    H266053   2.822   6.499   1.145  0.2824  0.2221 -0.0108
14880TIP3   OH266054   4.185   3.785  16.015  0.3237  0.1570  0.2262
14880TIP3    H166055   4.108   3.808  15.963 -0.5767 -1.5890  0.7440
14880TIP3    H266056   4.256   3.778  15.950 -0.6728 -1.4684 -0.7579
14881TIP3   OH266057   0.865   4.620  11.635  0.4949  0.2606 -0.5924
14881TIP3    H166058   0.954   4.599  11.661  0.8581 -1.1593 -2.7030
14881TIP3    H266059   0.865   4.612  11.540 -2.0532 -0.5788 -0.6063
14882TIP3   OH266060   4.347   4.633   4.463 -0.2902  0.2352 -0.1639
14882TIP3    H166061   4.384   4.579   4.533  0.1829  1.1355  0.2978
14882TIP3    H266062   4.282   4.688   4.506 -0.5018  0.3008 -0.5596
14883TIP3   OH266063   6.245   0.207  12.599  0.3366  0.1090  0.0344
14883TIP3    H166064   6.260   0.196  12.693  0.7834 -1.3980 -0.1875
14883TIP3    H266065   6.320   0.258  12.568 -0.1114  1.1297  0.5664
14884TIP3   OH266066   4.994   2.372   4.002 -0.8860  0.3055  1.0463
14884TIP3    H166067   4.960   2.357   3.913 -0.2417  0.4548  0.7702
14884TIP3    H266068   4.989   2.287   4.045 -3.4215  0.6723  1.6653
14885TIP3   OH266069   0.609   1.332  12.079  0.9501  0.5447  0.3374
14885TIP3    H166070   0.676   1.316  12.012  0.3398 -1.1474  0.0706
14885TIP3    H266071   0.612   1.426  12.094  1.4312  0.9303 -1.7655
14886TIP3   OH266072   2.324   5.114  16.455 -0.2625 -0.1257  0.5762
14886TIP3    H166073   2.278   5.195  16.436 -0.3813 -0.6453 -1.6651
14886TIP3    H266074   2.255   5.049  16.468 -0.2269 -0.5490 -1.1008
14887TIP3   OH266075   5.884   6.699   2.010 -0.1011  0.1021  0.6436
14887TIP3    H166076   5.848   6.612   1.994  0.8427 -0.0264 -0.9979
14887TIP3    H266077   5.976   6.683   2.032 -0.0362  0.6673  0.8217
14888TIP3   OH266078   5.666   1.648   1.224 -0.7051 -0.7246  0.3035
14888TIP3    H166079   5.582   1.680   1.256 -0.6350 -1.9476  1.8239
14888TIP3    H266080   5.645   1.604   1.141 -0.9764  1.9982 -1.1737
14889TIP3   OH266081   2.784   4.160  14.991  0.0224 -0.3833 -0.1236
14889TIP3    H166082   2.791   4.211  14.911  0.5943  0.0929  0.2188
14889TIP3    H266083   2.874   4.147  15.020 -0.2075  1.6964  1.8237
14890TIP3   OH266084   5.421   4.174   1.369  0.4963  0.3394  0.2068
14890TIP3    H166085   5.376   4.208   1.291  1.6724  1.9629  0.1696
14890TIP3    H266086   5.514   4.188   1.350  1.0182 -2.2528  0.5712
14891TIP3   OH266087   5.886   5.269  12.920 -0.3300 -0.4170  0.6186
14891TIP3    H166088   5.939   5.269  12.840  1.4720  1.5928  1.7017
14891TIP3    H266089   5.916   5.193  12.969  1.0826  0.2975  0.8966
14892TIP3   OH266090   5.160   5.300   1.197  0.2906 -0.0327  0.1325
14892TIP3    H166091   5.150   5.368   1.131  0.0792  0.2062  0.4073
14892TIP3    H266092   5.182   5.348   1.277  3.2983 -0.4692 -0.3265
14893TIP3   OH266093   6.361   3.215  13.420 -0.0320  0.3380  0.0398
14893TIP3    H166094   6.382   3.288  13.479 -0.5528  0.7766 -0.3125
14893TIP3    H266095   6.284   3.174  13.459 -0.7832  1.0332 -0.6713
14894TIP3   OH266096   3.649   6.115  16.193  0.0455  0.3117  0.1496
14894TIP3    H166097   3.660   6.190  16.134 -0.2310 -0.0119 -0.3173
14894TIP3    H266098   3.560   6.124  16.227  0.0783  0.2982  0.2386
14895TIP3   OH266099   0.467   1.919   2.365  0.1334 -0.1398  0.0877
14895TIP3    H166100   0.441   1.974   2.292  1.1421 -0.6492 -0.6821
14895TIP3    H266101   0.559   1.897   2.348 -0.0259 -1.4376  0.7498
14896TIP3   OH266102   0.141   4.791   5.677 -0.1383  0.0222 -0.0894
14896TIP3    H166103   0.057   4.826   5.706 -0.3578  0.6114 -1.3619
14896TIP3    H266104   0.197   4.796   5.755 -1.2947 -0.4678  0.7937
14897TIP3   OH266105   4.124   3.908  16.548  0.0353  0.2302 -0.6565
14897TIP3    H166106   4.101   3.974  16.613  0.2266  0.6930 -1.0501
14897TIP3    H266107   4.065   3.925  16.475  0.3887  0.2471 -0.9385
14898TIP3   OH266108   3.322   2.868  16.715  0.0295 -0.0847 -0.3019
14898TIP3    H166109   3.356   2.784  16.684  0.8791  0.7036 -1.6306
14898TIP3    H266110   3.370   2.885  16.796 -0.4155 -1.0237  0.1812
14899TIP3   OH266111   0.247   6.684   0.585  0.3166 -0.1590  0.4081
14899TIP3    H166112   0.301   6.700   0.663 -0.5848  1.2903  0.7827
14899TIP3    H266113   0.303   6.710   0.512  0.3748  0.7439  0.7503
14900TIP3   OH266114   3.809   3.782  14.743 -0.1146  0.0435  0.3151
14900TIP3    H166115   3.767   3.704  14.705 -1.4355  0.8877 -0.0194
14900TIP3    H266116   3.886   3.748  14.789 -0.5188 -1.4248 -0.0498
14901TIP3   OH266117   4.680   4.085  14.287  0.5362  0.0953  0.0363
14901TIP3    H166118   4.607   4.143  14.309  1.3037  1.2784 -0.4146
14901TIP3    H266119   4.643   3.997  14.291 -0.9553  0.6671 -0.3174
14902TIP3   OH266120   5.952   3.302  15.633 -0.6114 -0.1105  0.6514
14902TIP3    H166121   6.038   3.270  15.606 -0.4916  0.0453  0.8433
14902TIP3    H266122   5.967   3.392  15.659 -1.1179  0.4164 -0.7630
14903TIP3   OH266123   3.996   3.391  10.958  0.4185  0.7174 -0.2596
14903TIP3    H166124   3.914   3.428  10.991  0.2378  1.2912 -1.2910
14903TIP3    H266125   4.058   3.463  10.962  0.7874  0.3801  0.1934
14904TIP3   OH266126   3.082   2.391  16.895  0.0781  0.5810 -0.4796
14904TIP3    H166127   3.107   2.478  16.865  0.5813  0.1389 -1.3799
14904TIP3    H266128   3.101   2.334  16.821  1.3658 -0.5591  0.6694
14905TIP3   OH266129   4.417   3.332  11.179 -0.1902  0.1232  0.2586
14905TIP3    H166130   4.375   3.264  11.128  0.2674  0.0161  0.0193
14905TIP3    H266131   4.490   3.288  11.223 -0.2004  0.3485  0.5041
14906TIP3   OH266132   3.551   6.040   5.297 -0.0006  0.1485  0.1510
14906TIP3    H166133   3.550   5.954   5.340  1.5366  0.7124  1.4369
14906TIP3    H266134   3.527   6.101   5.367  1.0901  0.9608 -0.1621
14907TIP3   OH266135   6.418   1.891  15.877  0.0576  0.0649  0.0651
14907TIP3    H166136   6.364   1.885  15.956 -0.5010 -0.2318 -0.3357
14907TIP3    H266137   6.488   1.952  15.901 -2.0088  2.7728 -0.3024
14908TIP3   OH266138   5.508   2.896  15.321  0.2011 -0.5079  0.1254
14908TIP3    H166139   5.593   2.856  15.305  0.1891 -1.1000  1.3480
14908TIP3    H266140   5.483   2.863  15.408 -0.1894  1.5389  0.8459
14909TIP3   OH266141   4.573   3.020   3.089  0.2547 -0.3373  0.5592
14909TIP3    H166142   4.628   2.942   3.076 -0.6018 -0.7731 -0.6314
14909TIP3    H266143   4.579   3.067   3.006 -0.9260 -0.2379  0.5131
14910TIP3   OH266144   5.206   2.780   0.902 -0.3048  0.1113 -0.6835
14910TIP3    H166145   5.160   2.698   0.882 -3.0697  0.7013  2.4489
14910TIP3    H266146   5.269   2.756   0.970  0.1147  0.3444 -0.9804
14911TIP3   OH266147   4.566   4.151  13.084  0.7609  0.3231  0.1779
14911TIP3    H166148   4.569   4.146  13.179 -0.3663  0.6179  0.2447
14911TIP3    H266149   4.506   4.224  13.066 -0.2872 -0.7399 -0.7533
14912TIP3   OH266150   1.752   6.255   3.566 -0.6321 -0.0130  0.6989
14912TIP3    H166151   1.794   6.323   3.514 -1.8564  0.6137  0.4842
14912TIP3    H266152   1.659   6.276   3.562 -1.0850 -1.8846  0.3758
14913TIP3   OH266153   2.356   6.584   0.654  0.4104 -0.8644  0.7063
14913TIP3    H166154   2.288   6.520   0.633 -0.5731  0.6397 -1.0235
14913TIP3    H266155   2.313   6.646   0.713  0.2793  0.0251 -0.2929
14914TIP3   OH266156   3.676   4.007  14.614  0.5204  0.0919  0.1152
14914TIP3    H166157   3.768   3.980  14.617  0.6157  0.3861 -0.0913
14914TIP3    H266158   3.678   4.094  14.573 -0.1307 -1.1001 -2.6234
14915TIP3   OH266159   5.414   0.274   3.758  0.4937  0.1713  0.0282
14915TIP3    H166160   5.484   0.221   3.795 -0.0461 -0.1659  0.5887
14915TIP3    H266161   5.344   0.210   3.739  0.0202  0.6113  0.2629
14916TIP3   OH266162   1.084   3.982  14.453 -0.2134  0.4600 -0.2170
14916TIP3    H166163   0.993   3.981  14.422  0.4351  0.8321 -2.2268
14916TIP3    H266164   1.105   3.889  14.466 -1.3597  0.4281  1.9050
14917TIP3   OH266165   0.726   6.780  12.163 -0.0806 -0.3314  0.2242
14917TIP3    H166166   0.654   6.821  12.115  0.3432 -0.3357 -0.4276
14917TIP3    H266167   0.757   6.711  12.104  0.0401 -0.7496  0.7735
14918TIP3   OH266168   2.896   6.171   0.460 -0.0991  0.4328  0.5447
14918TIP3    H166169   2.909   6.129   0.375  0.5169  1.0216  0.3350
14918TIP3    H266170   2.855   6.104   0.514 -0.1879 -0.0598 -0.1180
14919TIP3   OH266171   1.376   5.738  15.852  0.5653  0.8247 -0.3010
14919TIP3    H166172   1.323   5.674  15.805  2.1583 -0.1711 -0.8251
14919TIP3    H266173   1.368   5.714  15.944  1.9086 -0.7878 -0.5607
14920TIP3   OH266174   0.836   4.062   5.454 -0.4144  0.0680 -0.0271
14920TIP3    H166175   0.811   3.976   5.488  0.9220 -0.9932 -1.6091
14920TIP3    H266176   0.847   4.049   5.360 -0.1545  1.9794 -0.2960
14921TIP3   OH266177   4.583   2.763  14.752  0.1505 -0.7616 -0.0979
14921TIP3    H166178   4.678   2.757  14.754  0.1593 -1.2742 -1.1518
14921TIP3    H266179   4.565   2.855  14.730  0.3972 -0.6574  0.1374
14922TIP3   OH266180   1.475   0.383   1.771 -0.2506 -0.1500 -1.2488
14922TIP3    H166181   1.516   0.454   1.820 -1.7592 -0.0358 -0.0781
14922TIP3    H266182   1.525   0.305   1.795  0.3385  0.2387 -1.1928
14923TIP3   OH266183   0.137   6.761   5.195 -0.4819 -0.7425 -0.0862
14923TIP3    H166184   0.228   6.736   5.179  0.3098  1.5098  0.4680
14923TIP3    H266185   0.105   6.698   5.259 -0.0752 -2.9397 -1.9304
14924TIP3   OH266186   3.915   4.216   2.936 -0.0080 -0.3821 -0.1819
14924TIP3    H166187   3.895   4.247   3.024  3.8497  1.7071  0.1869
14924TIP3    H266188   3.862   4.270   2.878 -0.3168  0.3872  0.7918
14925TIP3   OH266189   2.573   6.782  10.639 -0.3890 -0.4664  0.4246
14925TIP3    H166190   2.513   6.843  10.597 -0.3880 -0.5780  0.2605
14925TIP3    H266191   2.554   6.697  10.598 -0.3590 -0.5667  0.6177
14926TIP3   OH266192   0.526   5.075   3.039  0.4486 -1.0359 -0.4969
14926TIP3    H166193   0.560   5.011   3.101  0.1860  0.0034  0.7658
14926TIP3    H266194   0.438   5.043   3.018 -0.8944  0.3491  2.4426
14927TIP3   OH266195   5.800   5.974   6.758 -0.4839 -0.0629  0.4898
14927TIP3    H166196   5.743   5.929   6.696 -0.8921  1.1546 -0.0351
14927TIP3    H266197   5.888   5.962   6.723 -0.7047  0.5537 -0.3012
14928TIP3   OH266198   2.433   1.369   5.579  0.2644 -0.2061 -0.0505
14928TIP3    H166199   2.430   1.305   5.650  0.6321 -1.4153 -1.0811
14928TIP3    H266200   2.342   1.393   5.564  0.0863 -0.7404  0.1470
14929TIP3   OH266201   0.302   2.782  10.834  0.2265  0.7671  0.4425
14929TIP3    H166202   0.221   2.732  10.822 -0.0387  1.1296  0.7095
14929TIP3    H266203   0.274   2.873  10.839  0.6503  0.8944  0.5798
14930TIP3   OH266204   5.582   3.641  12.193  0.6908  0.4899 -0.0718
14930TIP3    H166205   5.629   3.672  12.270 -1.3806  0.7294  1.1722
14930TIP3    H266206   5.539   3.719  12.159  0.4362  0.1158 -0.6232
14931TIP3   OH266207   6.519   0.114  15.706 -0.3580 -0.2509 -0.1354
14931TIP3    H166208   6.499   0.207  15.699 -1.5139 -0.5776 -1.5620
14931TIP3    H266209   6.586   0.109  15.774 -0.8265  1.5309  0.5006
14932TIP3   OH266210   4.240   1.631   2.556 -0.6834  0.0607  0.4581
14932TIP3    H166211   4.177   1.597   2.492 -1.1636 -0.9813  1.4331
14932TIP3    H266212   4.200   1.613   2.641  0.5628  0.1212  1.0889
14933TIP3   OH266213   0.356   5.131  15.411 -0.2499 -0.3261  0.0202
14933TIP3    H166214   0.356   5.194  15.339  1.8574  0.1452  0.3677
14933TIP3    H266215   0.303   5.058  15.379  1.5224 -0.6372 -2.5232
14934TIP3   OH266216   6.305   3.925   2.377 -1.0232  0.1701  0.0001
14934TIP3    H166217   6.391   3.883   2.386 -1.3243 -0.1720  1.5043
14934TIP3    H266218   6.304   3.956   2.286  1.7797  2.6174  0.6521
14935TIP3   OH266219   5.865   1.687  11.649  0.0335 -0.4296 -0.1046
14935TIP3    H166220   5.854   1.724  11.561  0.1877  0.2569  0.1631
14935TIP3    H266221   5.948   1.723  11.680 -0.0947 -0.5491  0.3829
14936TIP3   OH266222   2.814   2.277   1.471  0.5962 -0.0338 -0.0008
14936TIP3    H166223   2.736   2.320   1.505  0.0405 -1.9134  1.2624
14936TIP3    H266224   2.782   2.219   1.401  1.2736  1.2122 -1.3979
14937TIP3   OH266225   1.326   5.845  12.617 -0.2723 -0.4555 -0.1232
14937TIP3    H166226   1.284   5.823  12.700  1.3158  1.0691  1.1692
14937TIP3    H266227   1.401   5.785  12.613 -0.5246 -0.7413 -0.6332
14938TIP3   OH266228   0.439   5.574   3.517 -0.0984 -0.3570  0.2872
14938TIP3    H166229   0.459   5.638   3.449  0.5949 -0.7583  0.1017
14938TIP3    H266230   0.363   5.526   3.484 -0.5831  0.3186  0.4002
14939TIP3   OH266231   5.524   4.088   5.158 -0.2393 -0.2722 -0.6089
14939TIP3    H166232   5.590   4.150   5.191 -0.8784  0.3504 -0.4765
14939TIP3    H266233   5.568   4.044   5.084 -0.0368  0.9111 -1.2266
14940TIP3   OH266234   4.203   5.021   5.300  0.7712 -0.2496 -0.1082
14940TIP3    H166235   4.175   5.105   5.336 -2.6416 -1.1179 -0.4129
14940TIP3    H266236   4.190   4.959   5.372  0.8163 -0.8978 -0.6487
14941TIP3   OH266237   6.181   6.180  14.789 -0.5220 -0.0466 -0.5376
14941TIP3    H166238   6.240   6.214  14.722 -1.0932  0.8628 -0.5779
14941TIP3    H266239   6.160   6.091  14.760 -2.2327  0.9502 -2.5563
14942TIP3   OH266240   6.215   6.229  11.984 -0.3949  0.3999 -0.5578
14942TIP3    H166241   6.259   6.194  12.061  0.4823 -0.8310 -1.5742
14942TIP3    H266242   6.122   6.213  12.000 -0.0740 -1.8445 -0.6779
14943TIP3   OH266243   5.739   1.353  13.545 -0.3111 -0.8794  0.0605
14943TIP3    H166244   5.655   1.389  13.574 -1.5081 -1.5832 -2.2943
14943TIP3    H266245   5.803   1.421  13.567 -2.0021  1.2139 -1.1807
14944TIP3   OH266246   6.609   1.345  12.042 -0.4416 -0.1392  0.7793
14944TIP3    H166247   6.633   1.398  12.117 -1.0620  0.6238  0.4526
14944TIP3    H266248   6.585   1.408  11.974 -0.6473 -0.8239  0.1946
14945TIP3   OH266249   0.868   4.866  13.144 -0.2140  0.0312  0.4450
14945TIP3    H166250   0.898   4.946  13.187  0.8145 -0.5727  0.8793
14945TIP3    H266251   0.795   4.835  13.197 -1.6218  1.4784 -0.5756
14946TIP3   OH266252   4.501   5.117   6.051  0.7094  0.7362 -0.0796
14946TIP3    H166253   4.560   5.127   6.126 -0.7695  0.8028  1.1368
14946TIP3    H266254   4.456   5.034   6.067 -3.0762  2.9132  1.7635
14947TIP3   OH266255   0.316   2.024   1.513  0.4696 -0.1550 -0.4358
14947TIP3    H166256   0.404   2.060   1.503  0.2459  0.9561  1.1081
14947TIP3    H266257   0.323   1.963   1.586  0.2931 -1.3782 -1.4105
14948TIP3   OH266258   2.443   2.991  13.909 -0.2536  0.2357  0.2494
14948TIP3    H166259   2.496   3.060  13.869  0.8560 -0.8288 -0.1673
14948TIP3    H266260   2.489   2.968  13.989 -1.6246  1.2377  1.3874
14949TIP3   OH266261   5.953   5.066  11.387  0.3188 -0.3914 -0.3982
14949TIP3    H166262   5.864   5.033  11.375  0.0537  0.3478 -0.4653
14949TIP3    H266263   5.992   5.063  11.300  1.3045 -3.3065  0.0043
14950TIP3   OH266264   4.727   4.229  10.962  0.7058 -0.0078 -0.3665
14950TIP3    H166265   4.799   4.194  11.014  1.0758 -1.0435 -1.5423
14950TIP3    H266266   4.765   4.243  10.875  0.7033  3.6816  0.0666
14951TIP3   OH266267   2.478   2.872  15.357 -0.0947 -0.5367 -0.0369
14951TIP3    H166268   2.522   2.803  15.406  2.2378  0.1805 -1.0000
14951TIP3    H266269   2.444   2.827  15.279 -0.6330 -0.9953  0.4489
14952TIP3   OH266270   6.596   0.172   1.216 -0.2912  0.0639 -0.4233
14952TIP3    H166271   6.579   0.154   1.309  1.8359 -0.6503 -0.1150
14952TIP3    H266272   6.567   0.093   1.171 -0.3829  0.0000 -0.2533
14953TIP3   OH266273   1.792   3.673  17.175  0.1828 -0.1362  0.2269
14953TIP3    H166274   1.861   3.641  17.233  0.0504  0.1104  0.5185
14953TIP3    H266275   1.806   3.624  17.093  0.2272 -0.6513  0.5372
14954TIP3   OH266276   4.911   4.295   0.154 -0.1459  0.0484 -0.0522
14954TIP3    H166277   4.948   4.244   0.083 -1.2711 -1.1740  0.1975
14954TIP3    H266278   4.868   4.230   0.210 -1.3161  1.2265  0.4712
14955TIP3   OH266279   2.462   0.675   2.258  0.3378 -0.1112 -0.2954
14955TIP3    H166280   2.423   0.759   2.278 -1.9155 -0.9264 -1.0075
14955TIP3    H266281   2.503   0.688   2.172 -0.8293  0.0307 -0.8471
14956TIP3   OH266282   2.277   4.186  16.601  0.0682  0.1605 -0.1446
14956TIP3    H166283   2.251   4.264  16.553 -1.3840 -0.1654  0.0650
14956TIP3    H266284   2.335   4.139  16.541 -0.0301  0.7958 -0.7449
14957TIP3   OH266285   5.072   4.503   0.047  0.3388 -0.6159 -0.3352
14957TIP3    H166286   5.033   4.431   0.096  0.6471 -0.7562 -0.2956
14957TIP3    H266287   5.087   4.468  -0.040  1.1915 -0.8365 -0.1015
14958TIP3   OH266288   0.836   3.280   5.901 -0.1729 -0.5905  0.5758
14958TIP3    H166289   0.865   3.312   5.986  0.2767 -1.6328  0.8396
14958TIP3    H266290   0.915   3.282   5.846 -0.8277  1.7632 -0.3974
14959TIP3   OH266291   5.066   2.291   1.346 -0.1447  0.0746 -0.2161
14959TIP3    H166292   5.017   2.298   1.427 -0.0801 -0.9320 -0.0780
14959TIP3    H266293   5.095   2.199   1.343  0.5768  0.3119 -0.9484
14960TIP3   OH266294   6.211   4.693  14.681  0.0864  0.4716  0.1243
14960TIP3    H166295   6.298   4.657  14.694  0.2716  0.1776 -1.7649
14960TIP3    H266296   6.157   4.652  14.749  1.1882 -0.0999  0.6689
14961TIP3   OH266297   6.022   0.768   4.249  0.3640  0.3708 -0.0439
14961TIP3    H166298   5.979   0.683   4.261  0.3395  0.0547 -2.0523
14961TIP3    H266299   6.082   0.776   4.324  0.3715 -1.4088  0.1707
14962TIP3   OH266300   5.330   3.886  10.787  0.1901  0.4600  0.1228
14962TIP3    H166301   5.413   3.903  10.743 -0.2527  1.7989 -0.2300
14962TIP3    H266302   5.301   3.802  10.752  0.9205  0.4521 -0.4854
14963TIP3   OH266303   3.385   1.843   4.478  0.0374 -0.0214  0.2206
14963TIP3    H166304   3.293   1.853   4.503 -0.5645 -2.2666 -0.8104
14963TIP3    H266305   3.433   1.897   4.541 -1.9583  1.1723  0.8165
14964TIP3   OH266306   2.693   5.573  11.757 -0.0378 -0.0492 -0.1881
14964TIP3    H166307   2.724   5.608  11.840  0.4058 -1.0986  0.0986
14964TIP3    H266308   2.768   5.528  11.720  0.0615  1.2275 -1.6433
14965TIP3   OH266309   5.369   2.949   2.432 -0.3780 -0.0660  0.6255
14965TIP3    H166310   5.327   2.891   2.495  1.2354 -0.6083  1.2409
14965TIP3    H266311   5.459   2.958   2.462  0.1987  0.4148 -1.0841
14966TIP3   OH266312   5.630   4.679  14.006  0.6088  0.0504 -0.0550
14966TIP3    H166313   5.612   4.668  13.913 -0.3764 -2.8526  0.3719
14966TIP3    H266314   5.549   4.653  14.050  1.1855  0.9573  1.6259
14967TIP3   OH266315   0.874   0.853   1.810  0.3740 -0.3339 -0.2460
14967TIP3    H166316   0.907   0.941   1.788 -0.7570  1.0207  2.9640
14967TIP3    H266317   0.779   0.863   1.813  0.2529 -1.5591  0.6049
14968TIP3   OH266318   5.213   3.274  13.049 -0.4911  0.0195 -0.2370
14968TIP3    H166319   5.204   3.276  12.954  1.6756  2.8642 -0.5095
14968TIP3    H266320   5.304   3.248  13.064 -1.1147 -1.5554  1.1803
14969TIP3   OH266321   4.101   1.414  12.432 -0.4031  0.1010 -0.0619
14969TIP3    H166322   4.083   1.425  12.525  1.9254 -0.8083  0.5659
14969TIP3    H266323   4.101   1.319  12.419  2.4254  0.0558 -0.2265
14970TIP3   OH266324   0.121   1.573  15.563  0.4245  0.2338 -0.6671
14970TIP3    H166325   0.105   1.654  15.514 -0.4185  0.6238  0.2196
14970TIP3    H266326   0.216   1.570  15.572  0.4612  1.2342 -0.5452
14971TIP3   OH266327   2.212   1.738   2.417 -0.0911  0.0267 -0.0332
14971TIP3    H166328   2.272   1.739   2.491  0.0832 -0.5672 -0.1671
14971TIP3    H266329   2.190   1.646   2.404 -0.1927  0.1340 -0.6652
14972TIP3   OH266330   3.306   2.043  10.958  0.0822 -0.0895  0.4447
14972TIP3    H166331   3.232   1.982  10.951 -0.1720  0.1877  0.6866
14972TIP3    H266332   3.369   2.012  10.893 -0.9775  0.7116 -1.0001
14973TIP3   OH266333   2.097   0.207  15.522 -0.7627  0.1036  0.8172
14973TIP3    H166334   2.141   0.240  15.444 -0.3113 -1.8161  0.1910
14973TIP3    H266335   2.096   0.112  15.510 -2.0347 -0.1376  2.4537
14974TIP3   OH266336   5.822   3.916  13.404  0.0945  0.7990 -0.4939
14974TIP3    H166337   5.762   3.841  13.396 -0.2653  0.9022  0.9590
14974TIP3    H266338   5.908   3.876  13.414 -0.0014  0.6020 -0.4399
14975TIP3   OH266339   4.697   0.535  12.508 -0.2113  0.5104  0.0678
14975TIP3    H166340   4.711   0.457  12.453 -0.5164 -0.1047  0.8398
14975TIP3    H266341   4.626   0.582  12.464 -0.2185  0.2087 -0.2538
14976TIP3   OH266342   3.064   1.938   2.733  0.8163 -0.0603  0.8913
14976TIP3    H166343   3.048   1.981   2.817 -0.9041  0.2110  0.4726
14976TIP3    H266344   2.992   1.876   2.723  0.9630 -0.0608 -0.3990
14977TIP3   OH266345   5.249   0.089  17.019  0.2665 -0.1385  0.3120
14977TIP3    H166346   5.178   0.148  16.991  0.8540  0.5746  0.2896
14977TIP3    H266347   5.218   0.002  16.995 -0.7697  0.1195  0.6471
14978TIP3   OH266348   6.778   0.302   1.025  0.8040 -0.1128  0.2025
14978TIP3    H166349   6.832   0.251   0.965 -0.1328 -0.6154 -0.2425
14978TIP3    H266350   6.775   0.249   1.105  0.3268 -0.4807 -0.0511
14979TIP3   OH266351   4.651   3.671  15.310 -0.2255  0.0624  0.0259
14979TIP3    H166352   4.610   3.672  15.396 -0.8567  0.9649 -0.2713
14979TIP3    H266353   4.624   3.587  15.272  1.5042 -1.1580  1.3497
14980TIP3   OH266354   0.696   3.218   3.990 -0.1757 -0.0178  0.4440
14980TIP3    H166355   0.725   3.240   4.078  1.4574 -1.2882  0.2556
14980TIP3    H266356   0.763   3.254   3.932  1.3047 -3.2133  0.0070
14981TIP3   OH266357   2.223   6.221  16.043 -0.0675  0.2811 -0.0751
14981TIP3    H166358   2.210   6.299  15.989  0.4823 -0.8339 -1.9017
14981TIP3    H266359   2.148   6.220  16.102 -0.3462  1.9089 -0.3487
14982TIP3   OH266360   4.250   2.625  13.114  0.2278  0.3671 -0.0348
14982TIP3    H166361   4.336   2.587  13.098  0.2276  0.9629 -1.6453
14982TIP3    H266362   4.246   2.636  13.209  1.3334 -0.9968  0.2078
14983TIP3   OH266363   3.737   3.876   3.651 -0.1044  0.5829  0.1065
14983TIP3    H166364   3.760   3.952   3.703  0.7341  0.4648 -0.0794
14983TIP3    H266365   3.757   3.902   3.561 -1.7651  0.8759 -0.2154
14984TIP3   OH266366   1.215   3.187  15.610  0.4575  0.0847 -0.0324
14984TIP3    H166367   1.299   3.227  15.588  0.5602  0.9422  1.7344
14984TIP3    H266368   1.225   3.095  15.583  1.0059  0.7203 -2.1599
14985TIP3   OH266369   0.359   5.231   0.732  0.0394  0.1298  0.3111
14985TIP3    H166370   0.405   5.284   0.798  0.8414  0.4941 -0.5217
14985TIP3    H266371   0.275   5.274   0.721  0.1482  0.4328  0.6449
14986TIP3   OH266372   0.168   0.853  16.830  0.2817  0.5445  0.2349
14986TIP3    H166373   0.124   0.793  16.890  0.4272  1.3579  1.1820
14986TIP3    H266374   0.258   0.822  16.826  0.0793  0.0002 -0.2194
14987TIP3   OH266375   0.162   2.074  14.103 -0.3190 -0.2732  0.2209
14987TIP3    H166376   0.229   2.076  14.172 -1.1330 -0.1502  1.0191
14987TIP3    H266377   0.135   1.982  14.099  0.4547 -0.4787 -0.6659
14988TIP3   OH266378   4.983   2.709  12.458  0.1807 -0.3375 -0.4017
14988TIP3    H166379   4.917   2.706  12.528 -0.5796 -0.6778 -1.1126
14988TIP3    H266380   4.970   2.627  12.410  0.5557 -0.0116 -1.0685
14989TIP3   OH266381   4.281   1.585   1.477  0.4088 -0.1091  0.1785
14989TIP3    H166382   4.226   1.577   1.555  1.3292  1.3535  1.0095
14989TIP3    H266383   4.234   1.647   1.420  1.0979  1.0536  0.8403
14990TIP3   OH266384   1.538   0.086  16.310 -0.3464  0.0685  0.6176
14990TIP3    H166385   1.611   0.095  16.249 -0.3286  0.7214  0.7282
14990TIP3    H266386   1.535  -0.008  16.330 -1.2722 -0.3987 -1.4998
14991TIP3   OH266387   0.422   3.841  16.972 -0.1329  0.1599  0.1443
14991TIP3    H166388   0.492   3.790  17.012  1.7557  1.9702 -0.6557
14991TIP3    H266389   0.412   3.917  17.030 -0.8007  0.3758 -0.2434
14992TIP3   OH266390   6.728   0.683  16.033 -0.3194  0.2679 -0.2572
14992TIP3    H166391   6.769   0.615  16.085 -0.0937  0.9489  0.4770
14992TIP3    H266392   6.660   0.638  15.982 -0.0015 -0.5294  0.0229
14993TIP3   OH266393   6.236   3.852   0.251 -0.2076  0.0908  0.1123
14993TIP3    H166394   6.282   3.827   0.171 -0.3456 -2.5313  0.7624
14993TIP3    H266395   6.145   3.865   0.224 -0.3314 -1.1640 -0.1400
14994TIP3   OH266396   0.552   0.860  16.868  0.4696 -0.3530  0.4012
14994TIP3    H166397   0.531   0.821  16.953 -0.6131 -0.5128  0.0712
14994TIP3    H266398   0.527   0.952  16.877  0.6785 -0.2919  0.3641
14995TIP3   OH266399   0.270   2.705  14.073 -0.2129 -0.3459  0.1676
14995TIP3    H166400   0.364   2.717  14.081  0.1417 -1.3446 -1.8555
14995TIP3    H266401   0.233   2.757  14.144  1.8613 -0.2774  1.2660
14996TIP3   OH266402   1.714   2.896  15.156 -0.0663 -0.1503 -0.0876
14996TIP3    H166403   1.747   2.826  15.099 -1.8938 -0.5444 -0.7414
14996TIP3    H266404   1.743   2.872  15.244  1.3169 -0.4693 -0.6090
14997TIP3   OH266405   0.395   4.823  15.671  0.1888  0.4756  0.0972
14997TIP3    H166406   0.368   4.743  15.714  2.5801 -0.4145  0.0699
14997TIP3    H266407   0.371   4.810  15.579 -1.3215  0.7175  0.4312
14998TIP3   OH266408   5.136   5.195   6.383 -0.0677  0.3280 -0.0442
14998TIP3    H166409   5.057   5.176   6.433 -0.9076 -0.2807 -1.5112
14998TIP3    H266410   5.164   5.109   6.350  0.2373  0.7386 -0.8870
14999TIP3   OH266411   0.636   1.755  14.013  0.5297 -0.4067 -0.2941
14999TIP3    H166412   0.685   1.837  14.012 -1.4845  0.8469 -1.6493
14999TIP3    H266413   0.577   1.764  14.088 -0.2379 -0.2642 -0.9095
15000TIP3   OH266414   6.293   2.599  11.748  0.0787 -0.3706 -0.3832
15000TIP3    H166415   6.198   2.605  11.753 -0.0490 -2.4593  0.4265
15000TIP3    H266416   6.310   2.552  11.667  0.2524 -2.3335  0.7394
15001TIP3   OH266417   4.026   6.058  14.167 -0.2428  0.5387 -0.5566
15001TIP3    H166418   3.941   6.044  14.208 -0.1161  2.3095  0.4212
15001TIP3    H266419   4.060   6.138  14.208  1.3869  0.5212 -1.7456
15002TIP3   OH266420   2.766   2.460  14.628 -0.1601  0.2443  0.1389
15002TIP3    H166421   2.781   2.479  14.535 -1.5662 -0.4024 -0.2559
15002TIP3    H266422   2.715   2.535  14.659 -0.9116 -0.2110  0.0154
15003TIP3   OH266423   6.360   0.925  13.262 -0.3980  0.2245 -0.3922
15003TIP3    H166424   6.324   1.013  13.272 -0.2832  0.3261 -0.8481
15003TIP3    H266425   6.346   0.883  13.347 -1.2057  0.4063 -0.4354
15004TIP3   OH266426   1.464   1.674  16.724  0.6188  0.1512 -0.3045
15004TIP3    H166427   1.448   1.665  16.630  0.7924  1.7039 -0.4998
15004TIP3    H266428   1.407   1.746  16.752  0.8999  0.0103  0.6895
15005TIP3   OH266429   5.076   5.075  13.132 -0.4944  0.5646 -0.4201
15005TIP3    H166430   5.104   5.037  13.049  0.0205 -2.1256  0.8663
15005TIP3    H266431   4.981   5.070  13.131 -0.5137  1.1026 -1.0927
15006TIP3   OH266432   3.249   1.332   2.178  0.2175 -0.0153  0.1674
15006TIP3    H166433   3.239   1.351   2.271  3.2726  1.1845  0.3529
15006TIP3    H266434   3.261   1.238   2.174 -0.8418 -0.1970  0.8599
15007TIP3   OH266435   2.541   1.544  14.215  0.5523  0.3304 -0.2189
15007TIP3    H166436   2.574   1.490  14.143 -2.6755  0.4209 -1.9629
15007TIP3    H266437   2.558   1.634  14.187  1.3934  0.3366  0.2845
15008TIP3   OH266438   3.377   1.041  13.715  0.4687  0.6116 -0.4921
15008TIP3    H166439   3.293   1.006  13.745  1.1712  0.5163  1.4842
15008TIP3    H266440   3.415   1.082  13.792  3.1471 -1.0619 -0.7818
15009TIP3   OH266441   3.226   2.193   0.650 -0.0820  0.3580  0.6585
15009TIP3    H166442   3.153   2.165   0.594  0.9447  0.2137 -0.6494
15009TIP3    H266443   3.286   2.237   0.591  0.6110  1.0316  1.8388
15010TIP3   OH266444   5.592   5.243  16.531 -0.0055 -0.0339  0.0066
15010TIP3    H166445   5.562   5.201  16.450 -0.1690  1.8613 -0.9769
15010TIP3    H266446   5.668   5.295  16.504  1.4723 -1.2421  1.5902
15011TIP3   OH266447   3.806   2.886   5.551  0.3603 -0.0857 -0.0254
15011TIP3    H166448   3.842   2.927   5.630  1.5213  0.6475 -0.9067
15011TIP3    H266449   3.855   2.803   5.544 -0.1298 -0.4089  0.3123
15012TIP3   OH266450   2.949   5.567  10.576 -0.1502 -0.0494  0.4981
15012TIP3    H166451   3.012   5.635  10.551  0.5265 -0.3953  1.1889
15012TIP3    H266452   3.002   5.487  10.583 -0.7843 -0.4749  0.4876
15013TIP3   OH266453   2.209   6.707  13.777 -0.6781 -0.3767  0.5072
15013TIP3    H166454   2.236   6.799  13.774 -0.5549 -0.4286 -1.7408
15013TIP3    H266455   2.139   6.705  13.842 -0.9039  1.3832  0.3836
15014TIP3   OH266456   0.145   1.515  11.938 -0.1234  0.0610 -0.0877
15014TIP3    H166457   0.122   1.551  11.853 -1.3847  1.0736  0.6564
15014TIP3    H266458   0.182   1.588  11.987 -0.7977 -0.1356  0.7448
15015TIP3   OH266459   3.576   6.359  12.112 -0.6449 -0.6160  0.5884
15015TIP3    H166460   3.644   6.411  12.157  1.9839 -0.2954 -3.2571
15015TIP3    H266461   3.520   6.425  12.070 -0.5195 -0.8534  0.0389
15016TIP3   OH266462   0.210   1.648   5.388  0.1745 -0.1116 -0.3432
15016TIP3    H166463   0.166   1.676   5.308 -2.3494 -3.5248 -0.3613
15016TIP3    H266464   0.173   1.702   5.457  0.0105  0.6912 -1.0415
15017TIP3   OH266465   1.423   2.083  11.587 -0.2865 -0.4516  0.5155
15017TIP3    H166466   1.436   2.101  11.494 -1.6299 -1.1263  0.1689
15017TIP3    H266467   1.504   2.114  11.629  0.2002  0.1828 -0.8176
15018TIP3   OH266468   2.697   5.691  16.243 -0.5789 -0.3023  0.5256
15018TIP3    H166469   2.649   5.646  16.312 -0.4507  0.0929  0.8728
15018TIP3    H266470   2.663   5.653  16.162 -1.5841  0.0618  0.7563
15019TIP3   OH266471   4.160   4.468   4.621  0.1422  0.1734  0.3965
15019TIP3    H166472   4.229   4.403   4.616 -1.5718 -1.6661 -1.1778
15019TIP3    H266473   4.150   4.500   4.531 -0.8165  0.6482  0.6498
15020TIP3   OH266474   0.957   0.699   2.191 -0.1943  0.1284  0.1097
15020TIP3    H166475   0.907   0.631   2.236 -0.7215  0.7539  0.4839
15020TIP3    H266476   0.899   0.774   2.188  0.7883  0.9429  0.7430
15021TIP3   OH266477   3.541   5.426   5.165 -0.3957 -0.2728  0.0824
15021TIP3    H166478   3.552   5.406   5.257  1.8442 -1.4897 -0.4010
15021TIP3    H266479   3.547   5.522   5.160 -2.0639 -0.0555  1.3106
15022TIP3   OH266480   1.575   3.697  16.006  0.2706  0.0905 -0.1435
15022TIP3    H166481   1.515   3.677  16.078 -1.0681  1.2063 -0.8991
15022TIP3    H266482   1.652   3.735  16.048  0.6974 -1.7838  0.8871
15023TIP3   OH266483   3.084   1.624  12.112 -0.3208  0.1918  0.1155
15023TIP3    H166484   3.138   1.643  12.035  1.1740 -1.3441  0.7116
15023TIP3    H266485   3.008   1.681  12.103  1.2095  2.1832 -0.9877
15024TIP3   OH266486   3.537   6.437  12.693 -0.2306  0.2561  0.3843
15024TIP3    H166487   3.601   6.410  12.760  2.0239  0.4230 -1.5857
15024TIP3    H266488   3.491   6.511  12.733  1.1979  0.4861  1.6999
15025TIP3   OH266489   2.005   3.279  12.170 -0.3035  0.1831  0.3639
15025TIP3    H166490   1.936   3.334  12.206  0.5716  0.9720  0.8829
15025TIP3    H266491   2.040   3.231  12.245 -1.1540 -1.2279 -0.1058
15026TIP3   OH266492   2.492   2.732  15.130 -0.5952 -0.4039 -0.5579
15026TIP3    H166493   2.479   2.785  15.051 -3.0784  0.1994  0.1459
15026TIP3    H266494   2.472   2.643  15.103  1.2317 -0.6589 -1.1885
15027TIP3   OH266495   0.056   6.486   5.244 -0.0448  0.4330  0.4742
15027TIP3    H166496   0.019   6.406   5.282  0.3899  0.0303  0.0588
15027TIP3    H266497   0.151   6.475   5.252  0.0632  0.3261 -0.7291
15028TIP3   OH266498   6.366   3.958   5.246 -0.3429 -0.4704  0.1141
15028TIP3    H166499   6.365   3.955   5.151  0.6942  0.3450  0.0601
15028TIP3    H266500   6.378   4.051   5.267  1.0274 -0.8234  1.0067
15029TIP3   OH266501   5.465   0.505   5.207 -0.2322  0.0341  0.1755
15029TIP3    H166502   5.370   0.495   5.199 -0.1525 -1.3617  0.6776
15029TIP3    H266503   5.479   0.528   5.299 -0.2147  2.6732 -0.4110
15030TIP3   OH266504   2.151   6.581  12.475  0.0419  0.0860  0.2424
15030TIP3    H166505   2.057   6.591  12.492 -0.1525 -0.5473 -0.4056
15030TIP3    H266506   2.156   6.574  12.379  0.5592 -1.8555  0.3902
15031TIP3   OH266507   5.996   2.226  11.813  0.5880  0.5429 -0.1541
15031TIP3    H166508   5.970   2.135  11.803  1.3217  0.0473  2.0291
15031TIP3    H266509   5.915   2.273  11.835  0.2064  0.4640 -1.3147
15032TIP3   OH266510   5.832   0.611  13.204  0.7017  0.3770 -0.3156
15032TIP3    H166511   5.902   0.577  13.148 -0.7082 -0.8464 -1.4186
15032TIP3    H266512   5.801   0.689  13.159  1.6554  1.2103  0.4341
15033TIP3   OH266513   2.106   4.745   2.783  0.4812 -0.4395 -0.2715
15033TIP3    H166514   2.176   4.731   2.719  1.0436 -1.3869  0.5251
15033TIP3    H266515   2.137   4.702   2.862 -1.5526 -2.0097 -0.2544
15034TIP3   OH266516   5.153   4.631  14.380 -0.1132 -0.2130  0.5518
15034TIP3    H166517   5.128   4.654  14.291  1.5599  0.2059  0.1437
15034TIP3    H266518   5.108   4.549  14.398 -0.0420 -0.5876 -0.8810
15035TIP3   OH266519   5.848   6.577  16.624 -0.1308 -0.5482 -0.3492
15035TIP3    H166520   5.787   6.593  16.552 -0.3112 -1.6724 -0.4705
15035TIP3    H266521   5.822   6.491  16.658  1.0504 -0.8084 -0.0654
15036TIP3   OH266522   4.640   2.852   0.088 -0.7239  0.2092  0.5986
15036TIP3    H166523   4.684   2.866   0.172 -0.6194  1.6035  0.3396
15036TIP3    H266524   4.613   2.939   0.060  1.1748  0.1344 -1.8501
15037TIP3   OH266525   5.532   5.876  11.729  0.3822  0.5786  0.1016
15037TIP3    H166526   5.592   5.805  11.709 -0.2725  0.3244 -0.9852
15037TIP3    H266527   5.530   5.930  11.650 -0.1728  1.0489  0.4234
15038TIP3   OH266528   2.623   0.192   5.752 -0.6108  0.2060 -0.0482
15038TIP3    H166529   2.571   0.267   5.724 -1.2148 -0.3733 -0.4968
15038TIP3    H266530   2.630   0.202   5.847  0.5942  1.6339 -0.2304
15039TIP3   OH266531   2.097   5.334  11.062 -0.1646  0.0026 -0.1705
15039TIP3    H166532   2.036   5.326  10.988 -1.2934 -0.0758  0.7456
15039TIP3    H266533   2.112   5.244  11.090  2.5169 -0.2707 -2.0057
15040TIP3   OH266534   3.713   3.031  14.480 -0.2356  0.4028 -0.0452
15040TIP3    H166535   3.681   2.987  14.401  2.3588 -0.9080 -0.4837
15040TIP3    H266536   3.729   2.959  14.542 -1.3968  1.3353  1.3966
15041TIP3   OH266537   0.184   3.776   4.568 -0.5405 -0.8382  0.1664
15041TIP3    H166538   0.157   3.691   4.533 -1.5939  1.2109 -4.9942
15041TIP3    H266539   0.102   3.818   4.594 -0.2932 -0.6102  0.5749
15042TIP3   OH266540   3.334   0.110  12.381 -0.0216 -0.5574 -0.2703
15042TIP3    H166541   3.348   0.059  12.460  2.8989  0.9019  0.2706
15042TIP3    H266542   3.322   0.200  12.412  0.8515 -0.0150 -1.4312
15043TIP3   OH266543   1.525   1.274   0.330  0.1776  0.3729  0.8172
15043TIP3    H166544   1.492   1.341   0.270  1.1864  0.3002  0.1638
15043TIP3    H266545   1.620   1.285   0.329  0.2486  0.0379  2.0267
15044TIP3   OH266546   5.746   6.040  13.181  0.2696 -0.2591  0.4790
15044TIP3    H166547   5.669   5.995  13.216 -0.9911  0.2719 -1.4403
15044TIP3    H266548   5.784   5.978  13.119 -0.5640  0.6527 -1.0082
15045TIP3   OH266549   0.241   0.378   0.401  0.0897 -0.0671 -0.0706
15045TIP3    H166550   0.191   0.309   0.444 -0.2570 -0.8723 -1.6825
15045TIP3    H266551   0.188   0.456   0.412  1.1321  0.3694  2.9956
15046TIP3   OH266552   0.006   4.154   6.608  0.2559  0.7920  0.5763
15046TIP3    H166553   0.101   4.170   6.604  1.0251 -2.9596 -1.5824
15046TIP3    H266554  -0.004   4.090   6.679 -0.0221 -1.3329 -1.2527
15047TIP3   OH266555   4.844   4.764  10.706  0.0822 -0.9205  0.0432
15047TIP3    H166556   4.793   4.836  10.743  2.1806 -0.4611  2.2683
15047TIP3    H266557   4.823   4.689  10.761  0.6842 -1.0864  0.0512
15048TIP3   OH266558   5.640   5.371  13.340  0.2542 -0.1507  0.0140
15048TIP3    H166559   5.599   5.316  13.273  0.6010 -0.9680  0.4541
15048TIP3    H266560   5.726   5.332  13.353  0.1092 -0.1501  1.0848
15049TIP3   OH266561   5.750   1.349  14.770  0.0594 -0.2301 -0.7213
15049TIP3    H166562   5.731   1.338  14.677  1.2950 -1.2057 -0.8813
15049TIP3    H266563   5.809   1.424  14.774  0.7531 -0.7686 -0.8247
15050TIP3   OH266564   2.208   0.664   4.117  0.5492  0.2799 -0.3012
15050TIP3    H166565   2.126   0.615   4.128 -0.1806  1.2642 -1.1690
15050TIP3    H266566   2.181   0.755   4.104  1.8584  0.8702  0.8222
15051TIP3   OH266567   5.472   5.001  17.017 -0.4322  0.6926 -0.4512
15051TIP3    H166568   5.489   4.920  16.969  1.1288  1.1332 -0.7133
15051TIP3    H266569   5.525   5.067  16.972 -0.8723  1.6390  0.3847
15052TIP3   OH266570   1.077   3.217  12.649 -0.0359 -0.3049  0.0497
15052TIP3    H166571   1.164   3.193  12.679  0.4644  1.5865  0.2113
15052TIP3    H266572   1.060   3.302  12.689 -0.6533  0.8371 -2.4362
15053TIP3   OH266573   4.453   1.668   2.367  0.6049  0.0025  0.4138
15053TIP3    H166574   4.509   1.746   2.372 -0.5874  0.8499  1.1343
15053TIP3    H266575   4.387   1.682   2.435  0.6848 -1.9201  0.9314
15054TIP3   OH266576   2.028   4.607  14.494  0.5324 -0.3778 -0.5967
15054TIP3    H166577   2.037   4.531  14.553  0.6170  1.0489  1.3335
15054TIP3    H266578   2.117   4.623  14.463  0.8881  0.1774  0.6631
15055TIP3   OH266579   6.118   5.137   5.084  0.2237  0.4407 -0.3243
15055TIP3    H166580   6.067   5.195   5.027 -1.9827 -0.4048  0.6544
15055TIP3    H266581   6.100   5.049   5.050  1.6399  0.1368 -0.3603
15056TIP3   OH266582   3.264   5.236  14.605 -0.5176  0.3678 -0.0111
15056TIP3    H166583   3.355   5.254  14.627  0.4176 -2.0123 -1.4789
15056TIP3    H266584   3.224   5.322  14.592  1.8212  1.4514 -0.4398
15057TIP3   OH266585   6.738   4.996  11.926 -0.0635  0.7289  0.1847
15057TIP3    H166586   6.809   4.979  11.864  0.6763  0.9768  0.9404
15057TIP3    H266587   6.763   4.947  12.005 -2.0847 -1.4394 -0.3879
15058TIP3   OH266588   5.799   1.850   3.625 -0.4693  0.4436 -0.1089
15058TIP3    H166589   5.743   1.819   3.554 -0.1983  0.4075 -0.3071
15058TIP3    H266590   5.739   1.896   3.684 -0.5635  1.2019 -0.7785
15059TIP3   OH266591   6.087   6.345  16.227  0.5040  0.9636 -0.4527
15059TIP3    H166592   6.126   6.281  16.167  0.1901  1.5629 -1.3206
15059TIP3    H266593   6.162   6.382  16.275  0.6663 -0.1921  0.2254
15060TIP3   OH266594   5.517   6.590   4.858 -0.4253 -0.3167  0.3840
15060TIP3    H166595   5.495   6.529   4.788 -0.3386 -0.5283  0.5409
15060TIP3    H266596   5.608   6.569   4.881 -0.5208 -0.3842  0.6996
15061TIP3   OH266597   2.619   4.606   4.456  0.1789  0.0798 -0.3547
15061TIP3    H166598   2.601   4.674   4.521  1.4786 -0.8429  1.0500
15061TIP3    H266599   2.533   4.571   4.433 -0.8592  4.0247 -3.3090
15062TIP3   OH266600   3.518   2.376  10.777 -0.2240 -0.1486  0.1683
15062TIP3    H166601   3.439   2.324  10.763  1.5372 -3.3170  1.1660
15062TIP3    H266602   3.569   2.364  10.697 -0.1144  0.7466  0.0918
15063TIP3   OH266603   1.899   1.814  10.965 -0.4975 -0.3623  0.0105
15063TIP3    H166604   1.819   1.767  10.941 -0.0001 -0.8313 -0.7921
15063TIP3    H266605   1.920   1.781  11.052 -1.5747  0.3215  0.5523
15064TIP3   OH266606   2.479   0.757   2.570  0.5199 -0.0440  0.2613
15064TIP3    H166607   2.448   0.795   2.652  1.7110  0.9331  0.2948
15064TIP3    H266608   2.399   0.735   2.522 -0.1963 -0.4775  1.5978
15065TIP3   OH266609   3.682   0.717  15.168  0.2839 -0.1614 -0.0810
15065TIP3    H166610   3.656   0.640  15.218 -1.8756 -0.8201 -2.0075
15065TIP3    H266611   3.751   0.686  15.109 -0.8207 -0.7919 -1.0958
15066TIP3   OH266612   6.173   2.604   1.009  0.6216  0.6189 -0.0054
15066TIP3    H166613   6.237   2.565   0.950  1.2134 -1.7292  2.0195
15066TIP3    H266614   6.217   2.680   1.046  1.0581  0.8240 -0.9167
15067TIP3   OH266615   1.434   2.524  16.217  0.4160  0.1912  0.6899
15067TIP3    H166616   1.449   2.610  16.179 -0.7345  0.3773  0.6092
15067TIP3    H266617   1.339   2.521  16.231  0.3210 -1.4247 -0.1626
15068TIP3   OH266618   4.201   0.074   3.906 -0.2068  0.5141  0.0682
15068TIP3    H166619   4.114   0.093   3.941  0.0119  0.9004  0.4139
15068TIP3    H266620   4.211  -0.020   3.918 -1.4278  0.0585 -1.9500
15069TIP3   OH266621   4.867   3.862  13.235 -0.2070 -0.1285 -0.3211
15069TIP3    H166622   4.828   3.794  13.291 -1.0782  0.0276 -0.7308
15069TIP3    H266623   4.914   3.919  13.296 -1.5215  0.2972  0.3138
15070TIP3   OH266624   5.580   6.192   4.806 -0.1724 -0.0217  0.2235
15070TIP3    H166625   5.564   6.123   4.741  1.0467 -0.2935  0.1820
15070TIP3    H266626   5.515   6.176   4.874  0.1399 -1.2956  0.2583
15071TIP3   OH266627   0.235   2.134   3.488  0.2098  0.4154 -0.8195
15071TIP3    H166628   0.161   2.079   3.514  0.4647  0.9842  1.2855
15071TIP3    H266629   0.284   2.081   3.425 -1.0070 -0.6590 -0.9018
15072TIP3   OH266630   5.042   5.423  13.147  0.4357  0.1048 -0.3840
15072TIP3    H166631   5.050   5.512  13.181 -0.6722  0.5612 -1.2589
15072TIP3    H266632   5.132   5.391  13.143  0.9202  1.4451 -0.7546
15073TIP3   OH266633   1.959   4.466   2.731 -0.0802  0.7812 -0.1189
15073TIP3    H166634   2.026   4.405   2.761  0.8514  2.5929  1.6933
15073TIP3    H266635   1.999   4.510   2.655  0.5127  1.3460  0.5122
15074TIP3   OH266636   3.500   5.734   5.784 -0.3630 -0.1160  0.4877
15074TIP3    H166637   3.501   5.705   5.875  1.3569  2.7630  1.5089
15074TIP3    H266638   3.414   5.775   5.773  0.2482  1.5756  1.6173
15075TIP3   OH266639   5.637   2.076   0.612  0.4892 -0.0788 -0.1413
15075TIP3    H166640   5.581   1.998   0.616  0.2656 -0.0439 -1.7884
15075TIP3    H266641   5.597   2.137   0.674  0.6925 -1.2625  1.2023
15076TIP3   OH266642   0.195   4.287  13.897  0.4433  0.4479  0.0310
15076TIP3    H166643   0.169   4.269  13.806 -0.5303 -0.7815  0.5321
15076TIP3    H266644   0.242   4.209  13.925  1.3746  1.1130  0.3811
15077TIP3   OH266645   6.626   0.431   3.853  0.4805  0.1876 -0.1672
15077TIP3    H166646   6.708   0.427   3.901  0.7445 -0.9332 -0.6779
15077TIP3    H266647   6.566   0.374   3.902  0.1480  0.6139 -0.0684
15078TIP3   OH266648   3.099   3.215  13.050 -0.2518  0.1107  0.1757
15078TIP3    H166649   3.093   3.119  13.052 -0.9065  0.1612  0.9217
15078TIP3    H266650   3.031   3.245  13.110 -2.2085  1.1564 -2.3757
15079TIP3   OH266651   0.294   1.537  13.444  0.4879 -0.2273  0.5148
15079TIP3    H166652   0.332   1.507  13.361  1.9003 -0.1071  1.0991
15079TIP3    H266653   0.202   1.509  13.439  0.4042  0.2005 -1.2882
15080TIP3   OH266654   1.197   4.814   2.064 -0.2457  0.1401  0.5787
15080TIP3    H166655   1.286   4.838   2.037  1.3942 -1.4913  3.8524
15080TIP3    H266656   1.145   4.820   1.984  2.3529  3.0110 -1.1071
15081TIP3   OH266657   2.942   5.859  15.044 -0.2140  0.0591  0.3693
15081TIP3    H166658   3.007   5.789  15.047 -2.0564 -1.7827 -0.5534
15081TIP3    H266659   2.938   5.892  15.134  0.7163 -0.9893  0.8180
15082TIP3   OH266660   1.595   4.229   1.668  0.2073  0.4040  0.2043
15082TIP3    H166661   1.614   4.317   1.635 -0.1573  1.0633  1.6668
15082TIP3    H266662   1.502   4.217   1.650  0.4446 -0.0673 -0.7961
15083TIP3   OH266663   2.460   1.164   4.948  0.0241 -0.8879  0.1153
15083TIP3    H166664   2.518   1.135   4.877  1.3929  0.7519  0.4725
15083TIP3    H266665   2.519   1.205   5.011 -1.2928 -1.3420  1.7026
15084TIP3   OH266666   4.655   6.733   5.572 -0.4501  0.3669 -0.4857
15084TIP3    H166667   4.605   6.651   5.574  0.3048 -0.1368 -1.3175
15084TIP3    H266668   4.740   6.710   5.609 -0.5515  1.0255  0.1875
15085TIP3   OH266669   5.071   5.285  17.014  0.2346  0.7779 -0.3154
15085TIP3    H166670   5.085   5.349  16.944 -1.0915 -0.0159 -1.3551
15085TIP3    H266671   4.978   5.291  17.034  0.5175  0.7197  1.1539
15086TIP3   OH266672   5.490   5.339   6.634 -0.3164  0.2621 -0.1308
15086TIP3    H166673   5.452   5.411   6.584 -2.6747  0.3988  1.6801
15086TIP3    H266674   5.541   5.381   6.703 -0.3631  0.1666 -0.0367
15087TIP3   OH266675   1.320   6.329   4.057  0.0337  0.0432 -0.4008
15087TIP3    H166676   1.351   6.366   4.140 -1.5117 -0.4320  0.4179
15087TIP3    H266677   1.393   6.343   3.997  0.9716  0.9315  0.8743
15088TIP3   OH266678   0.453   1.131  14.796 -0.0162 -0.6719  0.2580
15088TIP3    H166679   0.530   1.184  14.811 -0.0832 -0.5303  0.0958
15088TIP3    H266680   0.385   1.170  14.851  0.2722 -1.3508  1.1152
15089TIP3   OH266681   4.941   6.345   3.348  0.0084  0.4257  0.1073
15089TIP3    H166682   5.014   6.406   3.363  1.4813 -1.3773  0.6014
15089TIP3    H266683   4.982   6.265   3.316 -1.8622 -0.3668 -0.4512
15090TIP3   OH266684   3.520   1.998   2.916 -0.0651  0.0689 -0.0333
15090TIP3    H166685   3.452   2.055   2.879 -1.1890 -1.9244 -1.2136
15090TIP3    H266686   3.536   1.933   2.848  1.6363 -0.6544  1.0109
15091TIP3   OH266687   5.729   0.933  16.470 -0.5142 -0.1909  0.3879
15091TIP3    H166688   5.789   0.895  16.535  0.1738  0.6599  0.2763
15091TIP3    H266689   5.752   0.890  16.388  0.0264  0.2080  0.3267
15092TIP3   OH266690   4.623   5.324  15.636 -0.1632 -0.2837  0.8093
15092TIP3    H166691   4.636   5.271  15.715 -1.8940 -0.8863  0.7495
15092TIP3    H266692   4.577   5.265  15.576  0.0318  0.5563 -0.1884
15093TIP3   OH266693   2.046   4.120  12.600  0.3218 -0.1883 -0.2319
15093TIP3    H166694   2.027   4.200  12.649 -1.0577 -0.8954  0.4122
15093TIP3    H266695   2.009   4.135  12.513 -0.0370 -0.1775 -0.0753
15094TIP3   OH266696   0.989   0.694  16.544 -0.3979 -0.1888  0.0014
15094TIP3    H166697   1.063   0.732  16.590 -0.0945  1.7062 -1.8899
15094TIP3    H266698   1.022   0.610  16.512  0.0721 -0.5223  1.2965
15095TIP3   OH266699   1.312   4.854   0.972 -0.1531 -0.4246 -0.1950
15095TIP3    H166700   1.251   4.805   0.916 -0.0172  1.4290 -2.1085
15095TIP3    H266701   1.355   4.915   0.912 -0.4724  2.1914  2.0302
15096TIP3   OH266702   0.019   2.311   6.572 -0.3351 -0.3642 -0.8146
15096TIP3    H166703  -0.046   2.266   6.518  0.3536 -0.4406 -1.6005
15096TIP3    H266704   0.103   2.284   6.535  0.1841 -0.9445  0.7229
15097TIP3   OH266705   0.810   2.191  12.165 -0.2860  0.0594 -0.0882
15097TIP3    H166706   0.876   2.184  12.096  0.1822 -0.0748  0.3646
15097TIP3    H266707   0.804   2.103  12.202 -0.9682 -0.0085 -0.3474
15098TIP3   OH266708   0.734   4.389  15.492 -0.4423 -0.2962 -0.1003
15098TIP3    H166709   0.723   4.299  15.460  1.1859 -0.5328 -0.0754
15098TIP3    H266710   0.714   4.444  15.417  1.3615 -0.7840 -0.9816
15099TIP3   OH266711   5.587   1.811  10.793 -0.5291 -0.1479 -0.1615
15099TIP3    H166712   5.627   1.800  10.707 -2.3786  0.1235 -1.1213
15099TIP3    H266713   5.505   1.760  10.788 -1.9806  1.9846  0.4562
15100TIP3   OH266714   3.869   6.617  13.184 -0.0645  0.5065 -0.2979
15100TIP3    H166715   3.886   6.619  13.090 -0.4897  1.7460 -0.3583
15100TIP3    H266716   3.862   6.523  13.204 -2.0074  0.2401 -1.8876
15101TIP3   OH266717   3.192   4.267   2.828  0.1907  0.3638  0.0444
15101TIP3    H166718   3.208   4.299   2.917  0.3300  1.3318 -0.3203
15101TIP3    H266719   3.269   4.213   2.808 -0.4595 -0.9627  0.9932
15102TIP3   OH266720   3.182   6.238   5.527  0.2997 -0.2496 -0.3791
15102TIP3    H166721   3.224   6.324   5.536 -0.3663  0.2009 -1.4181
15102TIP3    H266722   3.091   6.253   5.552 -0.2489 -0.2169 -2.2799
15103TIP3   OH266723   5.325   4.735   6.040  0.0392 -0.1113  0.9941
15103TIP3    H166724   5.329   4.640   6.025  0.2887  0.1728 -0.9789
15103TIP3    H266725   5.234   4.758   6.024  0.3011  0.1994 -0.0945
15104TIP3   OH266726   5.349   1.179   4.247 -0.1174 -0.1055 -0.4398
15104TIP3    H166727   5.374   1.157   4.158 -0.7624  1.7055 -1.1129
15104TIP3    H266728   5.410   1.249   4.273 -0.0330 -0.5070  0.4876
15105TIP3   OH266729   3.483   5.841  13.923  0.3334  0.7890  0.3216
15105TIP3    H166730   3.498   5.751  13.950 -1.8321  0.4550  0.5764
15105TIP3    H266731   3.570   5.881  13.925  1.3364 -1.2503  0.2415
15106TIP3   OH266732   1.561   3.058   6.034 -0.2405 -0.0468 -0.4148
15106TIP3    H166733   1.565   2.976   5.986 -2.1003 -1.0768  1.0655
15106TIP3    H266734   1.646   3.064   6.078  0.4347 -0.4473 -1.6394
15107TIP3   OH266735   2.711   0.473   2.982  0.0953 -0.1287 -0.2582
15107TIP3    H166736   2.647   0.409   2.951 -0.9814  0.4311  0.7318
15107TIP3    H266737   2.746   0.435   3.063  0.8062 -0.2901 -0.6319
15108TIP3   OH266738   6.538   0.950  12.593  1.0039 -0.2618  0.6684
15108TIP3    H166739   6.595   0.999  12.534 -0.0060 -0.0426 -0.1608
15108TIP3    H266740   6.452   0.990  12.581  0.5122 -1.1148  1.2728
15109TIP3   OH266741   3.745   6.287  11.261  0.0984 -0.0383 -0.1227
15109TIP3    H166742   3.738   6.192  11.272 -2.1533  0.0290 -0.4826
15109TIP3    H266743   3.708   6.303  11.174  0.1638  1.1863  0.0683
15110TIP3   OH266744   5.052   0.494   1.320  0.2990  0.4911 -0.1260
15110TIP3    H166745   5.125   0.448   1.361  0.2449  1.3115  0.9211
15110TIP3    H266746   4.989   0.426   1.298  0.0532  0.0887  1.7486
15111TIP3   OH266747   2.240   3.422  15.824 -0.1305 -0.3453 -0.1367
15111TIP3    H166748   2.322   3.399  15.780  0.2199  0.6811 -0.0447
15111TIP3    H266749   2.172   3.377  15.774  0.1942  1.2238 -2.0916
15112TIP3   OH266750   2.743   2.340   5.756  0.6948 -0.6124 -0.0610
15112TIP3    H166751   2.688   2.414   5.731  0.2757 -0.3046  1.6886
15112TIP3    H266752   2.816   2.343   5.694 -0.8334 -0.5917 -1.9600
15113TIP3   OH266753   0.948   0.653   2.959  0.8773  0.1979  0.6437
15113TIP3    H166754   1.008   0.597   2.910  0.9571  1.5866 -0.9230
15113TIP3    H266755   0.996   0.734   2.972  0.1531  0.5284  1.3873
15114TIP3   OH266756   0.783   6.253   1.522 -0.1871  0.6371  0.0407
15114TIP3    H166757   0.706   6.196   1.528 -1.2157  1.9529 -0.2357
15114TIP3    H266758   0.747   6.341   1.507  1.4044  0.8894 -3.1182
15115TIP3   OH266759   3.240   4.457   5.382  0.6424 -0.4082 -0.1050
15115TIP3    H166760   3.298   4.449   5.457 -0.2197 -1.2864  0.4956
15115TIP3    H266761   3.187   4.378   5.384 -1.0776  0.6841 -0.1841
15116TIP3   OH266762   1.332   5.128  13.430 -0.3167  0.3443 -0.3928
15116TIP3    H166763   1.282   5.118  13.511  0.9579  0.3240  0.4212
15116TIP3    H266764   1.351   5.222  13.425  2.0559  0.0165  0.9122
15117TIP3   OH266765   3.127   2.187   1.585  0.3625  0.3867  0.0137
15117TIP3    H166766   3.053   2.211   1.642 -0.0356 -0.5931 -0.0781
15117TIP3    H266767   3.126   2.092   1.583  0.9122  0.3909 -0.9425
15118TIP3   OH266768   0.286   4.953  14.440  0.3209 -0.4372  0.1795
15118TIP3    H166769   0.217   4.933  14.376 -0.8795  2.1869  0.4966
15118TIP3    H266770   0.364   4.909  14.406 -0.8471 -1.1755 -1.7410
15119TIP3   OH266771   3.319   5.283   5.033  0.0232  0.0523 -0.7606
15119TIP3    H166772   3.411   5.276   5.062  0.3184  1.2547 -1.3206
15119TIP3    H266773   3.285   5.358   5.082 -0.3051  0.3483 -1.4304
15120TIP3   OH266774   4.545   5.652   0.580  0.2988 -0.3451  0.4906
15120TIP3    H166775   4.457   5.626   0.609  1.1039 -2.4574  1.1961
15120TIP3    H266776   4.583   5.572   0.546  1.7224  0.7069 -0.4688
15121TIP3   OH266777   4.133   6.190  14.964 -0.2092 -0.5737  0.4724
15121TIP3    H166778   4.151   6.171  15.056  0.7555 -0.8410  0.2423
15121TIP3    H266779   4.085   6.114  14.932 -1.1919 -0.1609  0.9255
15122TIP3   OH266780   5.294   4.850  12.780 -0.1984 -0.2149 -0.4366
15122TIP3    H166781   5.338   4.843  12.696 -1.0923  1.7563 -1.1351
15122TIP3    H266782   5.343   4.793  12.838  0.8635 -1.0860 -2.1169
15123TIP3   OH266783   2.754   1.696  10.363  0.2266 -0.2222  0.1299
15123TIP3    H166784   2.814   1.752  10.314  3.5355 -2.3239  1.4309
15123TIP3    H266785   2.792   1.690  10.451 -0.9935 -2.9461  0.5972
15124TIP3   OH266786   0.363   3.921   3.591 -0.2260 -0.0528 -0.0226
15124TIP3    H166787   0.417   3.899   3.515 -1.0736  1.3022 -1.0701
15124TIP3    H266788   0.337   3.836   3.627  1.0419 -0.7225 -0.6201
15125TIP3   OH266789   3.359   1.501   6.119 -0.0469  0.4822 -0.0855
15125TIP3    H166790   3.429   1.489   6.054  0.4255 -1.1718  0.6756
15125TIP3    H266791   3.331   1.592   6.107  0.3785  0.3893 -2.2417
15126TIP3   OH266792   1.343   5.573   0.894  0.1335 -0.0785  0.3294
15126TIP3    H166793   1.284   5.643   0.922 -0.3970 -0.1515 -0.5798
15126TIP3    H266794   1.407   5.617   0.837  1.1632  0.0557  1.5424
15127TIP3   OH266795   0.469   3.008   0.182  0.4342  0.1716 -0.1122
15127TIP3    H166796   0.517   3.034   0.261 -0.8915  0.0262  0.7572
15127TIP3    H266797   0.470   2.913   0.183  2.7732  0.0805 -1.7696
15128TIP3   OH266798   5.022   3.312  15.219  0.2029  0.5915 -0.0364
15128TIP3    H166799   5.106   3.311  15.173  0.2361 -1.0311 -0.0184
15128TIP3    H266800   4.957   3.301  15.150  0.0987  0.6204  0.0577
15129TIP3   OH266801   5.510   3.917  12.088 -0.6193 -0.3086 -0.2816
15129TIP3    H166802   5.439   3.950  12.143  0.4128 -0.6452  1.3138
15129TIP3    H266803   5.501   3.966  12.006 -1.1461  1.4996  0.7927
15130TIP3   OH266804   2.165   0.653   1.635 -0.2176  0.4841  0.0739
15130TIP3    H166805   2.186   0.678   1.725  1.9282  1.2223 -0.5595
15130TIP3    H266806   2.144   0.735   1.592 -0.5403  0.2295 -0.2544
15131TIP3   OH266807   3.464   2.862   5.426 -0.3460  0.1988  0.4037
15131TIP3    H166808   3.401   2.922   5.386 -1.0655 -0.5037  0.4518
15131TIP3    H266809   3.425   2.838   5.509 -1.6174 -2.7012 -0.8939
15132TIP3   OH266810   6.153   3.484   2.235  0.0253  0.2244 -0.3890
15132TIP3    H166811   6.229   3.513   2.284  0.4606  1.1982 -1.5974
15132TIP3    H266812   6.189   3.432   2.163 -0.5885 -1.0389  0.1809
15133TIP3   OH266813   5.266   2.323   5.357 -0.3183 -0.1674  0.1918
15133TIP3    H166814   5.232   2.315   5.446 -1.4797 -0.1444 -0.2281
15133TIP3    H266815   5.358   2.300   5.364 -0.1422  0.8274  1.5774
15134TIP3   OH266816   3.650   0.758  13.280 -0.0410 -0.2894 -0.5977
15134TIP3    H166817   3.558   0.767  13.256 -0.1585  1.5633  0.3686
15134TIP3    H266818   3.676   0.846  13.308  1.1863 -1.3834  2.0594
15135TIP3   OH266819   0.667   4.413  16.241 -0.0255 -0.5966 -0.1106
15135TIP3    H166820   0.742   4.459  16.280 -0.4700 -0.3676  0.5043
15135TIP3    H266821   0.617   4.382  16.316  0.5902 -2.6753 -0.5140
15136TIP3   OH266822   3.182   5.703  10.559  0.4037 -0.1361 -0.5348
15136TIP3    H166823   3.214   5.642  10.493 -0.9325 -1.5931  0.1202
15136TIP3    H266824   3.251   5.704  10.625  0.7940 -0.3079 -0.9302
15137TIP3   OH266825   2.436   0.937   2.775 -0.4305 -0.1136  0.1230
15137TIP3    H166826   2.360   0.989   2.802 -0.7924 -0.5795  0.0118
15137TIP3    H266827   2.500   0.951   2.845 -0.3628  0.8096 -0.1096
15138TIP3   OH266828   6.347   5.011   6.159  0.0897  0.1382  0.2458
15138TIP3    H166829   6.299   4.932   6.134  1.1412 -0.9511  1.4927
15138TIP3    H266830   6.353   5.006   6.255 -1.6396  2.8451  0.6069
15139TIP3   OH266831   1.809   5.159  12.997  0.5257  0.4801  0.0251
15139TIP3    H166832   1.883   5.194  13.047  1.1764 -0.5810 -0.1565
15139TIP3    H266833   1.755   5.236  12.976  0.8940  1.0979  1.2690
15140TIP3   OH266834   2.451   2.217  13.692 -0.2957 -1.0556 -0.0718
15140TIP3    H166835   2.490   2.233  13.778 -0.3059  1.0926 -0.3932
15140TIP3    H266836   2.516   2.252  13.630 -2.6091  2.8254 -0.6100
15141TIP3   OH266837   5.828   1.819   0.511 -0.2886  0.5515  0.6258
15141TIP3    H166838   5.798   1.878   0.580 -0.9761  0.2108  0.6291
15141TIP3    H266839   5.849   1.738   0.557 -1.8603 -0.0686  0.3243
15142TIP3   OH266840   4.762   2.933  11.245  0.0379  0.3672  0.5749
15142TIP3    H166841   4.819   2.992  11.195  0.0613  0.3266  0.5533
15142TIP3    H266842   4.697   2.903  11.182 -1.9310  2.8279  1.2790
15143TIP3   OH266843   0.026   4.162  12.213  0.8375 -0.1216 -0.0100
15143TIP3    H166844   0.101   4.113  12.246  1.6861  1.0556 -0.1303
15143TIP3    H266845  -0.049   4.106  12.233  1.7389 -1.3583  0.0447
15144TIP3   OH266846   1.369   3.428   6.061  0.7655  0.5814 -0.1345
15144TIP3    H166847   1.310   3.373   6.111  0.9994  0.5440  0.0990
15144TIP3    H266848   1.425   3.367   6.013  1.9284  0.5737  1.1551
15145TIP3   OH266849   3.066   5.709   1.046 -0.3116 -0.0707 -0.4276
15145TIP3    H166850   3.122   5.636   1.021  1.3670  1.0715 -0.1822
15145TIP3    H266851   2.977   5.677   1.032  0.4139 -1.4087 -2.3914
15146TIP3   OH266852   3.901   2.687  16.616  0.7148 -0.1990 -0.5856
15146TIP3    H166853   3.904   2.783  16.621 -0.6818 -0.0129 -2.3104
15146TIP3    H266854   3.838   2.661  16.683  1.8100 -0.0140  0.5401
15147TIP3   OH266855   6.089   6.289   0.642 -0.0162  0.5384 -0.0495
15147TIP3    H166856   6.053   6.211   0.683  1.4888 -0.4402 -0.5065
15147TIP3    H266857   6.078   6.358   0.708 -0.5025 -0.2699  0.7369
15148TIP3   OH266858   1.390   2.645   0.695  0.2575  0.0731  0.1340
15148TIP3    H166859   1.351   2.651   0.608  0.4869  1.3844  0.0941
15148TIP3    H266860   1.323   2.604   0.749 -0.1011 -0.2283 -0.5341
15149TIP3   OH266861   2.575   2.885  14.135  0.8128 -0.0936 -0.7217
15149TIP3    H166862   2.506   2.932  14.182  0.8431 -0.0007 -0.7683
15149TIP3    H266863   2.584   2.802  14.181  0.4837 -0.2166 -0.8765
15150TIP3   OH266864   4.691   0.443   5.793  0.1553  0.1878  0.1024
15150TIP3    H166865   4.765   0.494   5.827  0.7737 -0.9810  0.5363
15150TIP3    H266866   4.653   0.402   5.871 -1.3094  1.2085 -0.0400
15151TIP3   OH266867   0.569   0.690  12.998 -0.1789  0.6245 -0.5360
15151TIP3    H166868   0.607   0.662  12.915 -1.4672  0.8639 -1.2398
15151TIP3    H266869   0.593   0.782  13.006 -0.3148  0.6849 -0.8068
15152TIP3   OH266870   1.409   2.655   2.632 -0.0768  0.1886  0.3615
15152TIP3    H166871   1.351   2.582   2.610 -0.0304  0.8719 -2.4369
15152TIP3    H266872   1.350   2.722   2.666 -0.6740  0.2097 -0.6928
15153TIP3   OH266873   0.930   5.711  13.735 -0.2157  0.2436  0.0878
15153TIP3    H166874   0.840   5.677  13.743  0.7389 -2.2043  1.3585
15153TIP3    H266875   0.958   5.681  13.649 -0.1335 -0.2583  0.2867
15154TIP3   OH266876   0.540   3.328  17.226 -0.2309 -0.0585  0.3033
15154TIP3    H166877   0.489   3.406  17.200 -0.3843 -0.2878 -0.0955
15154TIP3    H266878   0.531   3.324  17.321 -1.0017 -0.1233  0.2340
15155TIP3   OH266879   1.047   0.064  11.324 -0.2102 -0.1306 -0.2868
15155TIP3    H166880   1.085  -0.019  11.296  1.0441  0.3426 -0.0589
15155TIP3    H266881   1.101   0.131  11.281 -0.3993  0.5713  0.5399
15156TIP3   OH266882   5.626   0.632  11.686 -0.1471 -0.1276  0.0466
15156TIP3    H166883   5.716   0.621  11.653  0.1375 -0.8668  1.0107
15156TIP3    H266884   5.622   0.723  11.715  0.4705 -0.2282  0.4714
15157TIP3   OH266885   3.542   3.937  10.966  0.1057 -0.5953  0.2577
15157TIP3    H166886   3.458   3.942  11.011 -0.4368 -1.6774 -0.5831
15157TIP3    H266887   3.579   3.852  10.992  0.3164 -0.7169 -0.4206
15158TIP3   OH266888   3.579   6.045  12.534  0.2859  0.6664 -0.3912
15158TIP3    H166889   3.554   6.034  12.626 -1.5554 -0.0873 -0.9433
15158TIP3    H266890   3.524   6.117  12.503  1.6241  1.5997 -0.6648
15159TIP3   OH266891   5.090   2.337  12.599 -0.5643  0.3340 -0.1239
15159TIP3    H166892   5.064   2.246  12.607  0.3810 -0.1757 -2.2447
15159TIP3    H266893   5.164   2.346  12.659  1.0331 -1.0746 -1.7362
15160TIP3   OH266894   3.850   4.871  12.421 -0.0423  0.2031 -0.1880
15160TIP3    H166895   3.802   4.789  12.429  0.4144  0.0582  1.5263
15160TIP3    H266896   3.811   4.928  12.487 -0.3925  1.4215 -1.3852
15161TIP3   OH266897   0.974   2.569   3.712  0.0659  0.5661  0.5113
15161TIP3    H166898   1.025   2.634   3.760 -1.6147  0.9438  1.8812
15161TIP3    H266899   0.972   2.492   3.769  1.5798 -0.5632 -0.8555
15162TIP3   OH266900   3.320   4.956  14.893  0.1329  0.2187  0.2128
15162TIP3    H166901   3.232   4.982  14.918  0.3703  2.8299 -1.3457
15162TIP3    H266902   3.311   4.864  14.866 -2.1009  0.4292  0.0881
15163TIP3   OH266903   3.535   1.906   1.897  0.0893  0.4047  0.2989
15163TIP3    H166904   3.487   1.977   1.855 -0.8022 -0.5355 -0.3270
15163TIP3    H266905   3.469   1.837   1.911  0.8310 -0.1374  1.2782
15164TIP3   OH266906   4.398   2.030   0.168 -0.1251 -0.1682 -0.7984
15164TIP3    H166907   4.346   1.950   0.162 -1.1283  0.1572  2.2110
15164TIP3    H266908   4.338   2.099   0.141 -0.4475 -0.0737  0.1305
15165TIP3   OH266909   5.776   1.992  12.771 -0.2749  0.2004  0.0646
15165TIP3    H166910   5.850   1.935  12.792 -0.4973 -0.1275 -0.0299
15165TIP3    H266911   5.759   2.040  12.852 -0.0594  0.1580  0.1348
15166TIP3   OH266912   4.008   5.354   4.439  0.0852 -0.1340  0.4487
15166TIP3    H166913   3.969   5.267   4.432 -0.9687 -0.3431  5.5753
15166TIP3    H266914   4.102   5.338   4.447 -0.1296 -0.9001  1.6654
15167TIP3   OH266915   4.976   2.918   0.948 -0.5304 -0.7062 -0.0478
15167TIP3    H166916   5.062   2.893   0.915 -0.7883 -2.0539  0.2778
15167TIP3    H266917   4.976   2.892   1.040 -0.4924  1.3419  0.5890
15168TIP3   OH266918   2.988   1.359  11.372  0.1129 -0.5270 -0.3359
15168TIP3    H166919   3.067   1.325  11.413 -0.0827 -2.3669 -1.3780
15168TIP3    H266920   2.953   1.286  11.321 -0.9913  0.9140 -1.7844
15169TIP3   OH266921   5.963   2.336   4.443  0.1133  0.6518 -0.6222
15169TIP3    H166922   5.876   2.376   4.442 -1.1363 -1.7293  1.4588
15169TIP3    H266923   6.003   2.368   4.524  0.0450 -0.3980 -0.1624
15170TIP3   OH266924   0.130   3.257  11.643 -0.2928  0.3777 -0.7766
15170TIP3    H166925   0.221   3.287  11.655 -0.8287  2.4946 -1.5571
15170TIP3    H266926   0.122   3.182  11.702  2.5352 -1.1858 -2.1844
15171TIP3   OH266927   6.333   5.822  15.636  0.1423  0.3220 -0.2849
15171TIP3    H166928   6.387   5.802  15.560 -1.3639  0.0830 -1.3331
15171TIP3    H266929   6.244   5.827  15.602 -0.6486 -0.2810  1.5378
15172TIP3   OH266930   1.451   6.570   3.800 -0.2234  0.0048 -0.4483
15172TIP3    H166931   1.432   6.631   3.730 -1.2002  0.5004  0.2215
15172TIP3    H266932   1.483   6.491   3.756 -1.0450  0.2182 -1.4599
15173TIP3   OH266933   5.592   1.420  12.034  0.2926 -0.0882 -0.2048
15173TIP3    H166934   5.566   1.493  12.090 -0.4667  0.3451 -1.0887
15173TIP3    H266935   5.589   1.455  11.946  1.7339 -0.6845 -0.5228
15174TIP3   OH266936   4.909   1.164  15.784  0.0595 -0.0389 -0.1375
15174TIP3    H166937   4.830   1.181  15.835  0.1577  0.4185 -0.1346
15174TIP3    H266938   4.878   1.151  15.694 -0.0106  0.2417 -0.1538
15175TIP3   OH266939   4.512   5.084   4.167 -0.2230 -0.4683  0.3587
15175TIP3    H166940   4.539   5.089   4.258 -0.5703  0.4888  0.4265
15175TIP3    H266941   4.417   5.073   4.170 -0.3673  0.6033  0.1261
15176TIP3   OH266942   2.028   0.369  12.286  0.3049 -0.0510 -0.0269
15176TIP3    H166943   2.121   0.346  12.277  0.9933  1.9096  1.3530
15176TIP3    H266944   2.029   0.460  12.315 -1.9735 -0.6790  2.4023
15177TIP3   OH266945   0.699   4.746   6.005 -0.7329  0.4510  0.0592
15177TIP3    H166946   0.778   4.791   5.975 -0.2463  0.1958  0.9383
15177TIP3    H266947   0.719   4.718   6.094 -1.0802 -1.3218 -0.3753
15178TIP3   OH266948   0.243   6.446  13.263  0.0413 -0.5482 -0.1665
15178TIP3    H166949   0.230   6.541  13.267 -0.6349 -0.6034 -0.9373
15178TIP3    H266950   0.245   6.419  13.355  0.1827  0.2058  0.0581
15179TIP3   OH266951   4.102   3.238   0.803 -0.3579  0.4977  0.0770
15179TIP3    H166952   4.025   3.255   0.748 -0.0618  0.7655 -0.2566
15179TIP3    H266953   4.088   3.150   0.837 -0.0160 -0.1128 -1.3061
15180TIP3   OH266954   3.632   4.213  15.945 -0.0168 -0.4139  0.2110
15180TIP3    H166955   3.654   4.301  15.914  0.5083 -0.5095  0.3007
15180TIP3    H266956   3.542   4.199  15.915  0.2830 -0.2903 -0.7927
15181TIP3   OH266957   3.242   1.963  14.248 -0.0447  0.3083 -0.2878
15181TIP3    H166958   3.162   1.916  14.225 -0.2237  0.8353 -0.7734
15181TIP3    H266959   3.233   1.982  14.341 -0.4896  0.3616 -0.3396
15182TIP3   OH266960   3.200   3.797  16.708 -0.5008 -0.3274 -0.7384
15182TIP3    H166961   3.185   3.745  16.787 -0.3641 -0.1437 -0.5909
15182TIP3    H266962   3.149   3.877  16.722 -0.3377 -0.2196 -0.7599
15183TIP3   OH266963   0.576   3.293  15.379  0.0352 -0.0479 -0.2321
15183TIP3    H166964   0.504   3.231  15.370 -0.6089  0.5182  0.8015
15183TIP3    H266965   0.653   3.246  15.347 -0.5890 -1.0676 -0.2780
15184TIP3   OH266966   6.612   6.468   1.100 -1.0688 -0.1033  0.1000
15184TIP3    H166967   6.561   6.396   1.061  1.0815 -1.1674 -0.9200
15184TIP3    H266968   6.609   6.538   1.034  0.9881 -1.2007 -1.2736
15185TIP3   OH266969   6.548   4.954  13.970  0.3340 -0.6913 -0.3565
15185TIP3    H166970   6.533   5.049  13.976 -0.0366 -0.5470 -2.7743
15185TIP3    H266971   6.473   4.915  14.016  0.4572  0.1570  0.6067
15186TIP3   OH266972   4.117   6.307  15.746 -0.0200  0.2640  0.4508
15186TIP3    H166973   4.154   6.245  15.809 -0.7007  0.4245  1.0211
15186TIP3    H266974   4.180   6.380  15.746  0.0170  0.2398  0.9069
15187TIP3   OH266975   0.879   0.157  14.660  0.6544  0.2276  0.1237
15187TIP3    H166976   0.856   0.237  14.613 -0.1760 -0.6426 -0.9930
15187TIP3    H266977   0.963   0.130  14.623  0.9341  0.5585  0.4995
15188TIP3   OH266978   0.509   4.682   3.125  0.6314 -0.0558 -0.2485
15188TIP3    H166979   0.555   4.758   3.162 -2.0080  0.1756  3.0100
15188TIP3    H266980   0.579   4.620   3.103  2.6722  1.9336  0.2393
15189TIP3   OH266981   5.315   4.629  12.396  0.0088  0.2574 -0.0482
15189TIP3    H166982   5.328   4.701  12.458  0.3034 -0.4830  0.7699
15189TIP3    H266983   5.363   4.656  12.317 -0.2772  1.1627  0.0712
15190TIP3   OH266984   4.408   6.111   4.652  0.2591 -0.4430 -0.1005
15190TIP3    H166985   4.378   6.177   4.715 -0.5517  0.5487 -1.4824
15190TIP3    H266986   4.459   6.160   4.587 -0.5920 -1.1041 -1.3049
15191TIP3   OH266987   3.105   2.256  12.347 -0.3436  0.0373  0.5395
15191TIP3    H166988   3.124   2.348  12.329  0.3510 -0.0755  0.6730
15191TIP3    H266989   3.166   2.207  12.292 -0.6439 -0.3438  0.5411
15192TIP3   OH266990   6.184   5.426   5.743 -0.2685  0.3498 -0.6824
15192TIP3    H166991   6.154   5.383   5.823 -0.4378 -1.7504 -1.7973
15192TIP3    H266992   6.272   5.458   5.765  0.4723 -1.8405 -0.1317
15193TIP3   OH266993   6.495   1.343  13.040  0.3274 -0.2030  0.1104
15193TIP3    H166994   6.565   1.281  13.019  0.3695  0.1457 -0.8005
15193TIP3    H266995   6.511   1.367  13.132 -0.7389 -2.8847  1.0754
15194TIP3   OH266996   5.612   6.368  16.414 -0.1632 -0.4629 -0.0131
15194TIP3    H166997   5.628   6.369  16.509  1.5652 -0.2984 -0.2655
15194TIP3    H266998   5.689   6.324  16.378 -1.5620 -2.0105 -1.2411
15195TIP3   OH266999   6.244   5.530   1.520 -0.1810 -0.7800 -0.0727
15195TIP3    H167000   6.238   5.450   1.468  1.6801 -1.5635  0.7975
15195TIP3    H267001   6.174   5.522   1.584 -1.3581 -0.6587 -1.3056
15196TIP3   OH267002   3.222   2.791   3.183  0.7835  0.3440 -0.4351
15196TIP3    H167003   3.144   2.840   3.158 -1.3350 -2.2493  0.6351
15196TIP3    H267004   3.239   2.818   3.273  1.7442  1.5818 -0.9593
15197TIP3   OH267005   0.072   5.041  16.509 -0.1288  0.1407  0.6351
15197TIP3    H167006  -0.011   5.001  16.534  1.1362 -2.4352  1.0784
15197TIP3    H267007   0.070   5.044  16.413 -1.1171  1.0808  0.6677
15198TIP3   OH267008   0.246   6.371   3.858 -0.8020 -0.0528  0.2906
15198TIP3    H167009   0.219   6.298   3.913 -0.5185 -0.8738 -0.6409
15198TIP3    H267010   0.286   6.330   3.781 -0.3371  1.0829 -0.0956
15199TIP3   OH267011   4.210   3.545  14.417  0.0834 -0.1809 -0.0123
15199TIP3    H167012   4.174   3.464  14.380 -1.6535 -0.1781  1.4926
15199TIP3    H267013   4.133   3.599  14.436  1.1086  1.1490  0.5321
15200TIP3   OH267014   5.802   5.018  12.592 -0.5818  0.0282 -0.1844
15200TIP3    H167015   5.894   4.995  12.607 -0.7857  0.1313  1.2729
15200TIP3    H267016   5.767   4.942  12.545  0.5505  0.5538 -1.9893
15201TIP3   OH267017   6.091   4.663  16.081  0.7191 -0.2614  0.0749
15201TIP3    H167018   6.123   4.573  16.077  1.4215 -0.1016  1.2853
15201TIP3    H267019   6.058   4.682  15.994 -0.4154 -2.0335  0.0812
15202TIP3   OH267020   3.785   1.249   4.299 -0.3529  0.2302 -0.2859
15202TIP3    H167021   3.778   1.166   4.346  0.1405 -0.2453 -1.0276
15202TIP3    H267022   3.736   1.311   4.352 -0.4038 -0.4512  0.4800
15203TIP3   OH267023   2.745   1.175   4.990 -0.0748  0.1642 -0.3591
15203TIP3    H167024   2.802   1.108   5.029 -1.5652 -0.5220  0.7171
15203TIP3    H267025   2.695   1.209   5.063 -0.1309  1.7051 -1.0858
15204TIP3   OH267026   1.914   2.111   3.585 -0.1304 -0.6966 -0.3102
15204TIP3    H167027   1.821   2.100   3.566 -0.6093  1.8581  0.1324
15204TIP3    H267028   1.936   2.196   3.546  2.0398 -1.2829 -0.4543
15205TIP3   OH267029   5.602   4.231  12.357  0.5590  0.3625 -0.0211
15205TIP3    H167030   5.537   4.295  12.329  1.3862  2.6136  2.7669
15205TIP3    H267031   5.661   4.222  12.282 -2.1170 -0.7943 -2.1545
15206TIP3   OH267032   0.717   1.676   1.468 -0.0457  0.7686 -0.6209
15206TIP3    H167033   0.692   1.588   1.439  1.4590  0.1416 -0.1125
15206TIP3    H267034   0.743   1.721   1.387  2.3732 -0.3816 -0.5662
15207TIP3   OH267035   3.863   3.294   5.725  0.4787  0.0505  0.2747
15207TIP3    H167036   3.867   3.260   5.815 -0.8788 -0.5637  0.1302
15207TIP3    H267037   3.950   3.330   5.710  1.0861 -0.8101  1.4565
15208TIP3   OH267038   3.607   5.311   0.193 -0.0399 -0.3088  0.1741
15208TIP3    H167039   3.621   5.310   0.098 -0.4312  0.3599  0.1003
15208TIP3    H267040   3.624   5.401   0.218  0.3404 -0.5528  0.7874
15209TIP3   OH267041   2.099   0.728  14.286 -0.4537 -0.0208 -0.5472
15209TIP3    H167042   2.178   0.777  14.309 -0.4207 -0.6516  0.7711
15209TIP3    H267043   2.034   0.754  14.351 -1.0918 -0.1067 -1.1392
15210TIP3   OH267044   5.703   2.061  14.524  0.4047 -0.2295  0.2788
15210TIP3    H167045   5.761   2.028  14.593 -0.3399 -3.2344 -0.3762
15210TIP3    H267046   5.640   2.115  14.571  1.0300 -0.6596  1.6865
15211TIP3   OH267047   0.662   0.173  11.624 -0.1069 -0.5018  0.7129
15211TIP3    H167048   0.714   0.168  11.704 -0.7403 -1.7886  1.0771
15211TIP3    H267049   0.724   0.203  11.557  0.6717 -0.3563  1.4747
15212TIP3   OH267050   5.384   1.008   2.226  0.1431  0.2429 -0.2279
15212TIP3    H167051   5.419   0.924   2.257 -0.8892 -0.1690 -0.1309
15212TIP3    H267052   5.429   1.024   2.143 -0.3660 -0.9254 -0.7550
15213TIP3   OH267053   6.454   1.543  16.710  0.4232 -0.3750  0.2875
15213TIP3    H167054   6.451   1.634  16.679 -1.0791 -0.4804  0.0257
15213TIP3    H267055   6.400   1.496  16.647 -2.5638 -0.6563  2.8572
15214TIP3   OH267056   5.501   1.028  15.544  0.2482 -0.3007 -0.4935
15214TIP3    H167057   5.461   0.945  15.569 -1.4498  0.3234 -0.9796
15214TIP3    H267058   5.585   1.004  15.506 -1.0856 -2.0149 -2.6109
15215TIP3   OH267059   0.458   0.114  11.325 -0.3107 -0.6994  0.0227
15215TIP3    H167060   0.462   0.099  11.231  0.7158 -1.5466  0.1756
15215TIP3    H267061   0.550   0.122  11.352 -0.6102  2.2616  0.5733
15216TIP3   OH267062   2.886   2.807   5.904  0.1438  0.1023 -0.3250
15216TIP3    H167063   2.804   2.808   5.953  0.0208  1.7208 -0.4913
15216TIP3    H267064   2.891   2.719   5.867 -1.1969 -0.2283  0.2192
15217TIP3   OH267065   6.371   1.456  13.785  0.4542  0.1858 -0.1514
15217TIP3    H167066   6.425   1.528  13.754  0.3835  0.5344  0.5144
15217TIP3    H267067   6.433   1.388  13.810  0.5902  0.5632  0.5559
15218TIP3   OH267068   1.774   1.108   3.862  0.2504 -0.1566  0.2781
15218TIP3    H167069   1.702   1.172   3.865  0.4350  0.0493  0.3204
15218TIP3    H267070   1.852   1.159   3.882  0.3977 -0.3995  0.3216
15219TIP3   OH267071   1.412   1.955   3.572  0.2131 -0.3424  0.1061
15219TIP3    H167072   1.351   2.004   3.627 -0.7801  0.2150 -1.4259
15219TIP3    H267073   1.410   1.866   3.607 -0.5866 -0.0656  0.7956
15220TIP3   OH267074   0.796   2.486  13.882 -0.1869  0.8434  0.2729
15220TIP3    H167075   0.840   2.565  13.853 -2.8404  2.6366  0.7808
15220TIP3    H267076   0.819   2.420  13.816  1.6163  2.1571 -0.4802
15221TIP3   OH267077   4.415   6.358   2.478  0.3406  0.0641 -0.2962
15221TIP3    H167078   4.497   6.399   2.452 -0.6028  1.1757 -1.6198
15221TIP3    H267079   4.347   6.404   2.429 -0.8984 -2.2773 -0.9734
15222TIP3   OH267080   2.647   3.668   1.652  0.2074 -0.4954 -0.0508
15222TIP3    H167081   2.679   3.731   1.717  1.6324 -1.6355  0.4041
15222TIP3    H267082   2.588   3.719   1.596 -0.9251  0.5897  1.9904
15223TIP3   OH267083   4.232   2.359   4.245 -0.8592  0.3489 -0.3622
15223TIP3    H167084   4.280   2.277   4.250 -0.2361  0.5900 -1.7900
15223TIP3    H267085   4.287   2.423   4.291 -1.8673 -0.2054  1.7382
15224TIP3   OH267086   2.017   2.429  13.807 -0.3556  0.0596  0.0756
15224TIP3    H167087   1.983   2.340  13.812 -0.2354  0.0176  0.1514
15224TIP3    H267088   2.105   2.418  13.769 -1.1952  0.3478 -2.0851
15225TIP3   OH267089   3.110   2.929  14.430  0.4570  0.3409 -0.2755
15225TIP3    H167090   3.090   2.911  14.338  2.7467  1.1827 -1.0082
15225TIP3    H267091   3.091   2.847  14.475 -2.1170  0.3345 -1.1915
15226TIP3   OH267092   2.511   6.166   1.284  0.7462 -0.1787  0.9751
15226TIP3    H167093   2.564   6.174   1.204 -1.7701  1.7754 -0.6476
15226TIP3    H267094   2.494   6.257   1.310 -1.0986 -0.7434  1.8783
15227TIP3   OH267095   0.704   0.984  13.514  0.5000 -0.4042  0.4261
15227TIP3    H167096   0.727   0.973  13.606  0.2623  0.2870  0.5724
15227TIP3    H267097   0.719   1.076  13.496 -1.7055  0.0198  0.4244
15228TIP3   OH267098   6.648   5.623   4.468 -0.3729 -0.3697  0.6281
15228TIP3    H167099   6.638   5.652   4.558  2.0861 -0.6108  1.0476
15228TIP3    H267100   6.602   5.689   4.416 -2.4287 -0.5934  2.0367
15229TIP3   OH267101   0.004   1.270  15.469  0.2457  0.0528  0.0441
15229TIP3    H167102   0.080   1.308  15.511 -0.1931  1.1146 -0.0911
15229TIP3    H267103  -0.066   1.278  15.533 -0.1242  0.5267 -0.4106
15230TIP3   OH267104   0.291   2.369   3.619  0.1535  0.2113 -0.6440
15230TIP3    H167105   0.261   2.294   3.567 -0.7412  0.8568 -1.0811
15230TIP3    H267106   0.260   2.350   3.708  0.7077 -0.3560 -0.5639
15231TIP3   OH267107   0.126   3.822  12.024  0.3682  0.4798  0.4042
15231TIP3    H167108   0.078   3.749  12.063 -0.7977  1.2231  0.4253
15231TIP3    H267109   0.170   3.784  11.948 -1.1460 -0.0356 -0.2581
15232TIP3   OH267110   3.391   6.283  13.961 -0.0881 -0.0412 -0.0318
15232TIP3    H167111   3.375   6.276  14.055 -2.0122  1.0944 -0.2187
15232TIP3    H267112   3.409   6.376  13.947  1.3599 -0.3884 -0.6556
15233TIP3   OH267113   6.646   2.666  11.354 -0.0819 -0.6993  0.0793
15233TIP3    H167114   6.624   2.709  11.437 -0.2970  0.0015 -0.3269
15233TIP3    H267115   6.693   2.587  11.380 -1.6066 -1.3805  0.9325
15234TIP3   OH267116   3.615   5.167   2.623 -0.4541 -0.0924  0.1456
15234TIP3    H167117   3.662   5.193   2.544  0.3522 -0.5280  0.4788
15234TIP3    H267118   3.528   5.205   2.611  0.6822  2.9583  0.6909
15235TIP3   OH267119   4.349   4.118   2.419  0.4804  0.2451 -0.2823
15235TIP3    H167120   4.411   4.048   2.443 -0.0161 -0.2820 -0.4983
15235TIP3    H267121   4.301   4.136   2.499 -0.1307 -0.4338 -0.4866
15236TIP3   OH267122   4.825   6.001  16.589  0.1298  0.6811 -0.2503
15236TIP3    H167123   4.915   5.975  16.609  0.1472  0.8739 -0.0747
15236TIP3    H267124   4.791   6.037  16.671 -0.3269  0.0033 -0.1372
15237TIP3   OH267125   6.688   4.493  14.949 -0.1789  0.1688 -0.1044
15237TIP3    H167126   6.724   4.415  14.990  0.9461  0.6220 -0.1906
15237TIP3    H267127   6.725   4.494  14.861  3.9442  3.2761  1.3119
15238TIP3   OH267128   3.956   1.396  11.445  0.2483  0.9356  0.7380
15238TIP3    H167129   3.988   1.453  11.375 -0.7515  1.0922  0.3859
15238TIP3    H267130   4.034   1.350  11.476  0.9580  1.9603  0.5418
15239TIP3   OH267131   2.812   1.811   4.873 -0.3354 -0.3895 -0.1150
15239TIP3    H167132   2.803   1.739   4.811 -1.5807  0.0345 -0.4600
15239TIP3    H267133   2.744   1.796   4.938 -1.3601  1.0502 -0.8103
15240TIP3   OH267134   5.241   5.230  15.132 -0.2971  0.3996 -0.4100
15240TIP3    H167135   5.199   5.297  15.185  2.5084  1.5802  0.5290
15240TIP3    H267136   5.326   5.268  15.108  0.1061 -1.6200 -2.5359
15241TIP3   OH267137   4.484   5.660  14.338  0.5628 -0.1010 -0.2171
15241TIP3    H167138   4.501   5.582  14.286 -2.2840 -0.3768 -0.9078
15241TIP3    H267139   4.519   5.638  14.425  2.1102 -1.0650 -1.0261
15242TIP3   OH267140   1.052   5.624   2.121  0.0906 -0.2738  0.0845
15242TIP3    H167141   1.132   5.656   2.081  0.8072 -1.9531  0.0933
15242TIP3    H267142   1.080   5.551   2.176 -1.2434  0.1638  1.4145
15243TIP3   OH267143   0.150   0.593  12.201  0.5896 -0.2419  0.4485
15243TIP3    H167144   0.203   0.661  12.242  0.7134 -0.5822  0.8640
15243TIP3    H267145   0.068   0.637  12.179  1.5235  0.6600 -1.4892
15244TIP3   OH267146   4.025   5.124   1.522  0.4646  0.2289  0.0884
15244TIP3    H167147   4.016   5.102   1.430 -0.8586 -3.0327  0.8386
15244TIP3    H267148   4.106   5.081   1.550  0.2210  0.1324  0.6743
15245TIP3   OH267149   2.339   4.508   6.250 -0.3968 -0.8070  0.2145
15245TIP3    H167150   2.262   4.453   6.263 -1.9513  1.7304  2.7236
15245TIP3    H267151   2.366   4.532   6.339  1.3088  0.9988 -0.7238
15246TIP3   OH267152   3.290   1.793  12.722 -0.4061  0.6401  0.6656
15246TIP3    H167153   3.380   1.819  12.739  0.2356 -1.1057  0.1276
15246TIP3    H267154   3.242   1.821  12.800  0.4083  2.3269  0.6091
15247TIP3   OH267155   1.683   0.193   0.745 -0.4702  0.2102 -0.6128
15247TIP3    H167156   1.630   0.174   0.822  1.9105  3.3008  2.0223
15247TIP3    H267157   1.659   0.283   0.721  0.6663  0.1881 -1.9540
15248TIP3   OH267158   0.095   1.613   2.135  0.3315 -0.3890  0.1631
15248TIP3    H167159   0.126   1.565   2.212  5.0080  1.3026 -0.3606
15248TIP3    H267160   0.070   1.699   2.169  0.1912 -0.3811  0.0410
15249TIP3   OH267161   2.003   3.059  13.163  0.4184 -0.0096  0.3095
15249TIP3    H167162   2.068   3.097  13.222  0.2980  2.4829 -0.9978
15249TIP3    H267163   2.054   3.012  13.097  0.7147 -0.4978  0.8858
15250TIP3   OH267164   6.085   1.903  11.388  0.5757 -0.1480  0.2345
15250TIP3    H167165   6.154   1.916  11.323  1.0234 -0.5998  0.5999
15250TIP3    H267166   6.025   1.841  11.348  0.3475  0.3006 -0.1153
15251TIP3   OH267167   0.255   3.006   0.387 -0.8301 -0.3345 -0.3992
15251TIP3    H167168   0.189   2.940   0.410  1.2778 -2.2727  0.4390
15251TIP3    H267169   0.283   2.982   0.299 -2.8260  1.9630 -1.8034
15252TIP3   OH267170   6.488   1.274   0.479 -0.4410 -0.0428  0.0422
15252TIP3    H167171   6.513   1.363   0.503 -2.7903  0.2720  1.6833
15252TIP3    H267172   6.440   1.284   0.397  1.5686 -0.1990 -1.2043
15253TIP3   OH267173   4.873   1.380   5.545 -0.4759  0.1683 -0.4535
15253TIP3    H167174   4.869   1.348   5.455 -2.0294 -2.9955  0.5820
15253TIP3    H267175   4.797   1.437   5.555 -2.4935 -2.3510 -0.3160
15254TIP3   OH267176   5.493   5.125  13.290 -0.0149  0.0481  0.5404
15254TIP3    H167177   5.455   5.159  13.371 -2.1030 -1.0096  0.0838
15254TIP3    H267178   5.418   5.091  13.242  1.3050 -0.2074 -1.4300
15255TIP3   OH267179   6.005   0.523   1.613 -0.7861  0.0910 -0.4169
15255TIP3    H167180   6.028   0.616   1.619 -0.9125  0.1811 -1.2534
15255TIP3    H267181   5.940   0.510   1.682  0.2344  0.2984  0.6186
15256TIP3   OH267182   3.482   0.455  13.801 -0.3104  0.0507 -0.3092
15256TIP3    H167183   3.503   0.373  13.756  1.7054 -0.2328  1.0579
15256TIP3    H267184   3.563   0.505  13.801 -1.5103  2.1626 -1.1942
15257TIP3   OH267185   0.493   5.224   4.157 -0.4865 -0.5576  0.7613
15257TIP3    H167186   0.465   5.263   4.074 -1.0894  1.4204  1.8317
15257TIP3    H267187   0.585   5.246   4.164 -0.4185 -0.7850  0.5947
15258TIP3   OH267188   0.460   1.351   0.527 -0.5629 -0.7838 -0.2832
15258TIP3    H167189   0.436   1.342   0.435  0.6859 -1.0935 -0.5918
15258TIP3    H267190   0.498   1.267   0.550  0.2605 -0.2929  0.1674
15259TIP3   OH267191   5.479   1.405   4.812 -0.6129  0.2758 -0.5185
15259TIP3    H167192   5.394   1.431   4.848 -1.0800 -0.4173 -1.0971
15259TIP3    H267193   5.458   1.352   4.735  0.3360 -0.3053 -0.4028
15260TIP3   OH267194   0.385   0.368  14.160  0.4247  0.3287  0.0211
15260TIP3    H167195   0.310   0.309  14.159  2.9070 -3.1154 -0.1666
15260TIP3    H267196   0.445   0.333  14.094  2.4110  2.6999  0.3986
15261TIP3   OH267197   0.218   2.504  12.990  0.1047  0.1856 -0.2330
15261TIP3    H167198   0.236   2.444  12.917  0.7790 -0.2050  0.2363
15261TIP3    H267199   0.139   2.551  12.964 -0.6445 -1.1528 -0.4748
15262TIP3   OH267200   3.846   0.747  16.913 -0.1193 -0.5045 -0.2286
15262TIP3    H167201   3.921   0.781  16.864  0.7529 -0.4664  1.0742
15262TIP3    H267202   3.775   0.808  16.894  0.3788 -0.1406 -0.9436
15263TIP3   OH267203   4.373   5.054  15.367 -0.5718 -0.0889 -0.0574
15263TIP3    H167204   4.462   5.045  15.402 -0.3192 -1.6697 -1.0250
15263TIP3    H267205   4.330   5.114  15.428  1.3450  1.2773  0.0391
15264TIP3   OH267206   4.051   0.395   2.537 -0.7246  0.3036  0.2463
15264TIP3    H167207   3.977   0.347   2.574 -0.0947 -1.9930 -1.2725
15264TIP3    H267208   4.043   0.382   2.442  1.3852  0.2799  0.0250
15265TIP3   OH267209   2.197   0.462  14.490 -0.0283 -0.4565 -0.4300
15265TIP3    H167210   2.196   0.468  14.395 -0.0901 -0.4855 -0.4313
15265TIP3    H267211   2.210   0.552  14.520  0.8653 -0.5570 -0.4800
15266TIP3   OH267212   1.296   5.132  14.599 -0.1554 -0.2095  0.2604
15266TIP3    H167213   1.279   5.172  14.684  0.9429  0.4946  0.1745
15266TIP3    H267214   1.215   5.146  14.549 -2.0211 -3.3515  2.1250
15267TIP3   OH267215   6.374   3.300   0.751 -0.4247 -0.0688 -0.1515
15267TIP3    H167216   6.444   3.272   0.810 -0.0480 -2.3685 -1.5733
15267TIP3    H267217   6.397   3.261   0.667 -3.1922 -0.5245 -0.7659
15268TIP3   OH267218   2.817   3.231   5.493  0.2124 -0.7203 -0.2794
15268TIP3    H167219   2.899   3.263   5.531  0.4264  1.8460 -2.5637
15268TIP3    H267220   2.845   3.184   5.414 -0.4720  0.3346 -1.1750
15269TIP3   OH267221   0.810   1.905   0.762 -0.0081  0.0411  0.3104
15269TIP3    H167222   0.803   1.915   0.667  0.5099 -1.1409  0.1307
15269TIP3    H267223   0.748   1.835   0.783 -0.7948  0.9189  0.9810
15270TIP3   OH267224   2.495   1.895  16.791 -0.0172  0.4846 -0.1030
15270TIP3    H167225   2.407   1.921  16.817 -1.0655 -1.4599 -1.4506
15270TIP3    H267226   2.481   1.839  16.715  2.1331 -2.6566  1.6265
15271TIP3   OH267227   3.353   5.241   2.579 -0.3177 -0.0458  0.2373
15271TIP3    H167228   3.288   5.276   2.519 -0.2090 -1.2458 -0.6291
15271TIP3    H267229   3.303   5.191   2.643 -0.2645 -2.1227 -1.2116
15272TIP3   OH267230   4.204   1.721  13.327 -0.3039  0.2933  0.1924
15272TIP3    H167231   4.153   1.758  13.255 -0.8226  0.8161  0.8221
15272TIP3    H267232   4.166   1.635  13.341 -1.5417  0.9753  1.1657
15273TIP3   OH267233   2.057   0.274  16.904 -0.4377 -0.1726 -0.3626
15273TIP3    H167234   2.074   0.180  16.892  0.2398  0.0930 -1.6377
15273TIP3    H267235   1.964   0.285  16.884 -0.0980 -0.2970 -2.2033
15274TIP3   OH267236   2.687   2.019   1.473  0.1945  0.2315  0.0947
15274TIP3    H167237   2.704   1.925   1.460  0.3271  0.0583  1.4114
15274TIP3    H267238   2.603   2.034   1.429  0.7870 -0.2048 -1.2505
15275TIP3   OH267239   1.186   3.377   2.257 -0.0674 -0.3725  0.1255
15275TIP3    H167240   1.106   3.395   2.207 -0.5138 -0.0648  0.9432
15275TIP3    H267241   1.164   3.399   2.347  0.4436 -1.7706  0.6248
15276TIP3   OH267242   2.827   1.567  16.456 -0.6001  0.1053  0.2791
15276TIP3    H167243   2.841   1.488  16.403  0.8533  1.2158 -1.0663
15276TIP3    H267244   2.742   1.601  16.425 -0.2669  0.1619 -0.5989
15277TIP3   OH267245   4.181   3.942   3.066 -0.4020  0.3202  0.4885
15277TIP3    H167246   4.092   3.940   3.029 -0.1029  1.2712 -0.3349
15277TIP3    H267247   4.221   3.861   3.034 -1.2798 -0.6431  1.7312
15278TIP3   OH267248   4.951   6.126   2.185 -0.3222 -0.5959  0.4422
15278TIP3    H167249   5.033   6.173   2.171 -0.2234 -0.4664  1.4056
15278TIP3    H267250   4.944   6.068   2.109  0.0596  0.2406 -0.2448
15279TIP3   OH267251   5.604   6.648   4.052 -0.4465  0.7127  0.1167
15279TIP3    H167252   5.662   6.572   4.055 -0.9886  0.2415 -0.8260
15279TIP3    H267253   5.638   6.707   4.120  0.7898  0.2174 -0.0429
15280TIP3   OH267254   0.001   2.860  10.655 -0.2011  0.6413 -0.5298
15280TIP3    H167255  -0.079   2.832  10.610  0.4132  1.2463 -2.0592
15280TIP3    H267256   0.054   2.781  10.661  0.1385  0.7504 -1.8306
15281TIP3   OH267257   3.135   5.141   5.209 -0.3424  0.4586 -0.3469
15281TIP3    H167258   3.209   5.086   5.236  0.3938  1.9728  0.8770
15281TIP3    H267259   3.168   5.189   5.133 -0.7731 -0.3028 -1.0299
15282TIP3   OH267260   0.772   2.057  16.915 -0.3276  0.2685 -0.1276
15282TIP3    H167261   0.710   2.085  16.847 -0.5408 -0.6701 -0.3280
15282TIP3    H267262   0.744   1.969  16.939  0.7047 -0.0308  0.0494
15283TIP3   OH267263   2.755   3.891  14.774 -0.3374 -0.0271 -0.4974
15283TIP3    H167264   2.746   3.827  14.704 -2.0367  0.2599 -0.5943
15283TIP3    H267265   2.765   3.838  14.853  0.1267 -0.3780 -0.7898
15284TIP3   OH267266   5.724   5.352  14.315 -0.6899 -0.2564 -0.6112
15284TIP3    H167267   5.696   5.268  14.278 -1.6790 -0.3173  0.2219
15284TIP3    H267268   5.707   5.416  14.246  0.3823 -0.7661 -1.3778
15285TIP3   OH267269   2.312   3.962   5.960 -0.4970 -0.1019 -0.3775
15285TIP3    H167270   2.276   3.971   6.048 -1.4816  1.3597 -0.9026
15285TIP3    H267271   2.323   3.868   5.948 -2.2790 -0.4620  0.5525
15286TIP3   OH267272   2.829   4.621  11.993  0.5193  0.2378  0.4983
15286TIP3    H167273   2.835   4.563  11.916 -1.0241  0.9455 -0.1996
15286TIP3    H267274   2.876   4.574  12.062  1.7403 -0.5265 -0.8023
15287TIP3   OH267275   5.116   5.856  16.894 -0.4997  0.6886  0.4968
15287TIP3    H167276   5.119   5.770  16.937 -1.9367  1.0340  1.3489
15287TIP3    H267277   5.096   5.917  16.965 -0.6582  1.5760 -0.3034
15288TIP3   OH267278   1.690   4.779   5.325  0.3574  0.2333  0.0223
15288TIP3    H167279   1.614   4.819   5.368 -0.1765 -0.8285  0.1249
15288TIP3    H267280   1.667   4.686   5.320  2.0033 -0.2369  0.7798
15289TIP3   OH267281   4.279   2.017  14.521 -0.9669  0.4298  0.0440
15289TIP3    H167282   4.218   2.014  14.447  1.1668 -0.4467 -1.7565
15289TIP3    H267283   4.302   1.926  14.537  0.1199  0.7716  0.4926
15290TIP3   OH267284   2.754   0.607   3.936 -0.4842 -0.4698 -0.3303
15290TIP3    H167285   2.789   0.692   3.908 -1.0740 -0.4510 -1.0266
15290TIP3    H267286   2.744   0.616   4.031 -0.1954  0.1072 -0.3502
15291TIP3   OH267287   1.319   6.115   2.996 -0.3927  0.1995  0.9038
15291TIP3    H167288   1.370   6.156   2.925  0.8451 -2.1137  0.3606
15291TIP3    H267289   1.373   6.127   3.074  0.2427 -0.8419  0.6372
15292TIP3   OH267290   5.484   0.220  14.205  0.8302 -0.9051 -0.2023
15292TIP3    H167291   5.555   0.247  14.148  1.0981 -0.7316  0.2053
15292TIP3    H267292   5.404   0.235  14.154  0.9703  0.5809 -0.0435
15293TIP3   OH267293   6.553   3.421  16.877  0.0530  0.6940 -0.0146
15293TIP3    H167294   6.558   3.480  16.801  0.7876  2.6029  1.4464
15293TIP3    H267295   6.618   3.353  16.859  0.3708  1.2327 -0.9951
15294TIP3   OH267296   2.469   2.989   1.622  0.2978  0.2135 -0.0424
15294TIP3    H167297   2.436   2.943   1.544 -1.1215 -0.6754  1.0339
15294TIP3    H267298   2.453   3.082   1.604 -1.8819 -0.1056 -0.0420
15295TIP3   OH267299   1.914   0.690  16.355  0.3645  0.2118 -0.3718
15295TIP3    H167300   1.949   0.730  16.434 -0.8383 -0.8465  0.7599
15295TIP3    H267301   1.990   0.651  16.311  0.8975 -0.1887  0.8809
15296TIP3   OH267302   3.021   0.531  11.326  0.8367 -0.1750 -0.2879
15296TIP3    H167303   3.098   0.507  11.377  1.0507  1.5410  0.2366
15296TIP3    H267304   3.036   0.622  11.301 -0.6709 -0.0548 -0.8487
15297TIP3   OH267305   0.996   5.025  15.076 -0.0997  0.1046  0.2966
15297TIP3    H167306   1.000   4.937  15.039 -0.6820  0.8284 -1.5991
15297TIP3    H267307   1.088   5.050  15.087  0.0966 -0.0147 -0.9930
15298TIP3   OH267308   3.439   1.956  14.847 -0.7391  0.5341  0.4156
15298TIP3    H167309   3.514   1.914  14.889  0.0496  1.4663 -0.0251
15298TIP3    H267310   3.403   1.888  14.790  0.1948  0.2711  0.1073
15299TIP3   OH267311   4.936   2.752   4.637 -0.0240 -0.2030  0.1515
15299TIP3    H167312   5.030   2.741   4.647  0.0329  0.5909  0.6127
15299TIP3    H267313   4.916   2.833   4.685 -1.0346 -0.7108  0.6284
15300TIP3   OH267314   1.061   4.303  15.750 -0.3797 -0.1045 -0.3495
15300TIP3    H167315   1.074   4.376  15.691  0.8801  0.8978  1.0875
15300TIP3    H267316   0.977   4.321  15.792  0.5417  1.3088  0.9902
15301TIP3   OH267317   6.617   3.369  12.149  0.1184 -0.6534 -0.0130
15301TIP3    H167318   6.536   3.332  12.183  1.0899 -1.5289  1.4518
15301TIP3    H267319   6.669   3.293  12.122  0.9202 -0.1850  0.1777
15302TIP3   OH267320   4.271   3.894   5.082 -0.4025  0.4057 -0.5880
15302TIP3    H167321   4.223   3.974   5.103  0.2609  0.9852 -1.2467
15302TIP3    H267322   4.362   3.914   5.101  0.1705  0.7608 -3.2539
15303TIP3   OH267323   2.383   2.236  15.566  0.7568 -0.6146  0.0147
15303TIP3    H167324   2.401   2.269  15.478 -0.1432 -0.4456 -0.1219
15303TIP3    H267325   2.354   2.313  15.615  0.1700 -0.9064  0.1348
15304TIP3   OH267326   0.746   3.558   0.413  0.0590  0.0486  0.7471
15304TIP3    H167327   0.840   3.538   0.414 -0.1575 -1.5855 -1.7955
15304TIP3    H267328   0.710   3.512   0.488  0.8863 -2.0740 -0.0855
15305TIP3   OH267329   2.389   1.175   5.805 -0.1994  0.6032  0.2081
15305TIP3    H167330   2.472   1.128   5.810 -1.8636 -2.4720  1.0813
15305TIP3    H267331   2.393   1.236   5.879  1.2899  0.5828  0.1853
15306TIP3   OH267332   5.458   5.441   0.255  0.1839  0.1267  0.4150
15306TIP3    H167333   5.446   5.347   0.247  1.1892  0.0224 -0.0331
15306TIP3    H267334   5.399   5.479   0.188 -0.4856 -0.1510  0.8361
15307TIP3   OH267335   0.119   4.706   0.868 -0.5235  0.3360  0.5369
15307TIP3    H167336   0.164   4.687   0.950  1.7496 -0.5991 -0.8534
15307TIP3    H267337   0.092   4.621   0.835 -2.3859  0.7926  0.7677
15308TIP3   OH267338   5.676   4.083  15.688  0.7344  0.1652  0.0826
15308TIP3    H167339   5.631   4.072  15.771  1.3762  0.7878  0.5228
15308TIP3    H267340   5.612   4.057  15.622  0.4356 -0.9669  0.7991
15309TIP3   OH267341   4.736   4.970  13.992 -0.0003  0.1162 -0.1692
15309TIP3    H167342   4.644   4.974  13.964  0.0662  0.7666 -0.3281
15309TIP3    H267343   4.764   5.062  13.994  0.4009 -0.0182  0.7106
15310TIP3   OH267344   0.754   6.705  12.644  0.1231 -0.1663  0.0016
15310TIP3    H167345   0.762   6.748  12.559 -0.4369 -1.5190 -0.7661
15310TIP3    H267346   0.662   6.715  12.667  0.5067  1.1897  1.0128
15311TIP3   OH267347   2.328   0.056  17.164 -0.0713 -0.4983  0.0895
15311TIP3    H167348   2.291   0.086  17.247  0.3604  0.2186  0.0234
15311TIP3    H267349   2.318   0.130  17.104  0.2323 -0.7724 -0.3079
15312TIP3   OH267350   1.027   1.493  15.866 -0.4849 -0.1694 -0.8412
15312TIP3    H167351   0.983   1.426  15.814 -0.1047 -0.5088 -0.7278
15312TIP3    H267352   1.117   1.494  15.832 -0.8084  1.1880 -1.7388
15313TIP3   OH267353   0.388   3.921  14.985  0.0366  0.0992 -0.2521
15313TIP3    H167354   0.380   4.011  14.953  0.1943  0.7297  1.3879
15313TIP3    H267355   0.480   3.899  14.973  0.2217  0.5496  0.3237
15314TIP3   OH267356   1.838   2.825   0.699 -0.1009 -0.4173 -0.0506
15314TIP3    H167357   1.857   2.765   0.772  1.8674 -0.6095 -0.6564
15314TIP3    H267358   1.886   2.905   0.721 -1.0168  0.2001 -0.2537
15315TIP3   OH267359   6.646   6.349  15.282 -0.4574 -0.1396  0.1724
15315TIP3    H167360   6.626   6.428  15.230  2.3261  1.3209  1.1070
15315TIP3    H267361   6.619   6.372  15.371  0.6271 -0.0748  0.5028
15316TIP3   OH267362   1.316   6.646  13.306 -0.0614  0.4775  0.3977
15316TIP3    H167363   1.349   6.704  13.237 -1.3661  0.2814 -0.4167
15316TIP3    H267364   1.254   6.589  13.261 -0.0047 -0.4877  1.5104
15317TIP3   OH267365   2.173   3.808  17.117  0.9976  0.2156 -0.9134
15317TIP3    H167366   2.164   3.750  17.041  1.1156  0.2042 -0.9197
15317TIP3    H267367   2.083   3.834  17.138  0.9858  0.4334 -1.2265
15318TIP3   OH267368   5.761   1.195  11.957 -0.1991  0.1383 -0.6288
15318TIP3    H167369   5.696   1.261  11.981  1.6635  1.5082  0.9773
15318TIP3    H267370   5.759   1.195  11.861  0.4840  3.4424 -0.7751
15319TIP3   OH267371   2.958   1.481   1.087  0.6890 -0.1621  0.3230
15319TIP3    H167372   2.921   1.393   1.092  0.9079 -0.1927  1.8409
15319TIP3    H267373   3.044   1.473   1.127  1.4741  0.3860 -1.1584
15320TIP3   OH267374   6.775   2.479   5.414  0.5626 -0.2318  0.1391
15320TIP3    H167375   6.820   2.447   5.335 -0.7839  1.2544 -1.3053
15320TIP3    H267376   6.713   2.544   5.381 -0.8990 -0.4306  2.3230
15321TIP3   OH267377   6.154   5.219   0.761  0.0971 -0.0292 -0.1357
15321TIP3    H167378   6.126   5.140   0.715  0.3750  1.6533 -3.4648
15321TIP3    H267379   6.250   5.214   0.760  0.1185  0.4053 -0.4976
15322TIP3   OH267380   0.215   1.062   1.089  0.1267  0.0380  0.2325
15322TIP3    H167381   0.165   1.135   1.051  0.9360  0.2927 -0.3838
15322TIP3    H267382   0.249   1.014   1.013  0.6248 -0.2552  0.6304
15323TIP3   OH267383   2.000   6.337  15.900 -0.1938 -0.5168  0.3088
15323TIP3    H167384   1.906   6.356  15.892  0.0282  0.2527 -0.6383
15323TIP3    H267385   2.042   6.401  15.843  0.9701 -0.3630  1.3185
15324TIP3   OH267386   5.511   5.503   0.512  0.6897  0.2312 -0.0988
15324TIP3    H167387   5.508   5.485   0.418  0.5533  2.6776 -0.6194
15324TIP3    H267388   5.447   5.443   0.550  0.4199 -0.4828 -1.6076
15325TIP3   OH267389   3.248   4.062  16.493  0.2105  0.1804 -0.0301
15325TIP3    H167390   3.310   4.047  16.565 -1.9942 -0.3704  1.9086
15325TIP3    H267391   3.216   3.974  16.471 -0.4629  0.5048 -0.3796
15326TIP3   OH267392   4.250   4.995   4.212 -0.7050  0.7591  0.2387
15326TIP3    H167393   4.215   4.914   4.249 -0.2220  0.2373 -0.4294
15326TIP3    H267394   4.186   5.020   4.145  0.1694 -0.1942 -0.9818
15327TIP3   OH267395   5.180   0.715  11.252  0.2007  0.3778 -0.2660
15327TIP3    H167396   5.170   0.719  11.157  1.3699 -0.3179 -0.4427
15327TIP3    H267397   5.153   0.801  11.283 -1.9933  0.0033 -1.0211
15328TIP3   OH267398   0.102   2.660  11.018  0.4915  0.1851 -0.7139
15328TIP3    H167399   0.170   2.687  11.080  0.5954 -0.0547 -0.7199
15328TIP3    H267400   0.026   2.714  11.040  0.0980 -0.7972  0.5034
15329TIP3   OH267401   3.666   6.699   2.239  0.0772 -0.2958 -0.2523
15329TIP3    H167402   3.589   6.688   2.294  0.5854  1.0894  0.8021
15329TIP3    H267403   3.720   6.622   2.256 -1.4008 -1.7145 -1.6412
15330TIP3   OH267404   0.218   0.177   0.908 -0.0018 -0.4169 -0.7104
15330TIP3    H167405   0.174   0.093   0.906 -1.6689  0.3614  0.7654
15330TIP3    H267406   0.298   0.162   0.957 -0.2993 -1.1410 -0.4437
15331TIP3   OH267407   3.789   3.737  15.768  0.0811  0.5804  0.3442
15331TIP3    H167408   3.790   3.644  15.791  1.3408  0.8167  1.3429
15331TIP3    H267409   3.835   3.741  15.684  0.1956  0.3310  0.3947
15332TIP3   OH267410   2.591   1.953   1.125  0.4554  0.4442 -0.1567
15332TIP3    H167411   2.533   1.996   1.062 -1.5672 -0.8604  0.6942
15332TIP3    H267412   2.680   1.975   1.096 -0.4252  3.4643 -0.8859
15333TIP3   OH267413   4.934   3.151   5.931 -0.4540  0.4707 -0.2979
15333TIP3    H167414   4.900   3.210   5.999  1.4873  1.7977 -0.3796
15333TIP3    H267415   4.942   3.066   5.975 -0.8700  0.8796  0.6106
15334TIP3   OH267416   2.965   5.086   4.618  0.1702  0.2764  0.3396
15334TIP3    H167417   2.990   5.093   4.526  1.6003 -1.5885  0.5157
15334TIP3    H267418   2.993   5.169   4.657  1.4942  0.2669 -0.5096
15335TIP3   OH267419   4.128   0.195   2.190  0.1490 -0.7536 -0.3349
15335TIP3    H167420   4.063   0.241   2.242  0.1144 -2.1798  0.9452
15335TIP3    H267421   4.181   0.147   2.254  0.3496 -2.2771 -1.5663
15336TIP3   OH267422   0.446   2.801   2.984 -0.6491  0.0425 -0.3433
15336TIP3    H167423   0.458   2.843   2.899 -1.6166  0.1801 -0.4208
15336TIP3    H267424   0.507   2.727   2.982  0.9329  1.2788 -0.2817
15337TIP3   OH267425   2.766   2.093  16.646  0.4128 -0.0355  0.3509
15337TIP3    H167426   2.689   2.139  16.613  0.5682  0.5826  0.8351
15337TIP3    H267427   2.755   2.092  16.741  1.4172  0.8323  0.4921
15338TIP3   OH267428   2.222   2.328  11.527  0.0327  0.6310 -0.4439
15338TIP3    H167429   2.167   2.391  11.479  0.4489  0.8457 -0.6429
15338TIP3    H267430   2.279   2.291  11.460 -0.3249 -0.0900 -0.3590
15339TIP3   OH267431   3.601   2.960  16.477  0.3983 -0.2603  0.2778
15339TIP3    H167432   3.511   2.991  16.481  0.8222  0.9710  0.5252
15339TIP3    H267433   3.593   2.867  16.455 -0.9948 -0.5942  1.9579
15340TIP3   OH267434   3.412   3.449   1.380  0.3475 -0.3209  0.8084
15340TIP3    H167435   3.383   3.496   1.459  0.2326  0.0111  0.5730
15340TIP3    H267436   3.505   3.433   1.395  0.2656 -0.5082  1.1332
15341TIP3   OH267437   3.356   2.046   3.655 -0.3370  0.5461  0.1831
15341TIP3    H167438   3.429   2.092   3.696 -0.8244  1.5190 -0.0036
15341TIP3    H267439   3.348   2.085   3.568 -0.4084 -0.2941 -0.1973
15342TIP3   OH267440   2.644   0.272  10.875 -0.2767 -1.2555  0.0423
15342TIP3    H167441   2.582   0.287  10.803  2.3788  0.8257 -2.0275
15342TIP3    H267442   2.611   0.327  10.947 -0.9102 -0.2602 -0.9713
15343TIP3   OH267443   2.567   4.223   5.338  0.1015  0.3058 -0.0415
15343TIP3    H167444   2.583   4.317   5.348  2.7750  0.1363 -1.8129
15343TIP3    H267445   2.644   4.182   5.376  0.2838 -1.0249 -1.7495
15344TIP3   OH267446   6.744   4.865  16.064  0.2781 -0.6669  0.8050
15344TIP3    H167447   6.793   4.885  15.985 -0.2978 -0.4595  0.4986
15344TIP3    H267448   6.658   4.904  16.050  0.2430 -0.4354  1.6216
15345TIP3   OH267449   4.718   5.536   4.484 -0.2763 -0.4138  0.7119
15345TIP3    H167450   4.655   5.605   4.508  0.5189  0.3437  0.6656
15345TIP3    H267451   4.743   5.497   4.568 -0.0674 -0.0474  0.8246
15346TIP3   OH267452   0.921   4.339   0.136  0.0236 -0.4135  0.2079
15346TIP3    H167453   0.914   4.248   0.163  1.0713 -0.5414  0.1138
15346TIP3    H267454   0.952   4.385   0.214 -0.9793 -0.0394  0.3982
15347TIP3   OH267455   4.299   0.829   6.564  0.3204 -0.0935 -0.4929
15347TIP3    H167456   4.297   0.737   6.540  0.0843 -0.0684 -0.5711
15347TIP3    H267457   4.265   0.831   6.654  0.7432 -0.1316 -0.3278
15348TIP3   OH267458   2.959   3.476   0.363  0.0647  0.7213 -0.0466
15348TIP3    H167459   2.883   3.516   0.320  0.6084 -0.1431 -1.9385
15348TIP3    H267460   2.921   3.421   0.432 -1.0392  0.4565 -0.8236
15349TIP3   OH267461   5.156   4.037  15.345 -0.1848 -0.1119  0.3677
15349TIP3    H167462   5.141   3.944  15.336 -0.0570 -0.0165 -0.9785
15349TIP3    H267463   5.200   4.046  15.430  0.5510 -1.3661  0.1492
15350TIP3   OH267464   4.201   2.778   4.161 -0.1328  0.0212 -0.5598
15350TIP3    H167465   4.227   2.869   4.146 -1.1950  0.2271 -1.2994
15350TIP3    H267466   4.117   2.784   4.207 -0.3255 -0.5758 -0.8150
15351TIP3   OH267467   0.243   1.172   2.481  0.3059  0.1477  0.0721
15351TIP3    H167468   0.328   1.205   2.453 -0.0618  1.4362  0.4073
15351TIP3    H267469   0.264   1.109   2.550  0.9979  0.5206  0.2153
15352TIP3   OH267470   4.135   0.578  14.085 -0.3990  0.0882 -0.4798
15352TIP3    H167471   4.176   0.597  14.001 -0.0823  1.6853 -0.0060
15352TIP3    H267472   4.208   0.581  14.148 -0.9536  1.0982  0.1317
15353TIP3   OH267473   0.771   6.503  15.524  0.1297 -0.2834  0.1112
15353TIP3    H167474   0.854   6.461  15.501  0.7638  0.3758  1.0968
15353TIP3    H267475   0.729   6.443  15.586 -0.2387 -0.7149 -0.5484
15354TIP3   OH267476   6.776   1.942   3.030  0.0455  0.0749  0.3816
15354TIP3    H167477   6.745   1.857   2.999  0.7193 -0.1017  0.1600
15354TIP3    H267478   6.846   1.920   3.092  1.3733  0.4552 -0.9078
15355TIP3   OH267479   5.423   4.636   2.980 -1.0587 -0.0992  0.1685
15355TIP3    H167480   5.341   4.589   2.964 -0.1060 -1.5180 -0.6996
15355TIP3    H267481   5.463   4.645   2.894  0.1643 -0.2941  0.7027
15356TIP3   OH267482   0.169   0.232  16.012 -0.2275  0.7114  0.0145
15356TIP3    H167483   0.162   0.137  16.006 -1.2775  0.6879  1.1804
15356TIP3    H267484   0.133   0.264  15.930  0.6338  0.1045 -0.6218
15357TIP3   OH267485   2.515   0.759   4.008 -0.3686  0.0915  0.0818
15357TIP3    H167486   2.600   0.789   3.976 -1.2504  1.6891 -0.9474
15357TIP3    H267487   2.453   0.793   3.943 -2.1389  2.1057  2.6526
15358TIP3   OH267488   3.718   2.120   4.815  0.7662  0.6757  0.0890
15358TIP3    H167489   3.764   2.173   4.750 -0.8462  0.1026 -1.6038
15358TIP3    H267490   3.711   2.033   4.774  0.7139 -0.0149  1.5226
15359TIP3   OH267491   4.180   4.193   2.940  0.4414 -0.3517 -0.2746
15359TIP3    H167492   4.190   4.098   2.946 -2.1275 -0.5865  2.5346
15359TIP3    H267493   4.089   4.209   2.963  1.2399  2.9278  1.1850
15360TIP3   OH267494   2.818   2.485   2.582  0.1723 -0.3800 -0.1140
15360TIP3    H167495   2.835   2.416   2.518  0.1723 -2.1291  1.7052
15360TIP3    H267496   2.755   2.543   2.538 -2.1218 -3.1110 -0.6841
15361TIP3   OH267497   1.637   2.318  16.330  0.2824 -0.0451  0.0586
15361TIP3    H167498   1.621   2.407  16.299  0.8523 -0.2096 -0.7430
15361TIP3    H267499   1.556   2.271  16.310 -0.2406  0.4154  1.0137
15362TIP3   OH267500   3.350   5.115  16.213  0.0476  0.1810  0.5403
15362TIP3    H167501   3.367   5.022  16.196  1.5288  0.5056  0.1469
15362TIP3    H267502   3.341   5.120  16.308 -1.8967 -0.6286  0.4575
15363TIP3   OH267503   2.177   2.848  11.667  0.1284 -0.2801 -0.6935
15363TIP3    H167504   2.227   2.924  11.698  0.5056 -0.8563  0.1262
15363TIP3    H267505   2.088   2.881  11.654 -0.1549 -0.1212  1.4365
15364TIP3   OH267506   5.190   0.569   2.037 -0.0391 -0.1138 -0.3147
15364TIP3    H167507   5.279   0.603   2.051 -0.6218  1.9869 -1.4360
15364TIP3    H267508   5.133   0.645   2.048 -1.5330 -0.9940 -1.6092
15365TIP3   OH267509   2.147   2.663  15.052  0.0803  0.0345 -0.0513
15365TIP3    H167510   2.121   2.753  15.035 -2.0029 -0.4751  0.1503
15365TIP3    H267511   2.167   2.627  14.966  0.7427  0.6306 -0.1522
15366TIP3   OH267512   4.261   0.361   5.066 -0.1734 -1.1674  0.3127
15366TIP3    H167513   4.313   0.434   5.101 -0.8635  0.1718 -1.3115
15366TIP3    H267514   4.322   0.287   5.065  1.0475 -0.2040  0.5069
15367TIP3   OH267515   5.912   6.355  11.839 -0.0879  0.0270 -0.3032
15367TIP3    H167516   5.874   6.268  11.851 -0.4165  0.3336  0.9939
15367TIP3    H267517   5.878   6.384  11.754 -3.6426  0.6537  1.1381
15368TIP3   OH267518   5.892   3.858   2.390 -0.1158  0.2853  0.1494
15368TIP3    H167519   5.941   3.865   2.472  0.0843 -0.5020  0.1088
15368TIP3    H267520   5.943   3.910   2.327 -0.2316  0.8322  0.4993
15369TIP3   OH267521   0.085   1.861   1.668 -0.4080 -0.0801 -0.6820
15369TIP3    H167522   0.102   1.848   1.574  1.6162 -1.2273 -0.2171
15369TIP3    H267523  -0.004   1.829   1.681 -0.4510 -0.6097 -2.0824
15370TIP3   OH267524   4.452   2.539  16.240  0.0866 -0.2636 -0.1112
15370TIP3    H167525   4.516   2.603  16.272  0.9067 -0.9914 -0.2478
15370TIP3    H267526   4.385   2.592  16.197  0.0004  0.5945  1.0251
15371TIP3   OH267527   1.733   6.176  17.097  0.1262 -0.0823  0.0865
15371TIP3    H167528   1.780   6.102  17.058  1.4979  1.2860 -0.9438
15371TIP3    H267529   1.777   6.191  17.181  1.6505  1.2313 -0.8995
15372TIP3   OH267530   3.390   5.328   0.513 -0.0345  0.3891  0.1237
15372TIP3    H167531   3.361   5.398   0.454 -1.1415  0.7814  1.1021
15372TIP3    H267532   3.449   5.372   0.575 -0.4400  0.3838  0.5139
15373TIP3   OH267533   5.261   4.469  13.018  0.2127  0.0823  0.3301
15373TIP3    H167534   5.248   4.511  13.103 -0.0049 -0.1448  0.4106
15373TIP3    H267535   5.284   4.379  13.040 -0.1092 -0.0457  0.1425
15374TIP3   OH267536   5.019   0.050  13.483 -0.2853 -0.0826  0.0941
15374TIP3    H167537   5.077  -0.025  13.497  0.7782  0.5637 -0.6874
15374TIP3    H267538   4.967   0.055  13.563 -1.6171 -2.6562 -0.4841
15375TIP3   OH267539   0.917   5.909  16.941 -0.1378 -0.1011 -0.0257
15375TIP3    H167540   0.848   5.945  16.886  0.6764 -2.1584 -2.6027
15375TIP3    H267541   0.891   5.818  16.954  0.7681 -0.1989  1.2706
15376TIP3   OH267542   4.036   5.274   2.706  0.0675 -0.2735 -0.0459
15376TIP3    H167543   4.053   5.180   2.709 -0.1445 -0.2931  1.7703
15376TIP3    H267544   3.962   5.287   2.765  0.4470  1.1056  0.1690
15377TIP3   OH267545   1.695   5.887  13.172 -0.0354  0.3579 -0.0280
15377TIP3    H167546   1.774   5.929  13.138  0.4161  2.4730  3.2141
15377TIP3    H267547   1.626   5.911  13.111  1.0511  2.2824 -0.5509
15378TIP3   OH267548   5.982   0.544  16.714  0.0890 -0.4958 -0.0828
15378TIP3    H167549   6.059   0.599  16.730 -0.2414  0.9714 -2.9935
15378TIP3    H267550   5.991   0.514  16.624 -2.8511 -0.0271 -0.6395
15379TIP3   OH267551   3.518   5.149  12.398  0.3003  0.1598  0.0270
15379TIP3    H167552   3.517   5.242  12.417  0.6939  0.2074 -0.1633
15379TIP3    H267553   3.426   5.124  12.392  0.1565  1.0610 -2.4429
15380TIP3   OH267554   1.730   3.721  15.059  0.0998 -0.1697  0.4575
15380TIP3    H167555   1.811   3.705  15.009 -1.0706 -0.4545 -1.4469
15380TIP3    H267556   1.759   3.772  15.135  1.9368  0.5790 -0.6592
15381TIP3   OH267557   3.882   3.289   4.082 -0.9623 -0.0042 -0.5126
15381TIP3    H167558   3.918   3.342   4.153  0.3440 -0.9064 -0.4621
15381TIP3    H267559   3.809   3.243   4.121 -0.4771 -0.2179  0.1685
15382TIP3   OH267560   5.824   4.764  15.869  0.5332  0.2593  0.1172
15382TIP3    H167561   5.870   4.832  15.819 -0.1873  1.4656  1.0528
15382TIP3    H267562   5.767   4.812  15.929  0.3471 -1.1765  1.1374
15383TIP3   OH267563   1.952   5.071   5.078 -0.5801 -0.8929  0.1916
15383TIP3    H167564   2.000   5.087   4.996  0.5425 -2.3605  0.5255
15383TIP3    H267565   1.902   4.991   5.061 -1.9823 -0.0752  0.2803
15384TIP3   OH267566   3.909   1.400  14.822  0.5424 -0.0196 -0.0781
15384TIP3    H167567   3.902   1.445  14.906  1.8048  1.1594 -0.5462
15384TIP3    H267568   3.940   1.313  14.844  1.8955  0.6070  0.6529
15385TIP3   OH267569   2.397   3.449  16.517 -0.9680 -0.0837  0.5676
15385TIP3    H167570   2.428   3.359  16.508 -1.6282 -0.4777  1.9324
15385TIP3    H267571   2.336   3.461  16.444 -0.6624 -0.6384  0.2151
15386TIP3   OH267572   0.155   6.088   5.817  0.1712 -0.5354  0.1302
15386TIP3    H167573   0.190   6.149   5.882  1.3493  0.7789 -1.6335
15386TIP3    H267574   0.217   6.015   5.818  0.6514 -0.1345 -0.0848
15387TIP3   OH267575   1.606   0.695   3.623  0.2277  0.1239  0.5206
15387TIP3    H167576   1.539   0.666   3.685 -0.2877  0.9545  0.3699
15387TIP3    H267577   1.680   0.720   3.679  0.3767 -0.6965  0.6933
15388TIP3   OH267578   1.333   6.679  15.596  0.0742  0.0589  0.9700
15388TIP3    H167579   1.273   6.606  15.580 -1.1606  1.5553 -1.7985
15388TIP3    H267580   1.414   6.653  15.553 -0.4580  0.3597 -0.2742
15389TIP3   OH267581   4.296   5.992  11.664  0.4438  0.6882 -0.1564
15389TIP3    H167582   4.251   5.913  11.695 -1.7740  1.1399 -1.9228
15389TIP3    H267583   4.277   6.058  11.730 -1.8309  0.9154 -0.9298
15390TIP3   OH267584   3.187   5.916   1.764 -0.7136 -0.0529 -0.2334
15390TIP3    H167585   3.153   5.890   1.849 -0.2139 -0.8711 -0.2741
15390TIP3    H267586   3.281   5.927   1.777 -0.7209  0.4292 -0.5410
15391TIP3   OH267587   5.970   5.401  12.496  0.2334  0.4112 -0.3502
15391TIP3    H167588   6.017   5.332  12.541 -1.8130 -0.8064  0.0549
15391TIP3    H267589   5.962   5.471  12.561  1.3220  0.5928 -0.3935
15392TIP3   OH267590   0.765   4.815  16.607 -0.1041 -0.3796  0.7826
15392TIP3    H167591   0.707   4.818  16.530 -0.0069  0.9168  0.7414
15392TIP3    H267592   0.808   4.900  16.608  1.0528 -0.9548  1.4073
15393TIP3   OH267593   5.761   3.541  13.109  0.6541 -0.5155 -0.2813
15393TIP3    H167594   5.781   3.452  13.080  2.0820 -0.2403 -0.1659
15393TIP3    H267595   5.725   3.583  13.030  0.8716 -0.9025 -0.5926
15394TIP3   OH267596   5.018   1.129  12.555 -0.1918  0.0161  0.2589
15394TIP3    H167597   4.926   1.150  12.570 -0.4199 -1.4100  1.0330
15394TIP3    H267598   5.017   1.065  12.484  0.2105  0.0566  0.2128
15395TIP3   OH267599   5.925   3.051   2.411  0.2469  0.3961 -0.0460
15395TIP3    H167600   5.956   2.990   2.478 -1.3523 -0.9299 -0.4349
15395TIP3    H267601   6.005   3.089   2.374  1.1932  0.2000  1.7271
15396TIP3   OH267602   0.740   4.563   0.093 -0.2034  0.2328  0.0938
15396TIP3    H167603   0.806   4.494   0.078  2.9024  3.2731 -1.9118
15396TIP3    H267604   0.707   4.545   0.181  1.2994 -3.0572  0.1709
15397TIP3   OH267605   0.754   0.457  17.038 -0.4890 -0.6668 -0.4304
15397TIP3    H167606   0.814   0.385  17.053 -1.1377 -1.5353 -1.8455
15397TIP3    H267607   0.809   0.529  17.008  0.2762 -0.2418  1.7838
15398TIP3   OH267608   1.845   3.779  11.673 -0.4438  0.4127 -0.3773
15398TIP3    H167609   1.812   3.849  11.730  0.4464 -0.7748  1.7483
15398TIP3    H267610   1.900   3.823  11.609  1.1458  1.6082  1.7052
15399TIP3   OH267611   4.494   3.487  14.753 -0.2187  0.0022 -0.0412
15399TIP3    H167612   4.562   3.553  14.738 -0.0338 -0.1885 -0.0574
15399TIP3    H267613   4.412   3.531  14.733  0.0022 -0.2097 -1.5185
15400TIP3   OH267614   1.306   6.586   0.318 -0.3932  0.1229 -0.4461
15400TIP3    H167615   1.241   6.629   0.373 -1.4804 -1.7385 -0.1962
15400TIP3    H267616   1.278   6.604   0.229 -0.9391 -0.1771 -0.3409
15401TIP3   OH267617   0.716   5.768   5.380  0.3556 -0.2577  0.3421
15401TIP3    H167618   0.779   5.710   5.424  0.6943 -0.1331  0.0304
15401TIP3    H267619   0.650   5.708   5.345 -0.6226 -0.2768  2.0793
15402TIP3   OH267620   4.374   5.309  15.041 -0.3259 -0.4178  0.1654
15402TIP3    H167621   4.346   5.226  15.004 -0.6285 -0.0227 -0.5264
15402TIP3    H267622   4.422   5.352  14.970  1.5826 -0.8422  1.1439
15403TIP3   OH267623   3.726   0.004   5.601 -0.6931 -0.3804  0.3424
15403TIP3    H167624   3.643   0.005   5.649 -1.1411  0.8307 -0.4372
15403TIP3    H267625   3.782   0.065   5.649 -1.2990  1.2130 -0.8732
15404TIP3   OH267626   2.785   3.419   6.324  0.5969  0.1000 -0.7660
15404TIP3    H167627   2.845   3.493   6.314  1.4623 -0.1719  1.6439
15404TIP3    H267628   2.840   3.347   6.354 -0.7883 -0.2836  1.1064
15405TIP3   OH267629   6.294   0.667  12.147 -0.0834  0.0533 -0.0324
15405TIP3    H167630   6.209   0.709  12.136 -1.7210 -2.6359  1.2489
15405TIP3    H267631   6.312   0.673  12.241  0.8332  0.0361 -0.1993
15406TIP3   OH267632   3.711   5.067   5.733 -0.4522  0.0163  0.0639
15406TIP3    H167633   3.656   5.097   5.805 -0.2116  0.0800  0.2212
15406TIP3    H267634   3.650   5.028   5.670 -0.5560 -1.1823  0.8604
15407TIP3   OH267635   0.389   4.770  12.995  0.1509  0.5377 -0.5467
15407TIP3    H167636   0.479   4.739  12.991 -0.3465 -0.9598 -0.5262
15407TIP3    H267637   0.374   4.813  12.911  0.6257  0.0780 -0.8665
15408TIP3   OH267638   0.880   2.702  14.081 -0.0749  0.0592  0.5102
15408TIP3    H167639   0.923   2.618  14.096  0.1573  0.2075  0.6730
15408TIP3    H267640   0.883   2.713  13.986  0.4967  0.1974  0.5394
15409TIP3   OH267641   2.270   4.524  12.395  0.2691  0.2941  0.7295
15409TIP3    H167642   2.266   4.507  12.301  0.9816 -0.1664  0.7792
15409TIP3    H267643   2.355   4.491  12.422  0.4069  1.1555  1.3972
15410TIP3   OH267644   1.198   6.623   1.427  0.3165 -0.1806 -0.2983
15410TIP3    H167645   1.171   6.535   1.454  1.1017 -0.3197  0.0754
15410TIP3    H267646   1.124   6.679   1.449  1.0241 -0.2173  2.6224
15411TIP3   OH267647   1.134   0.308  12.172 -0.0462  0.2006 -0.4126
15411TIP3    H167648   1.181   0.260  12.104 -0.6214 -0.1936 -0.5360
15411TIP3    H267649   1.113   0.392  12.132  0.8657  0.5284 -0.2324
15412TIP3   OH267650   2.082   3.207   3.941 -0.2999 -0.0840  0.4688
15412TIP3    H167651   2.027   3.200   4.020  0.2468 -2.5383  0.7053
15412TIP3    H267652   2.058   3.131   3.889  1.0341  0.2325 -0.6470
15413TIP3   OH267653   5.345   2.971  16.599  0.3031 -0.2006 -0.3288
15413TIP3    H167654   5.427   2.920  16.605 -0.8874 -2.3341 -0.9989
15413TIP3    H267655   5.332   2.984  16.506 -0.3827 -0.3348 -0.2536
15414TIP3   OH267656   3.888   0.721   0.782  0.2633 -0.0227 -0.1771
15414TIP3    H167657   3.833   0.667   0.839  1.3371 -0.8237  0.1495
15414TIP3    H267658   3.835   0.799   0.763 -1.9834 -1.7951 -1.8794
15415TIP3   OH267659   1.457   4.331   2.683 -0.0823 -0.3095 -0.0100
15415TIP3    H167660   1.549   4.312   2.699  0.5615  0.5483 -2.2254
15415TIP3    H267661   1.430   4.266   2.617  0.0371  1.5845 -2.0585
15416TIP3   OH267662   4.824   2.365   0.623  0.5084 -0.0249 -0.3547
15416TIP3    H167663   4.815   2.413   0.541  0.6491 -1.5417 -1.3106
15416TIP3    H267664   4.739   2.322   0.635  0.3016  0.6105  0.6054
15417TIP3   OH267665   3.645   3.670  15.506  0.7735 -0.3249  0.4250
15417TIP3    H167666   3.613   3.731  15.440 -1.3676 -0.7616  1.0061
15417TIP3    H267667   3.738   3.692  15.515  0.5295  1.4581 -0.8381
15418TIP3   OH267668   5.160   4.827  13.224 -0.2758 -0.5992  0.2231
15418TIP3    H167669   5.090   4.890  13.242 -0.1199 -0.4146  0.1868
15418TIP3    H267670   5.239   4.880  13.220 -0.2171 -0.7176 -0.3590
15419TIP3   OH267671   4.273   2.543  14.690  0.2509 -0.1018 -0.3306
15419TIP3    H167672   4.232   2.620  14.730 -1.4122 -0.4797 -1.2207
15419TIP3    H267673   4.201   2.480  14.678  1.2272 -1.0999 -1.2651
15420TIP3   OH267674   5.945   4.034  16.258 -0.1822  0.1396 -0.0289
15420TIP3    H167675   5.985   4.088  16.326 -2.2879  1.2700  0.3650
15420TIP3    H267676   5.924   4.095  16.187 -0.1725 -0.6287 -0.7145
15421TIP3   OH267677   6.499   5.080   1.288 -0.3316  0.2519  0.1704
15421TIP3    H167678   6.565   5.127   1.338 -0.5954  1.3889 -0.5094
15421TIP3    H267679   6.483   4.999   1.337  2.0774 -0.4015 -0.0220
15422TIP3   OH267680   5.825   6.630  11.715 -0.3413  0.6319  0.1032
15422TIP3    H167681   5.889   6.700  11.723  1.2342 -0.6954 -0.2294
15422TIP3    H267682   5.789   6.620  11.803  0.8928  0.5405  0.6254
15423TIP3   OH267683   4.845   4.917  16.376 -0.3361  0.3823  0.1039
15423TIP3    H167684   4.878   4.827  16.386 -1.2136  0.0666  0.3101
15423TIP3    H267685   4.777   4.924  16.443  0.5087  1.6027  0.8787
15424TIP3   OH267686   6.022   5.953   2.551  0.5650  0.0044  0.0488
15424TIP3    H167687   5.990   5.940   2.462 -0.5544  0.9167  0.2914
15424TIP3    H267688   5.949   5.994   2.597  1.3219  0.0672  1.2466
15425TIP3   OH267689   6.644   2.891   5.467  0.3032  0.5569 -0.3021
15425TIP3    H167690   6.649   2.980   5.434  2.0588  0.4926 -0.2995
15425TIP3    H267691   6.728   2.851   5.443  0.0045 -0.7373  0.6662
15426TIP3   OH267692   1.503   2.746   5.227 -0.4031  1.2448  0.5707
15426TIP3    H167693   1.453   2.677   5.270 -0.3770 -0.0936 -1.4450
15426TIP3    H267694   1.593   2.714   5.226 -0.4791  1.0108 -0.8773
15427TIP3   OH267695   0.452   0.488  16.974  0.1087 -0.4725 -0.0402
15427TIP3    H167696   0.540   0.466  17.006 -0.2509 -0.4420  0.9932
15427TIP3    H267697   0.420   0.407  16.935  0.7432 -0.3758 -0.7886
15428TIP3   OH267698   5.233   4.336  13.508  0.6426  0.0167 -0.2890
15428TIP3    H167699   5.256   4.365  13.419  1.2544 -0.4663 -0.3030
15428TIP3    H267700   5.316   4.305  13.544  0.4152  0.3203  0.4975
15429TIP3   OH267701   2.242   2.272  12.291 -0.4231 -0.4724  0.3538
15429TIP3    H167702   2.188   2.250  12.366 -1.1177 -1.4418 -0.3962
15429TIP3    H267703   2.289   2.191  12.271  0.4759  0.0433  0.3141
15430TIP3   OH267704   3.756   6.149  13.545 -0.3679  0.0716  0.4201
15430TIP3    H167705   3.679   6.093  13.536 -1.4216  1.6600 -1.1412
15430TIP3    H267706   3.721   6.237  13.561  1.2161  0.4313  2.2546
15431TIP3   OH267707   3.559   2.056  14.093  0.1796 -0.7636 -0.2084
15431TIP3    H167708   3.616   1.988  14.056  1.4024 -1.0576  2.0253
15431TIP3    H267709   3.609   2.091  14.166 -1.0039  1.6286 -0.4595
15432TIP3   OH267710   2.456   6.631  14.981 -0.2260  0.0978  0.0515
15432TIP3    H167711   2.361   6.638  14.972 -0.3102  0.8158  1.2317
15432TIP3    H267712   2.470   6.615  15.075  0.7761 -0.9248 -0.2519
15433TIP3   OH267713   4.371   4.259   4.476 -0.4818  0.0867 -0.0084
15433TIP3    H167714   4.430   4.291   4.409  0.1514  0.9470  0.9220
15433TIP3    H267715   4.295   4.226   4.428  0.3509 -0.1890 -1.1746
15434TIP3   OH267716   2.836   6.661   5.411  0.1445 -0.0219  0.8289
15434TIP3    H167717   2.780   6.636   5.338  0.0622  1.1023  0.4840
15434TIP3    H267718   2.792   6.627   5.489  0.3401 -1.4075  0.3575
15435TIP3   OH267719   1.723   3.157  12.798 -0.1242 -0.5411 -0.3890
15435TIP3    H167720   1.735   3.093  12.868 -0.0401 -0.5148 -0.3782
15435TIP3    H267721   1.641   3.201  12.819 -0.3415 -0.8604 -0.5674
15436TIP3   OH267722   4.789   6.467   4.800  0.7403 -0.1741  0.2067
15436TIP3    H167723   4.724   6.523   4.757  2.0470  0.0383 -1.6344
15436TIP3    H267724   4.779   6.382   4.756 -0.9938 -1.3976  2.7413
15437TIP3   OH267725   1.364   4.430   3.777  0.0205 -0.0505  0.0812
15437TIP3    H167726   1.351   4.336   3.766 -2.6195  0.2726 -0.1183
15437TIP3    H267727   1.295   4.457   3.838  0.2647  1.8692 -0.4181
15438TIP3   OH267728   0.976   3.528   0.936 -0.3764  0.3045  0.4413
15438TIP3    H167729   0.953   3.437   0.955 -0.2310  0.5370  1.8494
15438TIP3    H267730   1.046   3.522   0.871  0.1810 -0.6377  1.0964
15439TIP3   OH267731   1.599   2.588   2.961 -0.4703  0.2096 -0.3050
15439TIP3    H167732   1.610   2.639   3.041  0.4337  0.1541 -0.3811
15439TIP3    H267733   1.596   2.653   2.891 -2.1835  0.3165 -0.1643
15440TIP3   OH267734   2.235   2.633   3.369 -0.3312  0.0468  1.1499
15440TIP3    H167735   2.239   2.574   3.295  1.1064  0.3336  0.9541
15440TIP3    H267736   2.215   2.719   3.331 -0.5385  0.0228  1.2055
15441TIP3   OH267737   1.925   2.841  16.985 -0.4163 -0.3015  0.0926
15441TIP3    H167738   1.978   2.842  16.905 -1.5398  1.3922 -0.6974
15441TIP3    H267739   1.876   2.760  16.981 -0.3823 -0.2868 -0.8991
15442TIP3   OH267740   2.322   1.640  15.954 -0.0644 -1.1664  0.0467
15442TIP3    H167741   2.369   1.671  16.032 -0.3254  0.3995 -0.3827
15442TIP3    H267742   2.230   1.639  15.980 -0.3143  0.7547 -0.6318
15443TIP3   OH267743   3.894   0.635   0.390 -0.2706 -0.3300 -0.2421
15443TIP3    H167744   3.967   0.628   0.329  0.3482  0.7733  0.3539
15443TIP3    H267745   3.861   0.724   0.380 -1.3052 -0.6938 -0.2313
15444TIP3   OH267746   6.132   2.476  13.606  0.1952 -0.1103 -0.0854
15444TIP3    H167747   6.185   2.550  13.579  0.0420  0.0500  0.0537
15444TIP3    H267748   6.056   2.478  13.548  0.7260 -0.8207 -0.8332
15445TIP3   OH267749   5.132   2.838  16.918  0.2104 -0.4297  0.2701
15445TIP3    H167750   5.060   2.787  16.881  1.0062  0.2732 -2.5194
15445TIP3    H267751   5.122   2.925  16.879  2.6101 -0.3418 -0.2938
15446TIP3   OH267752   0.608   3.838   6.503 -0.0603 -0.0092  0.5377
15446TIP3    H167753   0.558   3.819   6.582 -0.2720  0.2813  0.4782
15446TIP3    H267754   0.551   3.897   6.453  0.1632 -0.0184  0.2715
15447TIP3   OH267755   6.661   1.891  15.084 -0.2515  0.2410  0.3532
15447TIP3    H167756   6.702   1.956  15.027  0.3339  0.0132  0.5094
15447TIP3    H267757   6.680   1.922  15.173  0.8319 -0.6244  0.4413
15448TIP3   OH267758   5.154   2.611   0.238  1.1210 -0.3356  0.5036
15448TIP3    H167759   5.121   2.691   0.198  1.1154  0.3516  1.8401
15448TIP3    H267760   5.080   2.551   0.237  0.6001  0.2780  1.0567
15449TIP3   OH267761   5.450   1.071  14.108 -0.6335  0.0016  0.0968
15449TIP3    H167762   5.537   1.033  14.110 -0.0271  1.2546 -0.7794
15449TIP3    H267763   5.407   1.040  14.188  0.4918 -0.8716  0.3800
15450TIP3   OH267764   6.426   3.635  15.628 -0.5565  0.0327 -0.3279
15450TIP3    H167765   6.447   3.541  15.630  0.0729  0.1776  0.4880
15450TIP3    H267766   6.464   3.667  15.547  1.2038  0.0059  0.4482
15451TIP3   OH267767   1.727   6.377   1.863 -0.1038 -0.5514  0.5078
15451TIP3    H167768   1.678   6.324   1.925  1.7032 -0.5656  2.0193
15451TIP3    H267769   1.751   6.316   1.793  0.3881 -1.2920  1.3053
15452TIP3   OH267770   6.385   4.983   4.086 -0.1688 -0.7782  0.0488
15452TIP3    H167771   6.355   4.926   4.157  3.1521 -0.8551  1.5831
15452TIP3    H267772   6.445   4.927   4.034  1.1393  0.5437  0.0658
15453TIP3   OH267773   4.057   0.790  11.300 -0.4310 -0.0974  0.4474
15453TIP3    H167774   4.012   0.831  11.226 -1.1215 -1.2991  0.1829
15453TIP3    H267775   4.148   0.780  11.270 -0.8964 -1.3753 -0.5869
15454TIP3   OH267776   0.766   3.544  16.272 -0.3237 -0.4875 -0.0422
15454TIP3    H167777   0.776   3.635  16.241 -1.6676  0.3458  1.7866
15454TIP3    H267778   0.692   3.511  16.222  0.8517 -1.0003 -1.5151
15455TIP3   OH267779   0.408   2.420  16.166 -0.1912 -0.0649  0.1476
15455TIP3    H167780   0.371   2.434  16.078 -0.3655 -1.7257 -0.0647
15455TIP3    H267781   0.500   2.401  16.151 -0.2574 -0.5196  0.3018
15456TIP3   OH267782   4.299   0.046  16.149 -0.7121  0.6411  0.0098
15456TIP3    H167783   4.350   0.050  16.230 -0.4034  1.0697 -0.1987
15456TIP3    H267784   4.219  -0.000  16.173  0.5073 -1.6273 -0.0424
15457TIP3   OH267785   4.473   0.192  13.063  0.3966  0.3696 -0.4161
15457TIP3    H167786   4.382   0.190  13.094 -0.5463 -3.1525 -2.8229
15457TIP3    H267787   4.466   0.214  12.970  2.2662  1.9486 -0.2374
15458TIP3   OH267788   2.047   5.450  14.517 -0.1410 -0.3110 -0.0940
15458TIP3    H167789   2.124   5.441  14.574 -0.1565 -1.1664 -0.1986
15458TIP3    H267790   1.989   5.508  14.566  0.1347 -0.4886  0.4625
15459TIP3   OH267791   5.402   3.230   2.056 -0.7083  0.3189 -0.1697
15459TIP3    H167792   5.333   3.169   2.031 -1.1010  1.4218 -1.9032
15459TIP3    H267793   5.361   3.316   2.052  0.4669  0.9062 -0.1213
15460TIP3   OH267794   2.225   1.758   3.619  0.0768  0.4382 -0.3189
15460TIP3    H167795   2.301   1.803   3.657 -0.0782  1.5573 -1.3168
15460TIP3    H267796   2.204   1.807   3.540 -0.3925 -1.1177 -1.1978
15461TIP3   OH267797   1.530   5.264  17.151  0.4382  0.7110  0.3669
15461TIP3    H167798   1.605   5.318  17.172 -0.1137  1.4376  0.5253
15461TIP3    H267799   1.470   5.276  17.225  0.4242 -0.3525  0.5508
15462TIP3   OH267800   5.395   6.504  13.624  0.0371 -0.1385  0.0403
15462TIP3    H167801   5.328   6.572  13.615  0.9813  0.7857 -0.2149
15462TIP3    H267802   5.446   6.510  13.542  2.9907  2.0449  1.8201
15463TIP3   OH267803   0.983   4.144   4.530  0.7392  0.3988 -0.4575
15463TIP3    H167804   0.949   4.081   4.466  0.6810  0.6321 -0.6556
15463TIP3    H267805   1.070   4.167   4.498 -0.2418  2.4309 -1.8396
15464TIP3   OH267806   1.458   2.772   6.144 -0.5896 -0.6617  0.1961
15464TIP3    H167807   1.371   2.736   6.160 -0.6368 -0.0508  1.4132
15464TIP3    H267808   1.515   2.695   6.138 -0.7635 -1.0060  2.2407
15465TIP3   OH267809   0.769   5.401  17.209 -0.2684 -0.0528 -0.4022
15465TIP3    H167810   0.710   5.472  17.232  0.8207  0.7304  0.0512
15465TIP3    H267811   0.820   5.434  17.135  1.8386  0.5997  1.2262
15466TIP3   OH267812   0.620   0.520  15.103  0.4758  0.2605  0.0322
15466TIP3    H167813   0.578   0.439  15.130 -1.0703  0.9573 -0.1655
15466TIP3    H267814   0.623   0.573  15.182  0.1182  0.5663 -0.1557
15467TIP3   OH267815   2.071   2.022  11.797 -0.5137  0.1226  0.0067
15467TIP3    H167816   2.018   2.101  11.806 -0.7556  0.1623 -1.4443
15467TIP3    H267817   2.120   2.035  11.715  2.6737  0.6078  1.8150
15468TIP3   OH267818   0.758   5.319  11.630 -0.8527 -0.3066  0.3673
15468TIP3    H167819   0.778   5.226  11.640  0.2864 -0.6221 -3.5250
15468TIP3    H267820   0.674   5.330  11.675 -0.0794 -2.6668  2.6961
15469TIP3   OH267821   2.082   0.945   0.570 -0.1909 -0.0497 -0.0800
15469TIP3    H167822   2.072   0.909   0.482 -2.0098  0.6553 -0.2013
15469TIP3    H267823   2.059   0.872   0.628 -2.2241  0.3640 -0.2931
15470TIP3   OH267824   0.513   0.139  13.490  0.0240 -0.5039 -0.0777
15470TIP3    H167825   0.593   0.190  13.498 -0.7575  0.6638  0.5798
15470TIP3    H267826   0.514   0.107  13.400 -0.9455  3.2868 -1.6365
15471TIP3   OH267827   4.195   5.112   1.109 -0.0197 -0.0324  0.4757
15471TIP3    H167828   4.176   5.191   1.058 -1.8674  0.1900  1.4070
15471TIP3    H267829   4.281   5.127   1.146 -0.2424  1.4485  0.4368
15472TIP3   OH267830   2.387   5.887   1.757 -0.1610  0.5169 -0.3368
15472TIP3    H167831   2.299   5.853   1.743  0.4047 -0.2712 -2.2715
15472TIP3    H267832   2.426   5.891   1.670  1.6682  1.0388  0.4480
15473TIP3   OH267833   0.775   1.635  11.391  0.3554 -0.1245  0.3816
15473TIP3    H167834   0.733   1.720  11.390  0.1815 -0.2106 -0.0113
15473TIP3    H267835   0.863   1.651  11.357 -0.1297 -0.3206 -1.0228
15474TIP3   OH267836   1.825   4.474   0.987  0.4360 -0.2068 -0.3217
15474TIP3    H167837   1.755   4.410   0.987  0.4972 -0.3142  1.5016
15474TIP3    H267838   1.882   4.447   0.915 -0.2163 -1.4167 -0.4104
15475TIP3   OH267839   5.597   4.012   2.654  0.2459  0.1150 -0.0804
15475TIP3    H167840   5.683   4.052   2.669  0.5953 -1.3839  2.7082
15475TIP3    H267841   5.618   3.922   2.628 -0.4896  0.0594 -0.4931
15476TIP3   OH267842   4.808   0.234  17.022 -0.0428  1.0573 -0.0064
15476TIP3    H167843   4.757   0.159  16.992 -0.0544  1.4342 -0.9854
15476TIP3    H267844   4.773   0.308  16.973 -0.5996  1.8670  1.5585
15477TIP3   OH267845   0.482   5.929  16.952 -0.5997  0.3667  0.1516
15477TIP3    H167846   0.550   5.944  17.017 -0.8307  1.8879  0.0770
15477TIP3    H267847   0.514   5.856  16.899  0.8288  0.8730  0.2980
15478TIP3   OH267848   3.103   5.186  12.018 -0.2512 -0.8885 -0.6057
15478TIP3    H167849   3.033   5.203  12.081 -0.1728  0.4071 -0.8288
15478TIP3    H267850   3.182   5.219  12.061  0.1959 -2.1387 -0.4458
15479TIP3   OH267851   1.204   5.542   3.247 -0.4168  0.7713 -0.0321
15479TIP3    H167852   1.174   5.489   3.173  0.2453  3.1339 -2.1272
15479TIP3    H267853   1.279   5.493   3.283 -1.3830 -0.9189 -0.2064
15480TIP3   OH267854   3.646   0.465   4.390 -0.0148  0.2472 -0.0098
15480TIP3    H167855   3.592   0.392   4.359  2.6156 -2.3476  0.9469
15480TIP3    H267856   3.630   0.469   4.484  1.7298 -0.9823  0.4025
15481TIP3   OH267857   5.073   4.416   4.790  0.4851 -0.2604 -0.0214
15481TIP3    H167858   5.158   4.380   4.815  0.1863 -1.9661 -1.3327
15481TIP3    H267859   5.068   4.499   4.838  2.8224 -0.1682  0.1881
15482TIP3   OH267860   2.274   6.108   1.486  0.3905  0.2145 -0.0919
15482TIP3    H167861   2.289   6.125   1.393  0.2022 -1.3277 -0.4343
15482TIP3    H267862   2.190   6.063   1.489  0.4098  0.2157  0.8172
15483TIP3   OH267863   1.627   2.965  16.005  0.1435 -0.3325 -0.3037
15483TIP3    H167864   1.653   3.049  15.968  1.0971 -0.1676  0.7036
15483TIP3    H267865   1.560   2.932  15.945 -0.1447  1.0754 -0.7793
15484TIP3   OH267866   4.285   4.947  16.807  0.2013 -0.0242  0.1343
15484TIP3    H167867   4.227   4.945  16.731  1.2820  0.6193 -0.7423
15484TIP3    H267868   4.261   4.869  16.858  0.3554 -1.2373 -1.5573
15485TIP3   OH267869   1.314   6.128  13.415 -0.3841  0.1081  0.2204
15485TIP3    H167870   1.325   6.040  13.452 -1.2499 -0.2010 -0.2020
15485TIP3    H267871   1.329   6.187  13.488 -2.6180 -0.4947  1.2755
15486TIP3   OH267872   0.789   1.948   1.713 -0.1803 -0.1126 -0.2045
15486TIP3    H167873   0.737   2.020   1.747  0.0654 -0.0995  0.1490
15486TIP3    H267874   0.861   1.938   1.776  0.1029 -0.2937 -0.5520
15487TIP3   OH267875   2.900   2.935  12.400  0.4582  0.0010  0.1880
15487TIP3    H167876   2.919   2.958  12.309 -0.9554 -0.2550 -0.1954
15487TIP3    H267877   2.810   2.901  12.398  0.9690 -1.5681  1.4082
15488TIP3   OH267878   1.407   0.207   5.276  0.2464 -0.0179 -0.0510
15488TIP3    H167879   1.349   0.225   5.350 -0.3253 -0.7468 -0.2978
15488TIP3    H267880   1.395   0.113   5.259  0.0727  0.2010 -1.2873
15489TIP3   OH267881   6.014   4.629  13.683 -0.1284 -0.4738 -0.2403
15489TIP3    H167882   6.035   4.562  13.748  1.6280 -0.9094 -1.2071
15489TIP3    H267883   5.934   4.596  13.640  0.0563 -1.3705  0.0718
15490TIP3   OH267884   0.051   6.714   2.762 -0.3274  0.0429  0.3963
15490TIP3    H167885  -0.017   6.767   2.719 -1.1743  0.7722  2.4703
15490TIP3    H267886   0.101   6.778   2.813 -1.1440 -1.0284  2.6768
15491TIP3   OH267887   3.294   2.861   0.534  0.2015  0.4036 -0.3398
15491TIP3    H167888   3.324   2.811   0.610  0.4598  0.2323 -0.5525
15491TIP3    H267889   3.338   2.946   0.542  0.0956  0.4456 -0.2071
15492TIP3   OH267890   2.580   6.360   6.747  0.0395  0.4824 -0.0161
15492TIP3    H167891   2.543   6.421   6.683 -2.3072 -0.8872 -0.0594
15492TIP3    H267892   2.505   6.313   6.782  1.6135 -1.2626  1.2029
15493TIP3   OH267893   1.009   5.415   5.454 -0.3514 -0.1729  0.0167
15493TIP3    H167894   0.988   5.336   5.403 -2.6197  0.4323 -0.1178
15493TIP3    H267895   0.951   5.410   5.530  1.9702 -0.3332  1.8846
15494TIP3   OH267896   6.432   1.075   4.813  0.7291 -0.1128 -0.3686
15494TIP3    H167897   6.436   1.151   4.755 -0.5550  0.4072  0.1790
15494TIP3    H267898   6.350   1.031   4.790  0.9691 -0.7802  0.0012
15495TIP3   OH267899   3.899   0.835   3.171  0.0896  0.1377 -0.5193
15495TIP3    H167900   3.873   0.823   3.080 -0.1566  1.2282 -0.6066
15495TIP3    H267901   3.889   0.929   3.187  0.8105  0.0743  0.4239
15496TIP3   OH267902   5.906   6.397   1.822 -0.0285 -0.7512 -0.1563
15496TIP3    H167903   5.825   6.430   1.860  1.1912  0.2094  1.7852
15496TIP3    H267904   5.958   6.475   1.805  1.0712 -1.4106  0.0803
15497TIP3   OH267905   6.056   0.198   2.882  0.6697  0.9306 -0.3881
15497TIP3    H167906   6.041   0.274   2.825 -1.2798  1.6864  0.9956
15497TIP3    H267907   5.976   0.192   2.935  0.7581 -2.0988 -0.4109
15498TIP3   OH267908   1.609   6.332  15.631 -0.2021  0.2462 -0.2247
15498TIP3    H167909   1.576   6.255  15.583  1.7124 -0.5988 -0.2750
15498TIP3    H267910   1.699   6.342  15.600  0.2286  1.3009  1.2900
15499TIP3   OH267911   3.065   0.520   2.693  0.0682  0.4478  0.1923
15499TIP3    H167912   3.036   0.546   2.780 -1.5863 -2.5453  0.6679
15499TIP3    H267913   2.994   0.547   2.635 -0.4400 -0.5513  0.3201
15500TIP3   OH267914   5.079   3.503  15.809 -0.3674  0.2275 -0.4721
15500TIP3    H167915   5.164   3.463  15.790 -0.4250 -1.3318  2.0835
15500TIP3    H267916   5.047   3.532  15.723  1.2445 -2.1478 -2.0292
15501TIP3   OH267917   6.094   4.617  12.805 -0.2723 -0.1024 -0.0502
15501TIP3    H167918   6.141   4.695  12.774 -0.9662  1.3717  2.3022
15501TIP3    H267919   6.105   4.619  12.900 -3.0381 -1.0078  0.3873
15502TIP3   OH267920   4.884   2.851  15.737  0.5332  0.2268  0.5226
15502TIP3    H167921   4.853   2.761  15.728  2.2278 -0.1837 -2.3649
15502TIP3    H267922   4.859   2.894  15.655  2.0077  1.6170  0.7437
15503TIP3   OH267923   5.869   4.501  11.609 -0.7561  0.2953 -0.1979
15503TIP3    H167924   5.928   4.447  11.556 -0.1081  0.0833  0.7112
15503TIP3    H267925   5.920   4.579  11.631 -0.3328 -0.4328  1.6073
15504TIP3   OH267926   4.987   3.101  15.764  0.2839 -0.4534  0.1231
15504TIP3    H167927   4.979   3.006  15.760 -0.4260 -0.4214  0.4636
15504TIP3    H267928   4.899   3.131  15.787  0.5494  0.2707  0.2307
15505TIP3   OH267929   1.709   6.152   1.274  0.4721  0.7894  0.0571
15505TIP3    H167930   1.628   6.202   1.274  0.9102  1.5555 -1.5147
15505TIP3    H267931   1.740   6.155   1.184  2.9690  1.7348  0.8415
15506TIP3   OH267932   3.993   3.457  14.656 -0.3230  1.1796  0.3919
15506TIP3    H167933   3.935   3.518  14.610 -3.4294 -2.3987 -0.9328
15506TIP3    H267934   4.024   3.398  14.588  1.3820  0.3277  1.8271
15507TIP3   OH267935   5.550   5.754  13.615 -0.4084  0.4040 -0.6753
15507TIP3    H167936   5.574   5.750  13.707 -1.1201  1.9040 -0.3926
15507TIP3    H267937   5.591   5.677  13.576 -1.0477 -0.9154  1.1012
15508TIP3   OH267938   0.503   2.666   0.760  0.2273  0.3131  0.0867
15508TIP3    H167939   0.455   2.624   0.830  0.5984  0.7534  0.6111
15508TIP3    H267940   0.498   2.759   0.779  0.5201  0.4245 -0.3486
15509TIP3   OH267941   0.182   6.562  15.640 -0.2164 -0.4009  0.1946
15509TIP3    H167942   0.136   6.628  15.589  1.5309 -1.3630 -2.9556
15509TIP3    H267943   0.134   6.556  15.723 -1.8118  3.0482 -0.3277
15510TIP3   OH267944   2.221   3.547  15.514  1.0290  0.0235 -0.0673
15510TIP3    H167945   2.193   3.514  15.599  1.2514  0.9081  0.3607
15510TIP3    H267946   2.311   3.575  15.527  1.3352 -0.5708 -0.8100
15511TIP3   OH267947   6.037   5.806   0.458 -0.0853  0.3518 -0.1753
15511TIP3    H167948   5.976   5.840   0.525 -1.9593 -0.2453 -1.4814
15511TIP3    H267949   6.119   5.794   0.505 -1.4725 -0.6025  2.2229
15512TIP3   OH267950   5.513   6.256   4.273  0.7546  0.3224  1.1956
15512TIP3    H167951   5.469   6.174   4.252  0.7789  0.1853  1.6885
15512TIP3    H267952   5.466   6.321   4.220  0.8757 -0.0327  0.6371
15513TIP3   OH267953   4.350   4.290   1.593  0.2933 -0.3690  0.2435
15513TIP3    H167954   4.350   4.207   1.544 -1.6622 -0.6193  0.6023
15513TIP3    H267955   4.260   4.321   1.587  0.5545  0.7669  1.7476
15514TIP3   OH267956   0.834   6.747  17.237 -0.0045 -0.1957  0.3266
15514TIP3    H167957   0.760   6.785  17.190  0.1583 -0.1147  0.1376
15514TIP3    H267958   0.800   6.732  17.325 -0.4219 -0.6800  0.0896
15515TIP3   OH267959   3.108   5.088   3.265  0.0365  0.0538 -0.1070
15515TIP3    H167960   3.130   5.033   3.340 -0.9760  1.5956  1.3987
15515TIP3    H267961   3.054   5.158   3.302  1.0291  1.9115 -1.9649
15516TIP3   OH267962   5.263   4.478   4.185  0.3618  0.8274 -0.3574
15516TIP3    H167963   5.343   4.513   4.223  0.2221  0.5916  0.1638
15516TIP3    H267964   5.217   4.438   4.259  0.9389 -1.2782 -1.0672
15517TIP3   OH267965   1.075   0.627   4.155  0.0543 -0.1507  0.3864
15517TIP3    H167966   0.998   0.603   4.207  0.6682 -1.1228  0.8711
15517TIP3    H267967   1.054   0.599   4.066 -0.9456  1.3927  0.0943
15518TIP3   OH267968   3.685   1.418  15.228 -0.1252  0.2051 -0.1052
15518TIP3    H167969   3.687   1.331  15.189 -1.0190  0.2696 -0.3119
15518TIP3    H267970   3.596   1.449  15.213 -0.8448 -0.1446  2.7769
15519TIP3   OH267971   2.986   6.428  13.188 -0.2236  0.1023  0.0859
15519TIP3    H167972   2.953   6.475  13.111 -0.0631 -2.7784 -1.9168
15519TIP3    H267973   2.909   6.386  13.225 -0.3688  1.8147  1.8703
15520TIP3   OH267974   0.252   1.839   4.765 -0.0634  0.0646  0.1302
15520TIP3    H167975   0.308   1.851   4.689 -1.9249  2.9271 -0.9516
15520TIP3    H267976   0.308   1.796   4.830  2.5813  0.5637 -1.6792
15521TIP3   OH267977   1.064   2.378  10.980 -0.0304 -0.2329  0.3367
15521TIP3    H167978   1.021   2.310  10.928  1.3091 -1.8645  1.2678
15521TIP3    H267979   1.130   2.416  10.922 -0.3248 -0.1897  0.0275
15522TIP3   OH267980   6.785   4.296  11.371  0.1196 -0.7952  0.2726
15522TIP3    H167981   6.843   4.327  11.441  0.6200 -2.6099  0.7070
15522TIP3    H267982   6.845   4.261  11.305 -0.1403  3.1881 -2.4093
15523TIP3   OH267983   2.569   4.246   3.469 -0.6453  0.2024  0.6301
15523TIP3    H167984   2.608   4.214   3.550 -0.3004 -0.1628  0.3253
15523TIP3    H267985   2.615   4.328   3.451  0.2138 -0.3834  0.1085
15524TIP3   OH267986   5.150   4.481  12.146 -0.1801 -0.2905 -0.0595
15524TIP3    H167987   5.156   4.557  12.205 -0.8888  0.3310 -0.7629
15524TIP3    H267988   5.059   4.453  12.153 -0.2147 -0.3468 -0.6836
15525TIP3   OH267989   4.853   1.481   2.153 -0.3223  0.3410  0.3100
15525TIP3    H167990   4.833   1.551   2.092  2.9957  0.8327 -0.4103
15525TIP3    H267991   4.814   1.403   2.113 -0.3288  1.0668 -1.1676
15526TIP3   OH267992   2.231   3.536   4.474 -0.7366  0.4493 -0.2602
15526TIP3    H167993   2.261   3.626   4.484 -0.4382  0.4425 -0.9825
15526TIP3    H267994   2.299   3.483   4.515  0.0300  0.4634 -1.4590
15527TIP3   OH267995   6.363   5.272   0.078  0.5568  0.3210 -0.6915
15527TIP3    H167996   6.360   5.188   0.033 -1.3559 -1.5493  2.4967
15527TIP3    H267997   6.291   5.322   0.042 -0.3866 -0.7777 -0.3782
15528TIP3   OH267998   0.676   4.476   3.040 -0.0984  0.7202 -0.6036
15528TIP3    H167999   0.617   4.407   3.010 -1.0330  2.4160 -2.9595
15528TIP3    H268000   0.764   4.443   3.018 -0.2712 -0.9126  0.9888
15529TIP3   OH268001   5.056   0.585  14.765  0.0158  0.1179  0.3094
15529TIP3    H168002   5.151   0.585  14.751  0.0724 -0.0672  0.6772
15529TIP3    H268003   5.019   0.580  14.677  0.3338  1.2392  0.0875
15530TIP3   OH268004   6.778   5.392   5.268  0.2123  0.1635 -0.7309
15530TIP3    H168005   6.713   5.348   5.213 -1.1615 -0.0537  0.9916
15530TIP3    H268006   6.765   5.485   5.249 -1.0811  0.1711  0.0204
15531TIP3   OH268007   1.061   2.078   3.897  0.3583 -0.4436 -0.2856
15531TIP3    H168008   0.973   2.041   3.898 -0.1599  0.7112 -0.6094
15531TIP3    H268009   1.074   2.113   3.985 -0.3737  1.2417 -0.7976
15532TIP3   OH268010   6.123   3.732   3.586 -0.2044  0.0572 -0.1543
15532TIP3    H168011   6.107   3.817   3.545 -1.3540  0.7947  1.6864
15532TIP3    H268012   6.036   3.695   3.597 -0.0032  0.0783  1.9023
15533TIP3   OH268013   4.242   2.452   0.950  0.8180 -0.6440 -0.3259
15533TIP3    H168014   4.288   2.455   0.866  1.1562  0.4523 -0.1111
15533TIP3    H268015   4.305   2.485   1.014 -0.3187  1.1969 -0.0665
15534TIP3   OH268016   4.394   0.746  14.562 -0.2667  0.7675  0.5246
15534TIP3    H168017   4.324   0.738  14.627 -0.3659 -0.5468  0.2766
15534TIP3    H268018   4.355   0.798  14.492 -0.4598  1.4008  1.0825
15535TIP3   OH268019   4.465   5.426   5.664 -0.1654  0.1842 -0.2178
15535TIP3    H168020   4.499   5.380   5.741  0.6078  1.4892  0.2470
15535TIP3    H268021   4.482   5.518   5.682 -1.5618  0.6575 -1.1911
15536TIP3   OH268022   1.713   2.398   4.639  0.4056 -0.2729 -0.2532
15536TIP3    H168023   1.643   2.459   4.661  0.4864 -0.3726  0.3001
15536TIP3    H268024   1.762   2.387   4.721  0.8652 -0.4622 -0.5510
15537TIP3   OH268025   2.539   4.003  14.492  0.3541 -0.3558  0.5461
15537TIP3    H168026   2.607   3.969  14.435  2.2777  0.7629  2.0366
15537TIP3    H268027   2.462   3.950  14.473  1.2614 -0.8513 -2.0930
15538TIP3   OH268028   5.143   6.272   1.772  0.3664  0.4854  0.1104
15538TIP3    H168029   5.100   6.243   1.692 -1.9014  0.6091  1.2235
15538TIP3    H268030   5.197   6.197   1.798 -0.3674 -0.2787 -0.5233
15539TIP3   OH268031   3.443   1.157   1.700 -0.2153  0.1442 -0.7347
15539TIP3    H168032   3.433   1.184   1.791  1.4959 -1.5174  0.0047
15539TIP3    H268033   3.383   1.083   1.690  0.5007 -0.4771 -0.5576
15540TIP3   OH268034   0.996   5.193  11.107 -0.2655  0.2715 -0.5835
15540TIP3    H168035   1.071   5.163  11.056  1.1246  2.1735  0.2124
15540TIP3    H268036   0.926   5.206  11.043  0.0290 -1.5688 -1.3296
15541TIP3   OH268037   1.581   0.654   5.233 -0.2838  0.1148  0.2882
15541TIP3    H168038   1.628   0.579   5.195  0.2147  1.6998 -2.5037
15541TIP3    H268039   1.587   0.640   5.327  0.9031 -2.6664 -0.0766
15542TIP3   OH268040   6.517   5.606  13.501 -0.0393 -0.6657 -0.3172
15542TIP3    H168041   6.518   5.664  13.577 -0.4468 -1.2244  0.1234
15542TIP3    H268042   6.538   5.663  13.427  0.8269 -0.1995  0.2659
15543TIP3   OH268043   1.925   2.595   0.489  0.2968  0.1067  0.9211
15543TIP3    H168044   1.835   2.609   0.519 -0.5034  0.2560 -1.3159
15543TIP3    H268045   1.977   2.591   0.569 -1.5165  1.2565  2.2372
15544TIP3   OH268046   0.752   6.377   5.437 -0.2152  0.2553  0.3821
15544TIP3    H168047   0.749   6.420   5.523 -0.1829  0.8850  0.0765
15544TIP3    H268048   0.781   6.288   5.456  1.1245  0.7676  0.8930
15545TIP3   OH268049   5.288   3.674   4.409  0.4783 -0.1328  0.2400
15545TIP3    H168050   5.260   3.583   4.396  0.7696 -0.1028 -0.6269
15545TIP3    H268051   5.249   3.699   4.493 -1.0792 -0.4989 -0.3296
15546TIP3   OH268052   3.358   6.585  15.759 -0.1565  0.2410  0.9526
15546TIP3    H168053   3.394   6.571  15.847 -0.4519 -0.5924  0.9500
15546TIP3    H268054   3.376   6.677  15.740 -0.8456  0.6769  2.2474
15547TIP3   OH268055   3.096   1.713   4.290  0.1221 -0.6215 -0.7141
15547TIP3    H168056   3.011   1.743   4.257 -0.5777 -0.3802  1.2104
15547TIP3    H268057   3.160   1.751   4.230 -1.0401  0.5338 -1.2575
15548TIP3   OH268058   5.965   6.722   3.990  0.8784  0.8127 -0.2676
15548TIP3    H168059   6.031   6.792   3.986  0.3517  1.2676 -2.0063
15548TIP3    H268060   5.893   6.754   3.936 -1.2757  0.7817  2.3748
15549TIP3   OH268061   4.982   0.995  11.859  0.3910  0.0011  0.4755
15549TIP3    H168062   4.929   1.073  11.841  0.7628 -0.0092 -0.7771
15549TIP3    H268063   5.062   1.009  11.809  0.6762 -0.9584  0.6509
15550TIP3   OH268064   1.316   0.663  11.664  0.0680 -0.1721 -0.0858
15550TIP3    H168065   1.232   0.634  11.630  0.1592  1.1810 -1.5706
15550TIP3    H268066   1.369   0.681  11.586  1.6891 -0.8339  0.8181
15551TIP3   OH268067   6.235   5.048   3.392  0.6781  0.1526  0.2344
15551TIP3    H168068   6.153   5.096   3.380  0.0561 -1.4919 -4.7915
15551TIP3    H268069   6.208   4.960   3.419  1.0062  0.2419  0.8621
15552TIP3   OH268070   1.362   5.145  11.608 -0.3173  0.3456 -0.2584
15552TIP3    H168071   1.269   5.134  11.585 -0.1452 -1.0066 -0.3918
15552TIP3    H268072   1.364   5.226  11.659 -1.6136  0.2898 -0.0643
15553TIP3   OH268073   6.751   6.501  12.928 -0.0170  0.0639 -0.8795
15553TIP3    H168074   6.685   6.565  12.905 -1.3202 -1.4143 -1.4394
15553TIP3    H268075   6.784   6.469  12.844  0.4818 -0.1358 -0.6139
15554TIP3   OH268076   0.167   5.996  12.030 -0.1575 -0.2206  0.6824
15554TIP3    H168077   0.099   6.062  12.042 -0.3459 -0.7435  2.9423
15554TIP3    H268078   0.120   5.916  12.006 -0.2226 -0.2745  0.9890
15555TIP3   OH268079   3.911   5.097  16.841  0.8495  0.0395 -0.5421
15555TIP3    H168080   3.825   5.119  16.876  0.2173 -2.1663 -0.5685
15555TIP3    H268081   3.950   5.040  16.908  1.6924 -0.1615 -1.1883
15556TIP3   OH268082   6.517   0.407   0.544 -0.4244  0.6697 -0.9407
15556TIP3    H168083   6.518   0.479   0.607  0.5960  0.2930 -0.5023
15556TIP3    H268084   6.424   0.397   0.522 -1.0084  0.0341  1.4263
15557TIP3   OH268085   1.047   2.881   1.126 -0.0760 -0.1887  0.0546
15557TIP3    H168086   1.125   2.906   1.175  0.0109  0.3130 -0.3329
15557TIP3    H268087   1.011   2.806   1.175  2.3449 -2.5165 -1.4535
15558TIP3   OH268088   3.712   1.446   1.165  0.5880  0.4501 -0.0535
15558TIP3    H168089   3.805   1.424   1.168  1.0401  2.2732  1.1849
15558TIP3    H268090   3.694   1.488   1.249 -0.9608  1.6051 -0.8928
15559TIP3   OH268091   3.800   3.086  11.809 -0.3931  0.2376  1.1385
15559TIP3    H168092   3.765   3.175  11.814  0.3572  0.4659  3.0748
15559TIP3    H268093   3.895   3.097  11.811 -0.2225 -0.5473 -0.6853
15560TIP3   OH268094   0.033   6.751  12.250  0.3119  0.2738 -0.5360
15560TIP3    H168095   0.032   6.663  12.289 -2.0883  1.0501  1.3388
15560TIP3    H268096   0.076   6.806  12.315  0.5941  0.7505 -1.1138
15561TIP3   OH268097   3.806   6.325  11.522  0.1655  0.0335  0.1909
15561TIP3    H168098   3.717   6.346  11.551 -0.3772 -0.6086 -0.9326
15561TIP3    H268099   3.798   6.316  11.427  1.2398 -0.9209  0.1812
15562TIP3   OH268100   2.083   6.095  11.892  0.2533  0.5162 -0.3529
15562TIP3    H168101   2.111   6.105  11.800 -0.2688  0.0931 -0.5646
15562TIP3    H268102   1.988   6.096  11.887  0.1972 -1.0716 -0.0016
15563TIP3   OH268103   5.298   0.716  14.705 -0.0335  0.0359  0.1894
15563TIP3    H168104   5.336   0.747  14.787 -0.7440  0.9749  0.1776
15563TIP3    H268105   5.372   0.713  14.644  0.0932  1.5388  0.2480
15564TIP3   OH268106   3.276   1.836   2.978  0.8070 -0.0273 -0.2105
15564TIP3    H168107   3.316   1.908   2.929  0.2881 -0.0913 -0.7392
15564TIP3    H268108   3.218   1.878   3.041 -0.1618  0.0081 -1.1048
15565TIP3   OH268109   5.149   5.157  12.782 -0.3848  0.5043  0.7300
15565TIP3    H168110   5.137   5.241  12.738 -1.3658  0.7128  1.3615
15565TIP3    H268111   5.126   5.091  12.716  0.7745  0.7027  0.1100
15566TIP3   OH268112   6.657   6.609   4.704 -0.0677 -0.6329 -0.0963
15566TIP3    H168113   6.619   6.688   4.742 -1.1546 -1.6485  1.0413
15566TIP3    H268114   6.709   6.571   4.775  0.3894 -0.9968 -0.6094
15567TIP3   OH268115   2.468   6.107  12.755 -1.0349  0.2507 -0.5033
15567TIP3    H168116   2.414   6.138  12.683 -1.5344  0.3086 -0.1101
15567TIP3    H268117   2.521   6.038  12.717 -2.6183 -1.0224 -0.5167
15568TIP3   OH268118   1.247   3.085  11.315  0.7231  0.0006 -0.3677
15568TIP3    H168119   1.250   3.036  11.233  0.9608 -0.0119 -0.3538
15568TIP3    H268120   1.154   3.091  11.337  0.6434  0.1880 -0.7490
15569TIP3   OH268121   2.032   1.739   0.212 -0.1649 -0.1148  0.2392
15569TIP3    H168122   2.064   1.710   0.127 -1.2876 -0.3023 -0.1410
15569TIP3    H268123   1.977   1.815   0.192 -0.5261 -0.2290  0.7734
15570TIP3   OH268124   4.004   2.760   3.880  0.0291 -0.2928 -0.1904
15570TIP3    H168125   3.958   2.760   3.796 -1.2215  0.4457  0.4692
15570TIP3    H268126   3.938   2.790   3.943  0.4085 -2.4651  1.3472
15571TIP3   OH268127   4.704   3.214  11.555 -0.1050 -0.1675 -0.1304
15571TIP3    H168128   4.783   3.256  11.589  1.0657 -1.7417 -0.7823
15571TIP3    H268129   4.671   3.162  11.628 -1.2246  1.3573  0.4959
15572TIP3   OH268130   6.644   1.657   4.463 -0.2182  0.0167 -0.0124
15572TIP3    H168131   6.549   1.657   4.472 -0.3193 -1.0628 -0.9330
15572TIP3    H268132   6.660   1.631   4.372  0.9105  2.8252 -0.7108
15573TIP3   OH268133   6.602   6.009  13.527  0.0819  0.5535 -0.8136
15573TIP3    H168134   6.521   5.964  13.504  0.6770 -0.8437 -0.2977
15573TIP3    H268135   6.638   6.038  13.443 -0.5907  0.5448 -1.1079
15574TIP3   OH268136   5.688   3.202  16.638  0.2881  0.2110  0.2630
15574TIP3    H168137   5.730   3.168  16.559  0.7780  1.4228 -0.0188
15574TIP3    H268138   5.682   3.296  16.624  1.5552  0.6434  2.2025
15575TIP3   OH268139   6.680   0.135  16.495  0.1075  0.1159  0.3842
15575TIP3    H168140   6.585   0.135  16.493  0.1153  0.1288  0.0450
15575TIP3    H268141   6.703   0.228  16.498  0.1012  0.1054  0.9734
15576TIP3   OH268142   0.694   5.433  16.704  0.3496 -0.0835  0.1531
15576TIP3    H168143   0.684   5.505  16.642  1.1354 -0.3965 -0.3511
15576TIP3    H268144   0.747   5.470  16.775 -1.3418  0.5600  1.1482
15577TIP3   OH268145   4.203   0.629  15.022  0.0166 -0.2882 -0.5589
15577TIP3    H168146   4.140   0.670  15.082 -0.9505  0.9408 -2.3263
15577TIP3    H268147   4.258   0.575  15.079  0.2799  2.1291  1.6763
15578TIP3   OH268148   1.771   0.977  10.926  0.5599 -0.2309  0.0570
15578TIP3    H168149   1.776   0.965  11.021  1.9499  0.3999  0.0975
15578TIP3    H268150   1.680   0.958  10.903  0.2796 -0.6845  1.4701
15579TIP3   OH268151   3.260   5.041   4.912  0.2657 -0.3491  0.1619
15579TIP3    H168152   3.349   5.007   4.923  0.6836  0.2662 -1.0910
15579TIP3    H268153   3.264   5.131   4.943  0.6676  0.3801 -1.8445
15580TIP3   OH268154   1.675   5.288   3.751 -0.3802 -0.2370  0.0494
15580TIP3    H168155   1.721   5.222   3.698  0.7517 -0.4582  1.2576
15580TIP3    H268156   1.586   5.289   3.716 -0.0874 -1.5113 -0.8114
15581TIP3   OH268157   0.231   3.643   1.605 -0.5859 -0.7776  0.0828
15581TIP3    H168158   0.312   3.672   1.564  0.0657  0.7782  2.2684
15581TIP3    H268159   0.164   3.701   1.569 -0.1398  0.1160  0.6517
15582TIP3   OH268160   2.534   4.370   1.569  0.3345 -0.3604  0.2067
15582TIP3    H168161   2.511   4.463   1.567  1.1388 -0.1429  0.4482
15582TIP3    H268162   2.451   4.325   1.582  0.0749  0.3981  1.3830
15583TIP3   OH268163   5.892   6.514   2.286  0.0020 -0.4732 -0.5264
15583TIP3    H168164   5.829   6.489   2.219 -1.6108 -0.0043  0.7751
15583TIP3    H268165   5.948   6.437   2.295 -0.3825 -0.9137 -1.6640
15584TIP3   OH268166   5.826   6.022  15.533 -0.0736 -0.0845  0.2038
15584TIP3    H168167   5.841   6.083  15.605 -0.3638 -2.0066  1.9755
15584TIP3    H268168   5.743   6.051  15.494 -0.0812  0.7935  0.8356
15585TIP3   OH268169   4.790   1.594  15.339  0.2378 -0.1628 -0.3738
15585TIP3    H168170   4.740   1.530  15.389 -2.2368  0.2555 -2.1438
15585TIP3    H268171   4.734   1.671  15.335  2.1370  1.2937 -0.3205
15586TIP3   OH268172   1.268   0.987   0.688 -0.0190 -0.2514 -0.0452
15586TIP3    H168173   1.267   1.050   0.760 -0.9807  1.3518 -1.3846
15586TIP3    H268174   1.184   1.000   0.644  0.6465 -0.9801 -1.6173
15587TIP3   OH268175   2.794   3.584   5.496 -0.4332  0.4979  0.6169
15587TIP3    H168176   2.759   3.670   5.471 -0.0742  0.3932 -0.2990
15587TIP3    H268177   2.883   3.584   5.461 -0.3724 -0.1821  0.7641
15588TIP3   OH268178   1.079   4.057   4.013  0.0544 -0.1080  0.0996
15588TIP3    H168179   1.157   4.036   4.064 -0.7038  0.4070  1.5402
15588TIP3    H268180   1.062   4.149   4.033  1.4823  1.1185 -3.5377
15589TIP3   OH268181   4.754   2.567   4.709 -0.3288 -0.6586  0.6715
15589TIP3    H168182   4.746   2.591   4.801  1.3531 -0.9240  0.9120
15589TIP3    H268183   4.834   2.610   4.679  0.4851 -2.5107  0.0106
15590TIP3   OH268184   3.483   6.286  17.084 -0.0413  0.0370 -0.5817
15590TIP3    H168185   3.526   6.288  16.998 -0.4903  2.4286 -0.8167
15590TIP3    H268186   3.551   6.314  17.145 -0.2789  0.3013 -0.4374
15591TIP3   OH268187   5.050   5.037  12.545  0.4122  0.2010 -0.0742
15591TIP3    H168188   5.023   5.034  12.453 -1.5776  1.5077  0.4092
15591TIP3    H268189   5.026   4.951  12.580  1.1244 -0.2821 -0.7322
15592TIP3   OH268190   0.867   5.117   1.015  0.1109  0.4367  0.4944
15592TIP3    H168191   0.882   5.127   0.921 -1.6699 -2.3279 -0.2026
15592TIP3    H268192   0.810   5.191   1.038 -1.8521 -0.4024 -1.3164
15593TIP3   OH268193   2.129   2.594  12.358  0.1713 -0.1418 -0.5660
15593TIP3    H168194   2.062   2.556  12.415  0.2006 -0.8846 -1.0080
15593TIP3    H268195   2.087   2.597  12.272  0.2491  0.6399 -0.5796
15594TIP3   OH268196   1.082   6.512  14.789 -0.5471 -0.1343 -0.1311
15594TIP3    H168197   1.017   6.549  14.849  0.2824 -0.1595  0.8157
15594TIP3    H268198   1.044   6.524  14.702 -0.8895  1.7480  0.2319
15595TIP3   OH268199   2.550   4.040  16.818 -0.2007 -0.5694  0.0542
15595TIP3    H168200   2.464   4.008  16.790 -1.1919  0.4381  1.8018
15595TIP3    H268201   2.541   4.135  16.820  1.2137 -0.3967 -0.4534
15596TIP3   OH268202   6.051   3.805  13.518  0.0863  0.2908 -0.1231
15596TIP3    H168203   6.125   3.866  13.518  1.1002 -0.8891  0.8374
15596TIP3    H268204   6.060   3.757  13.601 -2.0073  0.3970  0.2170
15597TIP3   OH268205   1.502   5.853   2.967 -0.2812 -0.6258 -0.5683
15597TIP3    H168206   1.578   5.803   2.996  0.3007  1.8339  2.6436
15597TIP3    H268207   1.538   5.920   2.909 -0.1161 -0.0481  0.1942
15598TIP3   OH268208   5.031   1.861  16.573 -0.2976 -0.0902  0.0452
15598TIP3    H168209   5.053   1.953  16.585 -1.0945  0.1799 -0.4408
15598TIP3    H268210   5.059   1.842  16.483 -1.7837  0.2129 -0.5220
15599TIP3   OH268211   5.804   2.126   5.237 -0.5360  0.3978  0.3137
15599TIP3    H168212   5.752   2.157   5.311 -2.4913 -2.8475  0.4876
15599TIP3    H268213   5.828   2.036   5.260  1.3601  0.2771 -1.7654
15600TIP3   OH268214   2.736   3.431  13.399 -0.0888  0.1091 -0.5105
15600TIP3    H168215   2.778   3.376  13.464  0.0926 -0.0434 -0.7524
15600TIP3    H268216   2.716   3.513  13.445  1.4443  0.5946 -0.6474
15601TIP3   OH268217   3.284   6.236  12.048  0.4489  0.1327 -0.0061
15601TIP3    H168218   3.325   6.294  11.984 -1.5423  1.0248 -0.5711
15601TIP3    H268219   3.195   6.222  12.013 -0.3235 -0.2738  2.0047
15602TIP3   OH268220   5.625   6.528   2.615  0.1497 -0.1605 -0.5464
15602TIP3    H168221   5.640   6.569   2.529 -1.1967 -0.5946 -1.0118
15602TIP3    H268222   5.530   6.530   2.626  0.3314  3.1941  2.5727
15603TIP3   OH268223   4.260   2.400  11.496  0.4831 -0.0770 -0.1764
15603TIP3    H168224   4.294   2.360  11.576 -3.4855  0.8335  2.2926
15603TIP3    H268225   4.238   2.326  11.439  1.8226 -0.8383  0.2595
15604TIP3   OH268226   5.027   5.331  12.304 -0.3727 -0.3594 -0.1682
15604TIP3    H168227   4.996   5.241  12.293  0.4727 -0.8600  1.2765
15604TIP3    H268228   5.111   5.333  12.259 -0.8969  0.0378 -1.1536
15605TIP3   OH268229   1.227   3.902   3.365 -0.3626  0.2157 -0.3938
15605TIP3    H168230   1.148   3.955   3.371  0.0041  0.8277 -0.8140
15605TIP3    H268231   1.248   3.880   3.456 -0.5002  0.8251 -0.2085
15606TIP3   OH268232   6.139   2.333  13.819 -0.2607  0.0357 -0.2204
15606TIP3    H168233   6.147   2.394  13.745  1.4292 -0.8075 -0.8007
15606TIP3    H268234   6.052   2.349  13.855 -0.9160  0.8541 -2.0553
15607TIP3   OH268235   2.361   2.176   0.129 -0.3079  0.0838 -0.1595
15607TIP3    H168236   2.342   2.093   0.086 -1.2369 -0.4424  1.2158
15607TIP3    H268237   2.311   2.241   0.080  0.1034 -0.2072 -0.9876
15608TIP3   OH268238   5.659   1.762  12.642  0.4077  0.0331 -0.4881
15608TIP3    H168239   5.620   1.710  12.711 -0.5357 -0.4451 -1.3624
15608TIP3    H268240   5.732   1.808  12.685 -0.4581  0.1340  0.9226
15609TIP3   OH268241   5.931   3.087  13.071  0.3101 -0.1772 -0.6312
15609TIP3    H168242   5.962   3.128  12.991 -1.4965 -2.2234 -2.5313
15609TIP3    H268243   5.866   3.148  13.106  0.8304  0.5589 -0.9380
15610TIP3   OH268244   6.298   6.747  11.423  0.3799  0.5302  0.1087
15610TIP3    H168245   6.316   6.747  11.517  2.9918 -1.4997 -0.3008
15610TIP3    H268246   6.232   6.678  11.412  2.2318 -1.3694  0.2158
15611TIP3   OH268247   1.972   3.774   1.260 -0.0166 -0.2109 -0.0573
15611TIP3    H168248   1.995   3.860   1.227  0.1984 -0.5582 -0.8499
15611TIP3    H268249   2.022   3.713   1.205  0.2579 -0.8224  0.8428
15612TIP3   OH268250   3.434   0.294   4.323 -0.2698 -0.0840  0.2615
15612TIP3    H168251   3.472   0.212   4.293  0.2617  0.2704 -0.0571
15612TIP3    H268252   3.348   0.298   4.281  0.0615 -0.0655 -0.4342
15613TIP3   OH268253   0.956   2.220   2.194  0.4668  0.3457  0.4893
15613TIP3    H168254   1.010   2.196   2.269  1.3413 -1.7594 -0.7257
15613TIP3    H268255   0.870   2.240   2.231  1.2324  0.6647  2.1549
15614TIP3   OH268256   4.945   3.899  16.560  0.5389  0.7745  0.3363
15614TIP3    H168257   4.946   3.993  16.577  0.1283  0.7280  0.6421
15614TIP3    H268258   4.903   3.861  16.637 -1.9065  0.6209 -0.9410
15615TIP3   OH268259   6.512   3.524  16.012  0.5407 -0.6474  0.6945
15615TIP3    H168260   6.490   3.477  15.931  0.2638  0.8345 -0.1392
15615TIP3    H268261   6.603   3.553  15.998  1.1057 -1.8377  1.6787
15616TIP3   OH268262   6.482   5.833   1.337 -0.0185 -0.0075 -0.4998
15616TIP3    H168263   6.468   5.894   1.264  0.3914 -1.8915 -2.2528
15616TIP3    H268264   6.394   5.803   1.360 -0.0025 -1.1559 -1.8442
15617TIP3   OH268265   6.548   2.662  14.933  0.1666  0.6438 -0.2227
15617TIP3    H168266   6.481   2.687  14.869 -1.8447 -1.0202  1.0923
15617TIP3    H268267   6.552   2.566  14.928  3.3493  0.6949 -1.0195
15618TIP3   OH268268   0.126   4.543   3.830  0.1704 -0.3920 -0.1577
15618TIP3    H168269   0.138   4.521   3.738  0.6721  0.2325 -0.2488
15618TIP3    H268270   0.126   4.459   3.875  1.8808 -0.6015 -0.5139
15619TIP3   OH268271   3.223   5.887  14.080 -0.2998 -0.6203 -0.1034
15619TIP3    H168272   3.207   5.825  14.151  2.5013 -0.3027  0.9160
15619TIP3    H268273   3.315   5.875  14.058 -0.0995  2.0246 -1.0186
15620TIP3   OH268274   2.129   2.847  14.325  0.2122  0.5321  0.5007
15620TIP3    H168275   2.088   2.819  14.243  1.3766  0.4421 -0.0691
15620TIP3    H268276   2.111   2.941  14.330 -0.6839  0.3603  0.6349
15621TIP3   OH268277   4.304   0.184  12.228 -0.5590  0.3301  0.4387
15621TIP3    H168278   4.389   0.229  12.232 -0.2105 -0.0059 -1.7682
15621TIP3    H268279   4.299   0.152  12.138 -2.1464 -1.4174  1.0907
15622TIP3   OH268280   6.068   1.842  14.401 -0.5829  0.0788 -0.3384
15622TIP3    H168281   6.159   1.845  14.373 -0.1123  0.2386  1.1609
15622TIP3    H268282   6.037   1.932  14.390 -0.8395 -0.1417 -1.6450
15623TIP3   OH268283   5.844   6.194  16.432 -0.1105 -0.2826 -0.2122
15623TIP3    H168284   5.839   6.099  16.434  0.9702 -0.3376  0.8756
15623TIP3    H268285   5.902   6.213  16.358 -0.3765 -0.4557 -0.4694
15624TIP3   OH268286   3.609   3.126   3.958  0.0252  0.0773  0.7493
15624TIP3    H168287   3.515   3.107   3.951  0.2736 -0.8394 -0.4952
15624TIP3    H268288   3.638   3.132   3.867  1.6215 -2.0540  1.0407
15625TIP3   OH268289   4.595   5.223   1.540  0.2318 -0.4478  0.5249
15625TIP3    H168290   4.545   5.281   1.597 -1.4655 -2.3736  1.1442
15625TIP3    H268291   4.543   5.219   1.460 -0.9601 -2.7995  1.3240
15626TIP3   OH268292   3.388   5.398  16.379 -0.3029 -0.2557 -0.0215
15626TIP3    H168293   3.406   5.374  16.288  0.9784  1.8916 -0.4037
15626TIP3    H268294   3.303   5.441  16.376  0.0602  0.4692 -0.3720
15627TIP3   OH268295   0.550   1.481   2.578  0.7170 -0.1101  0.4854
15627TIP3    H168296   0.620   1.545   2.590 -2.5463  3.7234  1.1753
15627TIP3    H268297   0.492   1.522   2.514 -0.3005 -3.7779 -1.2034
15628TIP3   OH268298   5.741   0.844  14.374 -0.3674  0.3234  0.0021
15628TIP3    H168299   5.775   0.771  14.323 -1.8547  0.9922 -2.0395
15628TIP3    H268300   5.723   0.913  14.310 -3.3943  0.8070  1.1872
15629TIP3   OH268301   1.849   3.218  12.552  0.1811  0.1819 -0.0623
15629TIP3    H168302   1.836   3.312  12.543  0.6057  0.3127  0.6437
15629TIP3    H268303   1.837   3.201  12.646  0.1935 -0.4507 -0.1703
15630TIP3   OH268304   2.253   6.425   3.992 -0.4140  0.1616 -0.1636
15630TIP3    H168305   2.303   6.347   4.016 -0.4618  0.2350  0.1816
15630TIP3    H268306   2.161   6.398   3.998 -0.6055  1.0452  3.0464
15631TIP3   OH268307   1.506   1.463  15.620  0.5804  0.3475 -0.3743
15631TIP3    H168308   1.488   1.373  15.647 -0.6131  1.1198  1.5583
15631TIP3    H268309   1.583   1.488  15.671  0.1850  0.8121 -0.0069
15632TIP3   OH268310   6.631   4.740  13.392  0.1920  0.5615  0.5244
15632TIP3    H168311   6.613   4.717  13.301 -1.3713 -0.3954  1.0324
15632TIP3    H268312   6.613   4.833  13.398 -0.2030  0.5237 -0.0335
15633TIP3   OH268313   0.923   2.803   1.931 -0.3100  0.0652 -0.1944
15633TIP3    H168314   1.015   2.810   1.957 -0.2327 -0.1995 -0.3986
15633TIP3    H268315   0.874   2.815   2.012 -0.0576 -1.2447  0.1631
15634TIP3   OH268316   0.487   3.947  14.689  0.2814  0.6110  0.0270
15634TIP3    H168317   0.492   4.025  14.634 -1.8435  1.6979  1.2569
15634TIP3    H268318   0.421   3.891  14.646  0.3939  0.3565  0.1813
15635TIP3   OH268319   1.099   6.202   1.781 -0.0792 -0.7819 -0.2232
15635TIP3    H168320   1.127   6.213   1.872  0.5782 -3.2336 -0.0611
15635TIP3    H268321   1.011   6.166   1.788 -0.2170 -0.5065 -0.5628
15636TIP3   OH268322   5.404   3.473   2.951 -0.4624 -0.2279 -0.7192
15636TIP3    H168323   5.373   3.563   2.938 -1.4992 -0.2094  1.3708
15636TIP3    H268324   5.360   3.444   3.031  1.5937 -1.7961 -0.0570
15637TIP3   OH268325   5.629   6.316   0.427  0.2149  0.1181  0.5314
15637TIP3    H168326   5.664   6.367   0.354  0.5146 -0.0257  0.5706
15637TIP3    H268327   5.699   6.317   0.493  0.1781 -0.2443  0.5785
15638TIP3   OH268328   6.404   6.053   3.470  0.5117  0.3987  0.0104
15638TIP3    H168329   6.455   6.022   3.544  1.3052  1.9087  0.1383
15638TIP3    H268330   6.460   6.118   3.427 -0.7749  1.1462 -0.6261
15639TIP3   OH268331   4.541   1.242  16.250 -0.6395  0.8140 -0.1278
15639TIP3    H168332   4.548   1.336  16.268  0.7139  0.6034  0.5380
15639TIP3    H268333   4.462   1.215  16.296 -1.3523  1.7222 -0.7822
15640TIP3   OH268334   0.929   3.221  10.564  0.1397  0.2969  0.3567
15640TIP3    H168335   0.943   3.282  10.637 -3.0694 -0.8784  2.1359
15640TIP3    H268336   0.866   3.265  10.507  3.5622  1.7877 -2.7268
15641TIP3   OH268337   0.624   0.364  14.343  0.0235 -0.7614  0.6529
15641TIP3    H168338   0.649   0.455  14.358  1.9701 -1.2313  0.5156
15641TIP3    H268339   0.541   0.369  14.294 -0.4418  0.8958  1.5423
15642TIP3   OH268340   3.002   5.229   5.738  0.6676  0.2762  0.0396
15642TIP3    H168341   2.933   5.233   5.672  0.0705  0.8930  0.6764
15642TIP3    H268342   3.054   5.153   5.714 -0.2672 -0.2305 -0.4293
15643TIP3   OH268343   5.296   5.984   5.822 -0.6636  0.6001  0.1848
15643TIP3    H168344   5.353   5.996   5.745  0.7640  2.1847  1.4195
15643TIP3    H268345   5.208   6.005   5.790 -0.5326 -1.2888 -1.6222
15644TIP3   OH268346   5.506   2.230  13.891  0.1445  0.1285  0.3173
15644TIP3    H168347   5.512   2.207  13.798 -0.4824  0.2984  0.2307
15644TIP3    H268348   5.562   2.167  13.935 -2.5328 -2.5059  0.2640
15645TIP3   OH268349   3.987   1.560  12.675 -0.1129  0.0534 -0.0884
15645TIP3    H168350   3.955   1.551  12.765  0.1999 -0.9006 -0.0615
15645TIP3    H268351   3.909   1.579  12.624 -0.0134  2.9798  0.6744
15646TIP3   OH268352   2.712   0.992  11.976  0.2688  0.5580  0.6659
15646TIP3    H168353   2.716   0.984  12.071  1.1496 -0.4027  0.5718
15646TIP3    H268354   2.771   1.064  11.956  0.2925  0.5841  0.8245
15647TIP3   OH268355   1.612   1.036   1.043  0.3548  0.1322 -0.2507
15647TIP3    H168356   1.643   1.089   0.969  1.6012 -0.4010 -0.1349
15647TIP3    H268357   1.691   0.994   1.077 -0.3986 -0.6467  0.5844
15648TIP3   OH268358   1.939   5.778  15.145  0.2124 -0.5590  0.5311
15648TIP3    H168359   1.859   5.766  15.197 -0.0581  1.5707  0.7353
15648TIP3    H268360   1.965   5.868  15.164  1.1478 -0.3157 -1.6317
15649TIP3   OH268361   3.677   6.412   0.416  0.1066  0.2133 -0.0245
15649TIP3    H168362   3.655   6.505   0.422 -2.2872 -0.3970  2.2533
15649TIP3    H268363   3.650   6.387   0.327  0.4949  1.5779 -0.5570
15650TIP3   OH268364   5.937   6.461  11.533  0.1885  0.3733 -0.4639
15650TIP3    H168365   5.917   6.527  11.600  0.3952  1.5167 -1.4995
15650TIP3    H268366   5.872   6.476  11.465  1.2392  0.6077 -1.4458
15651TIP3   OH268367   1.855   0.429   3.958 -0.5344 -0.2086 -0.0621
15651TIP3    H168368   1.922   0.400   4.019  0.7261 -0.0460 -1.3216
15651TIP3    H268369   1.772   0.407   4.001  0.2286  1.2571  2.3594
15652TIP3   OH268370   0.602   1.748   0.916 -0.0704 -0.5476  0.0601
15652TIP3    H168371   0.547   1.691   0.970 -0.8744 -1.6519 -1.8186
15652TIP3    H268372   0.578   1.726   0.826  1.7312  0.6955 -0.7856
15653TIP3   OH268373   2.390   6.594  15.890  0.4274 -0.1332  0.0221
15653TIP3    H168374   2.334   6.550  15.954  0.8367 -0.5677  0.0913
15653TIP3    H268375   2.443   6.655  15.941 -0.4293  0.7619 -0.1240
15654TIP3   OH268376   4.544   2.625  14.991 -0.1984  0.0978 -0.2223
15654TIP3    H168377   4.527   2.701  14.935 -0.1806 -0.5172 -1.0751
15654TIP3    H268378   4.581   2.560  14.932  0.9622 -0.1501  0.7412
15655TIP3   OH268379   4.262   4.271  14.995 -0.0791  0.0333 -0.0898
15655TIP3    H168380   4.334   4.220  14.958 -1.0199 -0.4060 -1.4028
15655TIP3    H268381   4.276   4.360  14.961 -0.7388 -0.2912 -1.2852
15656TIP3   OH268382   2.207   2.454  15.985 -0.0618 -0.2283 -0.4450
15656TIP3    H168383   2.300   2.441  15.964 -0.1715  0.4863 -1.4362
15656TIP3    H268384   2.164   2.374  15.955  0.1624 -0.3354 -0.4851
15657TIP3   OH268385   6.215   3.077  13.080 -0.0642  0.3863  0.5412
15657TIP3    H168386   6.268   2.997  13.079  0.0829  0.4005 -2.4670
15657TIP3    H268387   6.125   3.045  13.088  0.0409 -0.0688  0.0283
15658TIP3   OH268388   3.436   4.099  11.842  0.3470  0.5895 -0.4138
15658TIP3    H168389   3.434   4.066  11.752  0.6367 -0.3287 -0.0986
15658TIP3    H268390   3.489   4.179  11.838 -0.4425  1.0872 -1.2168
15659TIP3   OH268391   3.196   1.997   5.829  0.4064  0.1093 -0.7963
15659TIP3    H168392   3.115   1.997   5.777  0.8844  1.2350 -1.5813
15659TIP3    H268393   3.172   2.039   5.911  0.3066  0.9136 -1.2305
15660TIP3   OH268394   0.175   0.099   1.705 -0.4434 -0.3781 -0.2592
15660TIP3    H168395   0.085   0.066   1.702 -1.9338  3.1030  0.3780
15660TIP3    H268396   0.172   0.180   1.653  1.6709  1.1154  1.7152
15661TIP3   OH268397   0.309   2.286  15.115  0.7159 -0.6819  0.2038
15661TIP3    H168398   0.306   2.325  15.028 -1.6397  1.8871  1.2926
15661TIP3    H268399   0.308   2.361  15.175  0.1928 -2.3784  2.4466
15662TIP3   OH268400   1.397   4.673  11.694 -0.1057  0.3103  0.4061
15662TIP3    H168401   1.492   4.681  11.699 -0.2462  1.7577  1.5006
15662TIP3    H268402   1.370   4.654  11.784 -1.0242  2.5312  0.6494
15663TIP3   OH268403   5.422   6.461   4.116  0.2713  0.3775  0.4340
15663TIP3    H168404   5.330   6.485   4.105 -0.1212 -1.8714 -2.2398
15663TIP3    H268405   5.471   6.537   4.084 -0.6950  0.8817  0.1280
15664TIP3   OH268406   5.742   5.477  15.331 -0.1071  0.5716  0.2357
15664TIP3    H168407   5.733   5.523  15.247  0.3117  1.3527  0.6010
15664TIP3    H268408   5.696   5.395  15.319  1.0104  0.1025 -1.1894
15665TIP3   OH268409   3.650   5.880   0.837 -0.3783  0.3653  0.0782
15665TIP3    H168410   3.592   5.834   0.777 -2.3563  1.4957  1.0054
15665TIP3    H268411   3.732   5.890   0.789 -0.8080 -1.5904 -1.1692
15666TIP3   OH268412   3.155   6.241  15.017  0.0408  0.0943 -0.4763
15666TIP3    H168413   3.193   6.316  14.971 -0.5479  0.3478 -0.5503
15666TIP3    H268414   3.118   6.186  14.947  0.2771 -0.1608 -0.4060
15667TIP3   OH268415   1.505   3.059  12.116 -0.0906  0.1198  0.4830
15667TIP3    H168416   1.582   3.004  12.129  0.4732  0.4061 -1.4142
15667TIP3    H268417   1.527   3.115  12.042 -0.8478  2.5518  1.9703
15668TIP3   OH268418   4.713   0.933   0.179 -0.2495  0.1939 -0.7321
15668TIP3    H168419   4.659   0.894   0.248  1.7305 -0.1013  0.7450
15668TIP3    H268420   4.674   0.901   0.098 -0.6020 -2.3345  0.3367
15669TIP3   OH268421   0.972   3.781   3.156 -0.2435  0.3357 -0.3228
15669TIP3    H168422   1.028   3.704   3.163 -0.4776  0.2098  0.2273
15669TIP3    H268423   1.032   3.853   3.138 -0.1631 -0.2000 -2.3652
15670TIP3   OH268424   4.660   5.585   3.995  0.0412  0.0705 -0.4404
15670TIP3    H168425   4.744   5.553   4.027  0.9288  1.7494 -1.0177
15670TIP3    H268426   4.598   5.514   4.016  1.5729 -1.1956 -0.0191
15671TIP3   OH268427   1.190   0.517   2.890 -0.6070 -0.3036 -0.4570
15671TIP3    H168428   1.276   0.548   2.917 -0.7277 -1.1291  0.9923
15671TIP3    H268429   1.196   0.507   2.795  1.8038 -2.8965 -0.1798
15672TIP3   OH268430   4.292   0.896  14.365  0.4311  0.3313 -0.2856
15672TIP3    H168431   4.235   0.858  14.298  0.2197  1.6903 -0.8999
15672TIP3    H268432   4.287   0.990  14.350  1.6050  0.5623  0.6655
15673TIP3   OH268433   5.611   5.668   5.376  0.3486 -0.7125  0.3997
15673TIP3    H168434   5.699   5.640   5.398  1.1567  0.4637 -1.1584
15673TIP3    H268435   5.615   5.691   5.283 -0.6611  2.6275  1.0187
15674TIP3   OH268436   2.709   0.652   6.049  0.2512  0.0116 -0.2381
15674TIP3    H168437   2.766   0.580   6.078  2.4943  1.6195 -0.3242
15674TIP3    H268438   2.705   0.711   6.124 -2.3187 -0.5599  0.1523
15675TIP3   OH268439   6.262   2.292  11.801 -0.5274 -0.1171  0.1566
15675TIP3    H168440   6.170   2.284  11.827 -0.7759 -0.8075 -0.9159
15675TIP3    H268441   6.273   2.385  11.781 -1.1295 -0.1186 -0.1964
15676TIP3   OH268442   6.123   0.879   1.829  0.4536 -0.3059 -0.9387
15676TIP3    H168443   6.170   0.961   1.846 -0.7128  0.0926  0.5976
15676TIP3    H268444   6.126   0.869   1.734  3.6753 -0.3747 -0.9640
15677TIP3   OH268445   4.211   4.401  13.487 -0.3480 -0.0732  0.3836
15677TIP3    H168446   4.183   4.492  13.500 -2.0453 -0.3496 -0.9513
15677TIP3    H268447   4.229   4.369  13.576  0.3191  1.5486  0.8762
15678TIP3   OH268448   2.578   4.492   5.419 -0.5117 -0.3568 -0.7196
15678TIP3    H168449   2.664   4.486   5.378 -0.0663 -1.2139  0.2902
15678TIP3    H268450   2.566   4.585   5.435  0.1643 -0.2111 -1.0119
15679TIP3   OH268451   3.184   3.734  14.474  0.0651 -0.6388 -0.6705
15679TIP3    H168452   3.212   3.720  14.564  1.6968  2.7251 -0.4875
15679TIP3    H268453   3.243   3.679  14.422  0.0247 -1.5394  0.2037
15680TIP3   OH268454   4.970   2.669   5.167  0.0454 -0.4106 -0.1340
15680TIP3    H168455   5.034   2.721   5.216  0.8512 -0.6147 -0.9580
15680TIP3    H268456   4.912   2.634   5.235 -0.2173  1.1388  0.4831
15681TIP3   OH268457   2.914   5.665   1.357  0.4254 -0.0404  0.9997
15681TIP3    H168458   2.832   5.692   1.399  0.8665  0.7390  1.3746
15681TIP3    H268459   2.886   5.613   1.281 -0.4156  0.4531  0.9585
15682TIP3   OH268460   4.370   5.812   0.255 -0.1233 -0.4991 -0.1624
15682TIP3    H168461   4.315   5.775   0.324  2.1896 -1.4431  1.2921
15682TIP3    H268462   4.339   5.770   0.175 -0.6292 -2.0562  0.7987
15683TIP3   OH268463   5.800   2.421  16.714 -0.0104  0.4170 -0.1334
15683TIP3    H168464   5.837   2.443  16.628  0.2452 -0.5655 -0.2832
15683TIP3    H268465   5.707   2.409  16.698  0.1824 -0.7526 -0.4897
15684TIP3   OH268466   6.453   0.961   2.816  0.3037 -0.3523 -0.4397
15684TIP3    H168467   6.388   1.012   2.767  0.3359  0.0672 -0.0540
15684TIP3    H268468   6.404   0.887   2.851  0.4536 -1.1372 -1.8094
15685TIP3   OH268469   3.948   5.421  10.976  0.2577  0.1852 -0.3047
15685TIP3    H168470   3.969   5.510  10.946  1.0488  0.7691  1.8178
15685TIP3    H268471   3.869   5.432  11.029  0.7309 -0.2503  0.5047
15686TIP3   OH268472   3.855   3.007   5.800 -0.4323 -0.6423  0.1852
15686TIP3    H168473   3.947   3.012   5.824 -0.2646 -0.0440 -0.5574
15686TIP3    H268474   3.808   3.042   5.876 -0.0583 -0.9691  0.5718
15687TIP3   OH268475   6.762   2.136   0.964  0.5811 -0.3702 -0.1769
15687TIP3    H168476   6.806   2.152   0.880  0.8237 -0.5599 -0.0886
15687TIP3    H268477   6.711   2.056   0.949 -2.2911  1.5016 -1.2664
15688TIP3   OH268478   3.954   0.769  13.512 -0.1463 -0.1476  0.1141
15688TIP3    H168479   3.899   0.737  13.441 -2.1305  2.0665  0.5286
15688TIP3    H268480   3.977   0.690  13.561  0.6691 -1.6335 -2.4829
15689TIP3   OH268481   5.864   0.383   4.941  0.0658  0.0188  0.8965
15689TIP3    H168482   5.869   0.441   5.017 -2.7390  1.7144 -0.0494
15689TIP3    H268483   5.805   0.313   4.969  1.4283 -1.0450  1.2026
15690TIP3   OH268484   4.862   6.312  16.983 -0.3097 -0.2867  0.1576
15690TIP3    H168485   4.948   6.278  16.959 -0.5829 -0.9781  0.1509
15690TIP3    H268486   4.858   6.398  16.941  0.6648  0.0754  0.7688
15691TIP3   OH268487   5.288   2.958  12.963 -0.2472  0.4159  0.1802
15691TIP3    H168488   5.198   2.927  12.950  0.0749 -0.9127  0.8631
15691TIP3    H268489   5.327   2.956  12.876 -0.5799 -0.0184  0.0365
15692TIP3   OH268490   2.037   5.890   3.793  0.3035 -0.6225  0.1785
15692TIP3    H168491   1.990   5.909   3.712  2.0275  0.2721 -0.6725
15692TIP3    H268492   2.111   5.836   3.765  1.4231  0.4508  1.0003
15693TIP3   OH268493   1.476   1.672  12.692 -0.1234  0.9804  0.4862
15693TIP3    H168494   1.549   1.734  12.694 -0.6580  1.6064  1.2948
15693TIP3    H268495   1.400   1.726  12.669 -0.1056  0.0641 -2.0586
15694TIP3   OH268496   5.191   1.491   0.711  0.0443 -0.0524  0.1040
15694TIP3    H168497   5.104   1.527   0.697  0.1529  0.6705  1.2106
15694TIP3    H268498   5.222   1.531   0.792  1.1931 -0.7101  0.0222
15695TIP3   OH268499   0.764   1.672  14.661  0.0424 -0.1806 -0.3035
15695TIP3    H168500   0.709   1.639  14.591  1.3857  0.2031 -1.5910
15695TIP3    H268501   0.720   1.644  14.742 -1.9516  0.0560 -1.2568
15696TIP3   OH268502   3.213   4.057   1.024 -0.5059 -0.5071 -0.7117
15696TIP3    H168503   3.259   4.136   1.051  1.4952 -1.8495  0.0849
15696TIP3    H268504   3.235   4.046   0.931 -0.3861 -0.3802 -0.6973
15697TIP3   OH268505   6.708   4.429   6.383  0.3530  0.3939 -0.7188
15697TIP3    H168506   6.764   4.446   6.459  1.7266  2.2260 -2.0409
15697TIP3    H268507   6.684   4.516   6.351 -1.1335 -0.3540 -1.7234
15698TIP3   OH268508   1.256   1.542  12.814 -0.6263 -0.1497  0.0889
15698TIP3    H168509   1.316   1.522  12.886  0.3254  1.7535 -0.1117
15698TIP3    H268510   1.312   1.575  12.744 -1.5192 -2.0180 -1.6300
15699TIP3   OH268511   4.325   3.011  12.956  0.2968 -0.2217 -0.0741
15699TIP3    H168512   4.335   3.103  12.982 -1.7335  0.0023  0.0450
15699TIP3    H268513   4.406   2.991  12.909  0.8514  1.5823  0.0230
15700TIP3   OH268514   1.165   5.890  17.053  0.2364 -0.1213 -0.1542
15700TIP3    H168515   1.075   5.900  17.023  0.2267 -2.2579 -0.9997
15700TIP3    H268516   1.182   5.969  17.104 -2.1380  0.2885  0.1215
15701TIP3   OH268517   6.523   4.891   0.909  0.2000  0.3115 -0.1943
15701TIP3    H168518   6.435   4.929   0.915  0.3942  0.6685  0.4265
15701TIP3    H268519   6.509   4.805   0.869 -0.3828  0.5333 -0.4739
15702TIP3   OH268520   2.070   5.870   1.393 -0.3711  0.4747 -0.5646
15702TIP3    H168521   2.038   5.919   1.469 -0.5214  1.3913 -1.2018
15702TIP3    H268522   2.065   5.779   1.420 -2.4964  0.6334 -0.2259
15703TIP3   OH268523   4.304   0.170  14.824  0.0290  0.0114 -0.1714
15703TIP3    H168524   4.372   0.116  14.863 -2.2616 -3.1301 -0.1723
15703TIP3    H268525   4.351   0.229  14.765  2.8546 -0.5752  1.3067
15704TIP3   OH268526   4.181   3.150   4.861 -0.1843 -0.4801  0.0190
15704TIP3    H168527   4.215   3.168   4.949  0.2563 -1.3757  0.0344
15704TIP3    H268528   4.236   3.080   4.827  2.0745  2.1878 -2.3985
15705TIP3   OH268529   1.792   4.303   2.071  0.8706  0.3001 -0.3625
15705TIP3    H168530   1.719   4.254   2.033 -0.7970  0.6391  2.1287
15705TIP3    H268531   1.860   4.237   2.086  0.4564 -0.3462 -1.2544
15706TIP3   OH268532   0.988   4.839  15.785 -0.2810 -0.1723 -0.4935
15706TIP3    H168533   1.059   4.863  15.726 -0.6043  1.0348 -0.4172
15706TIP3    H268534   0.908   4.869  15.741 -0.7273 -1.2397 -0.4428
15707TIP3   OH268535   5.955   6.066  14.038  0.1322 -0.3244  0.2486
15707TIP3    H168536   5.967   6.153  14.000 -1.3331  0.2051  0.9022
15707TIP3    H268537   5.890   6.025  13.981  0.1680 -0.6548  0.4454
15708TIP3   OH268538   5.129   0.221   0.218 -0.2863  0.9983  0.3440
15708TIP3    H168539   5.159   0.173   0.141 -1.9427  3.8527 -2.3355
15708TIP3    H268540   5.060   0.166   0.256  0.4068 -0.3813 -0.3391
15709TIP3   OH268541   5.166   6.548  13.434 -0.5743 -0.0667  0.1757
15709TIP3    H168542   5.171   6.529  13.528 -2.7722  1.5723  0.6992
15709TIP3    H268543   5.090   6.498  13.404  0.2091 -0.7077 -0.8244
15710TIP3   OH268544   0.287   4.702  12.425  0.2494 -0.4334  0.5181
15710TIP3    H168545   0.292   4.649  12.504  1.8520 -0.7264  0.2642
15710TIP3    H268546   0.206   4.674  12.382  0.4854 -1.8838  0.9588
15711TIP3   OH268547   0.992   6.504   2.708 -0.4413  0.2958  0.1198
15711TIP3    H168548   1.064   6.452   2.671  0.3303  0.4099  1.4184
15711TIP3    H268549   0.950   6.543   2.631  0.6627 -0.0568 -0.6981
15712TIP3   OH268550   0.340   2.820  13.802  0.3575  0.6532 -0.2356
15712TIP3    H168551   0.422   2.793  13.845  0.9284  1.4022 -0.8166
15712TIP3    H268552   0.271   2.777  13.852  1.1523 -0.8120 -0.3334
15713TIP3   OH268553   5.973   3.336  13.390 -0.4395  0.0880  0.2798
15713TIP3    H168554   5.927   3.391  13.453 -0.6714 -0.1020  0.2775
15713TIP3    H268555   5.903   3.293  13.340 -0.2951 -1.1838  1.1050
15714TIP3   OH268556   3.106   0.160  12.107  0.5964 -0.2072  0.6173
15714TIP3    H168557   3.148   0.086  12.063  1.7748  0.9110 -0.2358
15714TIP3    H268558   3.151   0.237  12.071  0.3615  0.8510  2.4899
15715TIP3   OH268559   1.661   3.633  15.349  0.1760 -0.1209  0.3816
15715TIP3    H168560   1.682   3.583  15.428  3.5543 -3.5298 -2.3365
15715TIP3    H268561   1.740   3.685  15.332 -2.0844  4.0384  1.3497
15716TIP3   OH268562   4.122   3.536   0.794 -0.0144  0.2647 -0.0081
15716TIP3    H168563   4.161   3.580   0.869  2.8367  0.2168 -1.3151
15716TIP3    H268564   4.126   3.443   0.817 -2.4942  0.3882  1.1786
15717TIP3   OH268565   6.074   4.273   5.686  0.1233  0.1867 -0.4130
15717TIP3    H168566   6.144   4.305   5.629 -1.1792  0.6628 -1.7999
15717TIP3    H268567   6.024   4.351   5.710 -0.5043 -0.2586 -0.2395
15718TIP3   OH268568   2.786   5.166   1.942 -0.3137  0.4055  0.1769
15718TIP3    H168569   2.878   5.172   1.966 -0.2496  0.5629 -0.0947
15718TIP3    H268570   2.757   5.257   1.937 -0.4227  0.3639  0.0357
15719TIP3   OH268571   3.678   3.154  12.544  0.4980  0.3245  0.4550
15719TIP3    H168572   3.640   3.197  12.468 -0.6550 -0.5692  0.4926
15719TIP3    H268573   3.617   3.171  12.615 -0.7032 -2.3095  0.1985
15720TIP3   OH268574   1.661   5.939  13.811 -0.1860  0.6168 -0.0223
15720TIP3    H168575   1.600   5.868  13.831 -0.3500  0.4881 -0.9365
15720TIP3    H268576   1.641   6.006  13.876 -2.5601  1.3216 -1.3414
15721TIP3   OH268577   2.372   3.795  13.424  0.5367 -0.0758 -0.6228
15721TIP3    H168578   2.287   3.754  13.440  1.7972 -3.3226 -1.4131
15721TIP3    H268579   2.351   3.885  13.399 -2.5868 -0.5425 -0.1239
15722TIP3   OH268580   6.392   2.871   4.524 -0.2132 -0.5002 -0.6961
15722TIP3    H168581   6.337   2.792   4.522 -1.1643  0.0947  0.6587
15722TIP3    H268582   6.411   2.889   4.432 -0.9629 -1.6272 -1.0996
15723TIP3   OH268583   3.883   0.039  15.351 -0.1653  0.8349  0.5735
15723TIP3    H168584   3.954   0.095  15.317 -0.1812  0.0656 -0.7752
15723TIP3    H268585   3.815   0.045  15.284 -0.2895 -0.5487  0.5645
15724TIP3   OH268586   1.694   1.861  14.316  0.0560  0.4470 -0.1278
15724TIP3    H168587   1.766   1.825  14.369 -0.9953  0.1172  1.1226
15724TIP3    H268588   1.652   1.784  14.279 -0.8825  0.5006  0.7991
15725TIP3   OH268589   6.268   2.194  13.266 -0.1143  0.1409  0.8053
15725TIP3    H168590   6.324   2.167  13.194  0.1534 -0.8812  1.3647
15725TIP3    H268591   6.219   2.270  13.233 -0.4310 -0.6583 -0.6353
15726TIP3   OH268592   0.487   4.297   3.621 -0.0174 -0.0657 -0.5096
15726TIP3    H168593   0.582   4.303   3.610  0.2486 -2.1379  0.1578
15726TIP3    H268594   0.475   4.273   3.713 -1.2594  1.0569 -0.3503
15727TIP3   OH268595   5.790   4.969  16.934 -0.2511  0.0784 -0.1988
15727TIP3    H168596   5.846   4.892  16.924 -0.4350  0.0712 -1.4213
15727TIP3    H268597   5.822   5.013  17.012  0.9165 -0.3771 -0.4034
15728TIP3   OH268598   5.646   0.497  15.214 -0.2212 -0.1872 -0.2314
15728TIP3    H168599   5.712   0.435  15.243 -1.2824 -1.3640 -0.2596
15728TIP3    H268600   5.681   0.583  15.240  0.8183 -0.8622  0.6938
15729TIP3   OH268601   0.143   2.753   2.859 -0.1587 -0.2525 -0.1386
15729TIP3    H168602   0.191   2.714   2.933  0.0357  1.4674  0.6963
15729TIP3    H268603   0.090   2.822   2.899 -0.9891 -0.0799 -1.4769
15730TIP3   OH268604   4.283   0.303  13.935  0.1181 -0.1514  0.0382
15730TIP3    H168605   4.355   0.285  13.994  0.9457  0.1319 -0.8607
15730TIP3    H268606   4.315   0.375  13.880  0.1868 -1.7752 -2.1384
15731TIP3   OH268607   3.331   0.147  16.695 -0.5201 -0.1703 -0.5551
15731TIP3    H168608   3.251   0.121  16.648 -0.7827 -2.1906  0.8743
15731TIP3    H268609   3.326   0.242  16.699 -3.9980 -0.2586  1.3426
15732TIP3   OH268610   1.005   1.536  15.552 -0.0843  0.4546  0.1793
15732TIP3    H168611   1.047   1.450  15.559 -1.3392 -0.1370  0.7053
15732TIP3    H268612   1.059   1.593  15.606 -0.7171 -0.6103  2.0475
15733TIP3   OH268613   6.631   3.908   5.368 -0.3016 -0.3724  0.1857
15733TIP3    H168614   6.615   3.927   5.460 -0.0100 -0.2411  0.2100
15733TIP3    H268615   6.552   3.939   5.323  0.2494  1.0984  0.2010
15734TIP3   OH268616   3.004   4.888  13.878  0.0909 -0.1795  0.3544
15734TIP3    H168617   3.073   4.876  13.812 -1.7390 -2.5276 -1.3287
15734TIP3    H268618   3.044   4.860  13.960  1.4303 -0.5048 -0.3822
15735TIP3   OH268619   4.754   4.018  11.688  0.4234 -0.4421 -0.0593
15735TIP3    H168620   4.675   4.008  11.740  0.2894  1.0308  0.0829
15735TIP3    H268621   4.763   3.936  11.641 -2.7792  0.2676 -2.2406
15736TIP3   OH268622   6.589   3.907  14.551 -0.2414  0.1796  0.0473
15736TIP3    H168623   6.664   3.968  14.556 -0.4440  0.4199  0.2006
15736TIP3    H268624   6.514   3.963  14.531 -1.1157  0.5970  3.6699
15737TIP3   OH268625   4.546   6.012  15.585  0.6904  0.0502 -0.0093
15737TIP3    H168626   4.476   5.954  15.613  1.2962 -0.7567 -0.1186
15737TIP3    H268627   4.575   5.976  15.502  1.3621  0.2531  0.1300
15738TIP3   OH268628   4.325   4.416   2.895  0.5168  0.1885  0.0453
15738TIP3    H168629   4.273   4.346   2.934 -0.5467  0.9739  0.0877
15738TIP3    H268630   4.274   4.496   2.911  1.6718  0.9739 -0.0367
15739TIP3   OH268631   4.546   2.133   5.209  0.2261 -0.8449  0.1129
15739TIP3    H168632   4.481   2.203   5.204  0.9991 -0.1711 -1.3894
15739TIP3    H268633   4.585   2.131   5.121  0.5551 -2.8498  0.2544
15740TIP3   OH268634   4.949   4.149   3.327  0.0827  0.2494  0.3950
15740TIP3    H168635   4.937   4.183   3.416  0.4768 -2.2232  1.4707
15740TIP3    H268636   4.864   4.162   3.285 -0.2663  0.9995  1.2973
15741TIP3   OH268637   0.956   5.104   0.764 -0.3683 -0.0748  0.3346
15741TIP3    H168638   1.046   5.085   0.737  0.5106  1.7761  1.7653
15741TIP3    H268639   0.908   5.115   0.682  0.6367 -1.2267 -0.4540
15742TIP3   OH268640   6.176   6.514  11.308  0.5057 -0.1506 -0.4285
15742TIP3    H168641   6.259   6.481  11.273  0.3274 -0.6686 -0.3805
15742TIP3    H268642   6.158   6.458  11.384  1.3100  1.4996  1.0185
15743TIP3   OH268643   1.214   0.751   4.652 -0.7747  0.5294 -0.1013
15743TIP3    H168644   1.146   0.706   4.601 -2.5889  3.8110 -0.8266
15743TIP3    H268645   1.203   0.843   4.631  1.1438  1.6439  3.1214
15744TIP3   OH268646   3.850   2.699  13.374  0.3900 -0.1863  0.0882
15744TIP3    H168647   3.853   2.659  13.461 -0.1243 -1.4048 -0.4270
15744TIP3    H268648   3.756   2.708  13.355  0.4824 -0.6023 -0.6204
15745TIP3   OH268649   5.778   2.503   2.825 -0.4636  0.4716  0.0244
15745TIP3    H168650   5.730   2.442   2.880  1.6077 -0.9807  0.3253
15745TIP3    H268651   5.766   2.471   2.736  1.2719 -0.9185  0.2519
15746TIP3   OH268652   1.068   3.269  14.370 -0.4582 -0.2793  0.0901
15746TIP3    H168653   1.129   3.220  14.425 -1.0361  0.1896  1.1757
15746TIP3    H268654   0.984   3.264  14.417 -0.9281  0.2923 -0.6577
15747TIP3   OH268655   0.142   0.719  10.464  0.4205 -0.1972  0.2429
15747TIP3    H168656   0.098   0.728  10.549 -1.6359 -0.0985 -0.7488
15747TIP3    H268657   0.109   0.636  10.430  0.3323  0.3054 -0.9222
15748TIP3   OH268658   2.809   0.117   5.088 -0.1021  0.1603 -0.6248
15748TIP3    H168659   2.747   0.059   5.133 -0.5392  1.4484  0.5150
15748TIP3    H268660   2.895   0.080   5.107 -0.4409 -0.9967 -1.2509
15749TIP3   OH268661   3.119   5.638   2.946 -0.1933  0.3708 -0.0708
15749TIP3    H168662   3.041   5.684   2.977 -0.5244 -0.6615  0.6599
15749TIP3    H268663   3.085   5.568   2.891  0.2109 -0.1390  0.3217
15750TIP3   OH268664   0.314   1.376   4.609  0.0934 -0.4304 -0.2208
15750TIP3    H168665   0.240   1.358   4.666  0.0623  0.9901  0.2284
15750TIP3    H268666   0.348   1.290   4.585 -0.2635 -1.0661  1.4371
15751TIP3   OH268667   2.521   1.311  15.159  0.3132  0.2043  1.0439
15751TIP3    H168668   2.451   1.366  15.194  1.4685  0.3525  3.3371
15751TIP3    H268669   2.558   1.268  15.236  1.4355 -1.4339 -0.3402
15752TIP3   OH268670   1.779   1.555  16.846  0.7079 -0.1243  0.5169
15752TIP3    H168671   1.849   1.538  16.910  1.2214  0.1650  0.0347
15752TIP3    H268672   1.823   1.552  16.761 -0.4493 -3.6097 -0.1202
15753TIP3   OH268673   6.127   6.364  12.740 -0.2711 -0.1006  0.2477
15753TIP3    H168674   6.047   6.350  12.689 -0.8388  1.1387  0.7519
15753TIP3    H268675   6.156   6.276  12.763 -0.4692 -0.6510 -1.4590
15754TIP3   OH268676   5.638   5.015  14.908 -0.8529  0.1582 -0.3382
15754TIP3    H168677   5.600   5.099  14.884  1.7341  1.4640 -0.2284
15754TIP3    H268678   5.703   5.037  14.976  1.0929 -1.6430 -1.5028
15755TIP3   OH268679   3.384   2.396  14.305  0.4410 -0.6957  0.0384
15755TIP3    H168680   3.312   2.336  14.289 -0.2929 -0.8501  3.2707
15755TIP3    H268681   3.342   2.477  14.335  1.5327  0.4192 -1.3163
15756TIP3   OH268682   4.041   3.395   5.077 -0.1622 -0.7163  0.1469
15756TIP3    H168683   4.019   3.472   5.130  0.1844 -0.8100  0.4300
15756TIP3    H268684   4.136   3.399   5.068 -0.1753 -0.9518 -0.0876
15757TIP3   OH268685   4.298   0.018   1.487 -0.0667  0.2040  0.1510
15757TIP3    H168686   4.292   0.032   1.393 -1.2519  1.6225  0.4026
15757TIP3    H268687   4.295  -0.077   1.498  0.7820 -0.0074 -1.2640
15758TIP3   OH268688   4.210   0.596   4.474 -0.5974  0.9160  0.1100
15758TIP3    H168689   4.300   0.622   4.498 -0.3242  1.7147 -1.6388
15758TIP3    H268690   4.174   0.672   4.430 -1.5167 -0.0229 -0.8173
15759TIP3   OH268691   5.282   2.205   0.264  0.4337 -0.0309  0.0971
15759TIP3    H168692   5.295   2.261   0.341  1.0032 -0.2859  0.1953
15759TIP3    H268693   5.201   2.158   0.282  0.3814  0.1655  0.3843
15760TIP3   OH268694   3.357   1.145   3.678 -0.1698  0.3426 -0.9069
15760TIP3    H168695   3.427   1.202   3.646  0.7000 -0.9311 -1.3046
15760TIP3    H268696   3.336   1.181   3.765  1.6436  0.1828 -0.3539
15761TIP3   OH268697   4.524   6.156   0.446  0.5925 -0.4329  0.3676
15761TIP3    H168698   4.472   6.126   0.372 -1.3200  2.4556  0.3713
15761TIP3    H268699   4.513   6.088   0.512 -2.0619 -0.6422 -0.1619
15762TIP3   OH268700   0.057   3.539   4.468  1.1562  0.5431 -0.4105
15762TIP3    H168701   0.074   3.498   4.383  1.2948 -1.7180  0.6233
15762TIP3    H268702   0.007   3.473   4.516  1.2378  1.6988  1.3315
15763TIP3   OH268703   2.903   6.541  12.936  0.9124  0.1523  0.4530
15763TIP3    H168704   2.950   6.614  12.895  1.6090 -0.7591 -0.3913
15763TIP3    H268705   2.817   6.542  12.895  0.2371  1.6241  1.7720
15764TIP3   OH268706   1.823   0.136  14.928  0.4175 -0.1058 -0.7085
15764TIP3    H168707   1.826   0.153  14.834 -0.6699 -1.0324 -0.9223
15764TIP3    H268708   1.762   0.064  14.938  0.2526  0.2056  0.7560
15765TIP3   OH268709   3.694   0.879   5.992 -0.2167  0.3385  0.1351
15765TIP3    H168710   3.696   0.923   6.077  0.0980  0.6277 -0.0189
15765TIP3    H268711   3.601   0.874   5.969 -0.2219  1.6039 -0.1937
15766TIP3   OH268712   0.761   4.479  11.184  0.0745 -0.5426  0.6688
15766TIP3    H168713   0.790   4.472  11.093  1.2330 -0.4041  1.0101
15766TIP3    H268714   0.700   4.553  11.184  1.8104  0.9596  0.3955
15767TIP3   OH268715   1.738   6.669  16.568  0.2623 -0.0234 -0.2032
15767TIP3    H168716   1.786   6.749  16.587  0.8726 -0.5640  0.6130
15767TIP3    H268717   1.790   6.600  16.608 -0.7904 -0.7095  0.0271
15768TIP3   OH268718   2.397   1.764   2.072 -0.1094 -0.0513 -0.0112
15768TIP3    H168719   2.399   1.672   2.098 -0.6243 -0.6940 -2.1210
15768TIP3    H268720   2.309   1.777   2.036  0.6377  0.6821 -1.6466
15769TIP3   OH268721   5.552   2.800  12.061 -0.6618 -0.2762  0.8338
15769TIP3    H168722   5.523   2.752  12.139 -0.4194  2.1062  2.4907
15769TIP3    H268723   5.627   2.851  12.091  1.8485 -1.9843 -1.9276
15770TIP3   OH268724   0.957   0.913  14.393 -0.6061  0.8373  0.0208
15770TIP3    H168725   0.868   0.949  14.401 -0.9184  0.0065  0.4008
15770TIP3    H268726   0.954   0.831  14.442  0.0556  0.2328 -0.9243
15771TIP3   OH268727   5.186   6.192   6.060 -0.1342 -0.1007  0.0161
15771TIP3    H168728   5.224   6.193   5.972  0.6280 -1.6596  0.2977
15771TIP3    H268729   5.155   6.281   6.074 -0.0059  0.2390 -1.7210
15772TIP3   OH268730   1.404   3.702   5.883  0.2293  0.1004 -0.3648
15772TIP3    H168731   1.370   3.768   5.944 -0.3079 -0.0209 -0.5315
15772TIP3    H268732   1.356   3.622   5.905  0.2381 -0.0146 -0.7603
15773TIP3   OH268733   4.947   3.441  16.302  0.2497 -0.3749 -0.1490
15773TIP3    H168734   4.958   3.415  16.210  0.8245 -1.0279  0.0966
15773TIP3    H268735   5.035   3.438  16.339  0.0583  0.1282  0.3688
15774TIP3   OH268736   4.237   5.692   5.637  0.0812 -0.5226  0.4152
15774TIP3    H168737   4.204   5.781   5.624  0.9682 -0.0946  0.9506
15774TIP3    H268738   4.160   5.636   5.633 -0.4816  0.2694  0.0110
15775TIP3   OH268739   2.369   5.377  11.379  0.7694 -0.2474  0.5314
15775TIP3    H168740   2.426   5.431  11.324  4.8369 -3.1878  1.3671
15775TIP3    H268741   2.363   5.425  11.462  2.7816 -0.1598  0.6733
15776TIP3   OH268742   4.072   4.241  11.676  0.0592  0.1141  0.3390
15776TIP3    H168743   4.131   4.206  11.742 -1.1284 -0.3225  1.1889
15776TIP3    H268744   4.065   4.172  11.610 -0.0875 -0.1287  0.6102
15777TIP3   OH268745   1.835   1.120  10.686  0.0433  0.1313  0.1207
15777TIP3    H168746   1.919   1.165  10.680 -0.2511  0.6350 -0.2796
15777TIP3    H268747   1.834   1.083  10.775  0.5057  0.4748  0.2733
15778TIP3   OH268748   1.445   1.555   0.514 -0.3732 -0.1168  0.1819
15778TIP3    H168749   1.412   1.577   0.426 -1.2425  0.4920  0.6408
15778TIP3    H268750   1.540   1.565   0.507 -0.4329 -0.0271 -0.6775
15779TIP3   OH268751   4.136   2.453  14.948  0.1368 -0.1537  0.2817
15779TIP3    H168752   4.198   2.400  14.897 -0.7153 -0.1086 -0.8146
15779TIP3    H268753   4.192   2.514  14.997  1.0584 -1.2226  0.6083
15780TIP3   OH268754   4.201   1.412   5.481 -0.1132  0.2907  0.0965
15780TIP3    H168755   4.279   1.362   5.458 -0.4763  0.8448 -2.8354
15780TIP3    H268756   4.149   1.353   5.535  1.3843 -0.8627  0.3186
15781TIP3   OH268757   2.054   1.725   1.104 -0.2889 -0.6014 -0.2110
15781TIP3    H168758   2.056   1.785   1.179  1.8610 -0.4302 -0.3493
15781TIP3    H268759   2.032   1.640   1.142  1.4811 -0.6689  0.7914
15782TIP3   OH268760   3.853   2.027   3.825 -0.1807  0.2767 -0.1371
15782TIP3    H168761   3.851   1.981   3.910 -2.5679  0.5582  0.0268
15782TIP3    H268762   3.835   1.958   3.761  0.8864  0.2027 -0.3833
15783TIP3   OH268763   1.311   2.254   2.107  0.0774 -0.2546  0.4828
15783TIP3    H168764   1.341   2.217   2.190 -2.4229 -0.8105  1.2169
15783TIP3    H268765   1.381   2.313   2.080  1.2634 -0.5988  2.6195
15784TIP3   OH268766   1.708   2.117  11.732  0.1388  0.0625  0.3732
15784TIP3    H168767   1.791   2.159  11.755  0.8906 -0.8620 -0.5952
15784TIP3    H268768   1.668   2.096  11.817  1.6562 -0.9473  0.8763
15785TIP3   OH268769   6.249   3.628  14.582 -0.2853  0.8980  0.3577
15785TIP3    H168770   6.332   3.606  14.624  0.4192  1.5961 -0.6208
15785TIP3    H268771   6.229   3.716  14.615 -0.1976  1.0786 -0.0759
15786TIP3   OH268772   5.402   2.656  16.002  0.8800  0.2767 -0.5186
15786TIP3    H168773   5.494   2.670  15.979  0.8713  1.4988  0.1453
15786TIP3    H268774   5.403   2.637  16.096  0.4316  0.4440 -0.4778
15787TIP3   OH268775   2.206   1.816   1.765  0.2084  0.1600 -0.3251
15787TIP3    H168776   2.259   1.893   1.744  0.1125  0.8978  1.9425
15787TIP3    H268777   2.126   1.852   1.804  0.2246 -1.0911  0.9142
15788TIP3   OH268778   2.976   1.365   0.325 -0.4544  0.0544  0.9230
15788TIP3    H168779   2.947   1.373   0.234  0.3263 -0.9667  0.5682
15788TIP3    H268780   2.902   1.398   0.377 -0.5757  1.4726 -0.0936
15789TIP3   OH268781   6.377   1.931  15.034 -0.3700  0.2627  0.2066
15789TIP3    H168782   6.356   1.987  15.109  0.0667  0.5726  0.1023
15789TIP3    H268783   6.463   1.895  15.054 -0.4377  0.0104  0.0475
15790TIP3   OH268784   1.447   5.048  12.935  0.7023  0.1369 -0.2714
15790TIP3    H168785   1.365   5.054  12.983  0.6862  0.1553 -0.3018
15790TIP3    H268786   1.506   5.003  12.995 -0.0951 -2.3557 -1.2203
15791TIP3   OH268787   3.350   6.689  15.059 -0.2468  0.0025  0.4688
15791TIP3    H168788   3.422   6.671  14.997 -0.3803  0.4126  0.1872
15791TIP3    H268789   3.330   6.782  15.045 -2.4121 -0.6341 -1.1653
15792TIP3   OH268790   3.301   3.735  15.824  0.1894 -0.2724 -0.4509
15792TIP3    H168791   3.353   3.688  15.760 -0.1574 -0.0901 -0.8767
15792TIP3    H268792   3.356   3.809  15.851  0.4553 -0.5216 -0.3047
15793TIP3   OH268793   0.215   0.418   2.004  0.1071  0.6183 -0.7105
15793TIP3    H168794   0.244   0.342   2.056 -0.4955  1.2706  0.6324
15793TIP3    H268795   0.202   0.487   2.069 -0.6681  1.4714 -1.7470
15794TIP3   OH268796   3.310   5.824   1.206 -0.4191  0.2335 -0.0507
15794TIP3    H168797   3.304   5.746   1.151  2.2856  0.0178 -0.1860
15794TIP3    H268798   3.403   5.847   1.205 -1.1351  3.5565 -0.0904
15795TIP3   OH268799   3.782   3.564  13.747 -0.1779  0.4332  0.4899
15795TIP3    H168800   3.808   3.486  13.698  0.0995  0.3161  0.8103
15795TIP3    H268801   3.838   3.634  13.713  1.3498 -0.0372  1.8953
15796TIP3   OH268802   5.529   1.520  13.573  0.2610  0.4109  0.3522
15796TIP3    H168803   5.571   1.596  13.533 -0.1685  0.5425  0.1452
15796TIP3    H268804   5.498   1.551  13.657 -1.4167  0.9531 -0.4254
15797TIP3   OH268805   4.755   1.913  13.984 -0.8039  0.2763 -0.6625
15797TIP3    H168806   4.791   2.002  13.981  0.6844 -0.2873 -0.2966
15797TIP3    H268807   4.723   1.903  14.074 -0.9493  0.4270 -0.6958
15798TIP3   OH268808   5.477   5.649   3.366 -0.5454  0.2386 -0.0634
15798TIP3    H168809   5.441   5.645   3.278 -1.5386 -0.2024  0.3492
15798TIP3    H268810   5.517   5.563   3.380  0.2068  0.5346 -0.3131
15799TIP3   OH268811   3.935   3.121  12.622 -0.0231  0.1338 -0.1074
15799TIP3    H168812   3.936   3.047  12.683 -0.1297 -0.1417 -0.4374
15799TIP3    H268813   3.843   3.136  12.603 -0.0742  0.9870  0.7095
15800TIP3   OH268814   3.092   1.875  16.971  0.5856  0.0787  0.0269
15800TIP3    H168815   3.042   1.813  17.024 -0.4139 -0.7778 -1.8169
15800TIP3    H268816   3.164   1.823  16.934  0.9986  0.5497  0.1494
15801TIP3   OH268817   3.849   2.881  14.131  0.0781 -0.4833 -0.4577
15801TIP3    H168818   3.839   2.877  14.036 -1.4778  0.2328 -0.3694
15801TIP3    H268819   3.916   2.948  14.145 -0.9183  0.6933 -1.0567
15802TIP3   OH268820   2.280   0.341  17.040 -0.0451 -0.2908 -0.1549
15802TIP3    H168821   2.308   0.432  17.026  2.7306 -1.3659 -2.6834
15802TIP3    H268822   2.187   0.340  17.018  0.1767  1.6985 -1.3989
15803TIP3   OH268823   0.315   2.431   5.453  0.2217  0.0172  0.0076
15803TIP3    H168824   0.370   2.419   5.375  0.1614  0.1200 -0.0500
15803TIP3    H268825   0.362   2.384   5.522  0.1744 -0.2460 -0.1346
15804TIP3   OH268826   4.640   3.792  10.893  0.4007 -0.2046 -0.3727
15804TIP3    H168827   4.613   3.833  10.975 -1.0590 -2.7545  0.5563
15804TIP3    H268828   4.650   3.865  10.831 -0.1775  1.6386  1.5985
15805TIP3   OH268829   2.347   5.606   5.898 -0.2720 -0.1464 -0.1047
15805TIP3    H168830   2.396   5.529   5.927 -1.7834 -0.2595  2.3946
15805TIP3    H268831   2.292   5.629   5.972 -1.0949  2.3746 -1.3842
15806TIP3   OH268832   2.667   0.011   1.473 -0.0035  0.0244 -0.1579
15806TIP3    H168833   2.575   0.037   1.473 -0.0507  0.0318  1.9641
15806TIP3    H268834   2.681  -0.030   1.559  2.2490  1.0923  0.0783
15807TIP3   OH268835   5.439   5.161  13.770 -0.0129  0.1749 -0.1434
15807TIP3    H168836   5.394   5.235  13.812 -0.6084 -1.1400  1.6777
15807TIP3    H268837   5.530   5.169  13.798  0.0241  0.4787 -0.3460
15808TIP3   OH268838   1.138   3.726  12.790 -0.7262 -0.1771 -0.5710
15808TIP3    H168839   1.198   3.700  12.860 -0.6262  0.4329 -0.4256
15808TIP3    H268840   1.051   3.706  12.824 -0.6149 -1.1404 -0.8138
15809TIP3   OH268841   5.250   3.457   6.015 -0.2974 -0.1973 -0.2391
15809TIP3    H168842   5.342   3.481   6.027 -0.5928  0.7181  0.2923
15809TIP3    H268843   5.212   3.463   6.103 -0.9428 -0.2261 -0.5088
15810TIP3   OH268844   5.994   5.720  14.039 -0.5120  0.4437 -0.0519
15810TIP3    H168845   6.072   5.740  13.988  0.0698 -0.2966  0.5304
15810TIP3    H268846   6.003   5.627  14.061  0.1385  1.1044  2.8864
15811TIP3   OH268847   5.211   4.101   3.276 -0.2283 -0.7737 -0.0682
15811TIP3    H168848   5.208   4.029   3.339  0.8920 -2.0278 -1.3759
15811TIP3    H268849   5.123   4.137   3.278 -0.1248 -0.4259  2.5371
15812TIP3   OH268850   0.984   0.523   3.628  0.0872 -0.9665 -0.3143
15812TIP3    H168851   1.021   0.464   3.562 -2.0218 -1.7434 -0.8708
15812TIP3    H268852   0.907   0.561   3.586 -0.2211 -0.0203  1.0531
15813TIP3   OH268853   4.274   5.067  14.879  0.2759 -0.4502  0.6317
15813TIP3    H168854   4.198   5.079  14.821 -0.5253  0.3529  1.8071
15813TIP3    H268855   4.278   4.973  14.895  1.2990 -0.8817 -1.7109
15814TIP3   OH268856   2.925   0.051  15.110  0.0457 -0.0220  0.4437
15814TIP3    H168857   2.875   0.062  15.029  2.1835  1.9387 -0.7388
15814TIP3    H268858   2.889   0.116  15.170 -1.8681 -1.8005  1.3591
15815TIP3   OH268859   1.972   6.436  14.038 -0.1458  0.5531  0.4496
15815TIP3    H168860   2.065   6.448  14.021 -0.1877 -0.0198 -0.2122
15815TIP3    H268861   1.948   6.358  13.988 -0.8004  0.2170  1.2788
15816TIP3   OH268862   3.743   6.284  16.422  0.3649  0.1108  0.6070
15816TIP3    H168863   3.781   6.288  16.334  0.4967  0.4352  0.6798
15816TIP3    H268864   3.654   6.316  16.411  0.4770  0.4365  0.6473
15817TIP3   OH268865   5.537   0.651  13.680  0.6886  0.1044 -0.0003
15817TIP3    H168866   5.533   0.617  13.769 -1.4544  1.2804  0.4196
15817TIP3    H268867   5.494   0.585  13.627 -1.2126  0.9188  0.4343
15818TIP3   OH268868   5.727   3.962   5.981  0.6605 -0.3376  0.4743
15818TIP3    H168869   5.797   3.999   5.927 -0.0723  0.8567  0.2942
15818TIP3    H268870   5.663   3.929   5.918  0.2683  0.1516  0.6055
15819TIP3   OH268871   4.323   0.013   5.166  0.6983  0.4660 -0.3098
15819TIP3    H168872   4.366  -0.068   5.193 -0.8238 -0.5772 -0.8782
15819TIP3    H268873   4.250   0.023   5.227  0.0116  0.6028 -1.1324
15820TIP3   OH268874   4.208   3.427   5.527 -0.6198 -0.3986  0.6222
15820TIP3    H168875   4.129   3.472   5.496 -1.2374 -1.3044  0.8128
15820TIP3    H268876   4.180   3.384   5.608  0.2508 -0.2074  1.0279
15821TIP3   OH268877   2.149   5.307  16.359  0.3067  0.2262  0.2116
15821TIP3    H168878   2.156   5.351  16.275 -1.4282  0.8303  0.3430
15821TIP3    H268879   2.055   5.307  16.379  0.6989  0.5530  2.3697
15822TIP3   OH268880   6.041   2.709   5.557 -0.2943  0.4122  0.7088
15822TIP3    H168881   6.120   2.762   5.549  0.3841 -0.6284  0.3269
15822TIP3    H268882   6.071   2.627   5.596 -1.1785 -0.0032  0.5393
15823TIP3   OH268883   1.305   4.076   4.148 -0.2384 -0.4429  0.3835
15823TIP3    H168884   1.348   4.012   4.205 -0.8687 -1.1542  0.0849
15823TIP3    H268885   1.286   4.150   4.204 -0.0106 -0.7490  0.8721
15824TIP3   OH268886   3.341   0.233  13.937  0.3479  0.0038 -0.0979
15824TIP3    H168887   3.425   0.219  13.981 -0.1799  0.4320  1.1020
15824TIP3    H268888   3.364   0.280  13.857  1.0790  2.3847  1.4054
15825TIP3   OH268889   4.468   1.389  12.869  0.5432 -0.2141  0.2226
15825TIP3    H168890   4.477   1.408  12.963  1.6988  1.8764 -0.2504
15825TIP3    H268891   4.555   1.409  12.833  0.3432 -1.7608 -1.1943
15826TIP3   OH268892   2.820   5.934  16.469 -0.0486  0.2599  0.3419
15826TIP3    H168893   2.746   5.874  16.462  0.1772 -0.3937  2.6363
15826TIP3    H268894   2.810   5.974  16.556  1.6211  1.0478  0.2135
15827TIP3   OH268895   4.735   0.595  11.348  0.3401  0.1906 -0.2967
15827TIP3    H168896   4.719   0.688  11.366 -1.4059 -0.5023  2.2902
15827TIP3    H268897   4.806   0.572  11.408  0.1828 -0.3221 -0.3061
15828TIP3   OH268898   6.101   6.670  16.097  0.2424  0.5392  0.0298
15828TIP3    H168899   6.182   6.646  16.052  0.2393 -2.3988  1.3317
15828TIP3    H268900   6.125   6.745  16.151  1.2350  1.6668 -1.8665
15829TIP3   OH268901   3.277   1.497  11.617 -0.5495  0.0316 -0.0671
15829TIP3    H168902   3.210   1.562  11.596  0.3843  1.3349  0.8610
15829TIP3    H268903   3.231   1.429  11.667 -0.9978  1.4694  1.5561
15830TIP3   OH268904   2.956   3.580  16.568 -0.5800  0.2398 -0.2053
15830TIP3    H168905   2.954   3.571  16.472 -2.3436  0.6218 -0.2410
15830TIP3    H268906   2.950   3.490  16.600 -0.5578  0.1446 -0.4607
15831TIP3   OH268907   5.118   6.003   6.569  0.6078  0.5878  0.2902
15831TIP3    H168908   5.046   6.060   6.545  1.4896  2.0233  0.9377
15831TIP3    H268909   5.197   6.050   6.541  1.2987 -1.2022 -0.9421
15832TIP3   OH268910   2.450   6.044   3.115  0.6882 -0.2082 -0.7657
15832TIP3    H168911   2.424   6.128   3.154 -2.2229 -1.6401  0.6956
15832TIP3    H268912   2.517   6.010   3.174  0.6090  0.3054 -0.3705
15833TIP3   OH268913   1.106   6.740   2.810 -0.0792  0.0185  0.4790
15833TIP3    H168914   1.197   6.718   2.787  0.3657  1.3707  0.8685
15833TIP3    H268915   1.057   6.660   2.790  1.0671 -0.4873 -0.4616
15834TIP3   OH268916   2.333   3.988  11.579 -0.2568  0.4117  0.8987
15834TIP3    H168917   2.257   3.996  11.521 -1.6349 -2.0104  2.2281
15834TIP3    H268918   2.381   4.070  11.567 -0.9008  0.3988 -2.9668
15835TIP3   OH268919   5.147   6.777  15.476 -0.6994 -0.3351  0.2681
15835TIP3    H168920   5.191   6.707  15.428 -2.3087 -0.9092 -0.4578
15835TIP3    H268921   5.153   6.751  15.568  0.5111 -0.3456  0.2052
15836TIP3   OH268922   2.044   0.912   0.037  0.2982  0.5922  0.0753
15836TIP3    H168923   2.040   0.880  -0.053 -0.1102  0.4275  0.1510
15836TIP3    H268924   2.069   1.004   0.030  0.5022  0.5169 -0.1909
15837TIP3   OH268925   1.822   1.635  13.980 -0.5245  0.2505 -0.0692
15837TIP3    H168926   1.730   1.608  13.984  0.1171 -2.0158  1.3411
15837TIP3    H268927   1.839   1.646  13.886 -2.2173  0.7289 -0.3557
15838TIP3   OH268928   4.467   0.658  16.927  0.2794 -0.3379  0.2130
15838TIP3    H168929   4.379   0.682  16.955  0.8357 -0.2612  2.0465
15838TIP3    H268930   4.485   0.715  16.852 -1.7123 -1.3188 -1.1037
15839TIP3   OH268931   4.976   1.942  13.138 -0.5426 -0.3757  0.1674
15839TIP3    H168932   5.044   1.970  13.078 -0.0541  2.6540  1.9287
15839TIP3    H268933   5.005   1.856  13.170 -0.5628 -1.8441 -3.3192
15840TIP3   OH268934   4.235   4.993  11.805 -0.1812  0.2963 -0.4407
15840TIP3    H168935   4.186   4.983  11.886  1.3830 -1.0779  0.4053
15840TIP3    H268936   4.204   4.922  11.748  0.3881 -0.2179 -0.1222
15841TIP3   OH268937   3.836   5.724   5.809 -0.3441  0.4399  0.4704
15841TIP3    H168938   3.881   5.653   5.764 -2.3217 -0.3837 -0.3542
15841TIP3    H268939   3.800   5.684   5.888 -1.6337  0.4231 -0.0954
15842TIP3   OH268940   4.756   4.429   3.866  0.3101 -0.1086 -0.2249
15842TIP3    H168941   4.755   4.524   3.853  1.4667  0.1644  1.4501
15842TIP3    H268942   4.841   4.402   3.832 -0.7140 -0.8909 -2.4278
15843TIP3   OH268943   2.894   0.689   0.880 -0.0764 -0.3644  0.1265
15843TIP3    H168944   2.941   0.747   0.820  1.0260  0.5635  1.7974
15843TIP3    H268945   2.963   0.638   0.923 -0.7946 -0.7602  0.8413
15844TIP3   OH268946   2.038   2.767  16.332  0.4003 -0.2246  0.2220
15844TIP3    H168947   2.088   2.688  16.309 -0.7396 -0.0590 -3.6780
15844TIP3    H268948   2.098   2.839  16.316 -0.0256 -0.1760 -1.4368
15845TIP3   OH268949   4.178   0.016   0.208  0.0531 -0.6460  0.2680
15845TIP3    H168950   4.214   0.086   0.154  1.0541  0.5121  2.3058
15845TIP3    H268951   4.244  -0.054   0.204  0.6313 -0.1410  0.8084
15846TIP3   OH268952   6.488   4.668   0.770  0.3288 -0.3558 -0.4948
15846TIP3    H168953   6.538   4.602   0.724  0.4835  0.4589 -1.5287
15846TIP3    H268954   6.396   4.646   0.752  0.4014  0.7929 -2.4494
15847TIP3   OH268955   3.691   6.383  17.233 -0.0487  0.3461 -0.3706
15847TIP3    H168956   3.650   6.456  17.279  1.4321  1.2348 -0.3909
15847TIP3    H268957   3.716   6.419  17.148 -1.1738 -0.7906 -1.2236
15848TIP3   OH268958   6.419   2.112  13.045  0.0531  0.0987  0.3155
15848TIP3    H168959   6.504   2.068  13.042 -0.8071 -1.9096  2.2886
15848TIP3    H268960   6.390   2.113  12.953  1.3669 -0.8893 -0.1537
15849TIP3   OH268961   0.726   6.388   2.189 -0.1220 -0.8003 -0.7671
15849TIP3    H168962   0.715   6.347   2.275 -0.9441  1.6945  0.3985
15849TIP3    H268963   0.656   6.453   2.185  2.9186  2.7495 -1.0873
15850TIP3   OH268964   6.480   1.833  16.636 -0.3142 -0.1671 -0.2684
15850TIP3    H168965   6.517   1.809  16.551  1.4106  0.3487  0.2941
15850TIP3    H268966   6.555   1.838  16.694 -1.6549 -2.5860  1.8515
15851TIP3   OH268967   1.008   5.956   5.823 -0.2483 -0.0159 -0.4258
15851TIP3    H168968   1.012   5.890   5.754 -0.1213 -1.0791  0.5705
15851TIP3    H268969   1.077   5.932   5.884 -1.4838 -0.1782  0.9809
15852TIP3   OH268970   1.291   2.883   0.854  0.7650 -0.2968 -0.5002
15852TIP3    H168971   1.335   2.814   0.805 -0.4158 -1.3643 -0.1030
15852TIP3    H268972   1.203   2.886   0.818  0.1561 -0.4612  0.9098
15853TIP3   OH268973   6.419   2.138  11.649  0.0448  0.2174  0.7202
15853TIP3    H168974   6.366   2.146  11.570 -0.3936 -0.0606  0.9842
15853TIP3    H268975   6.368   2.182  11.717  0.4820  0.5735  0.8240
15854TIP3   OH268976   0.048   1.560   1.700  0.2826 -0.2113  0.1700
15854TIP3    H168977   0.043   1.487   1.638  0.9045  0.8471 -1.1944
15854TIP3    H268978   0.141   1.582   1.704  0.2471 -0.2294  1.4724
15855TIP3   OH268979   3.143   1.462  13.827 -0.0180 -0.7513 -0.6165
15855TIP3    H168980   3.068   1.447  13.885  0.0363 -1.4762 -0.7268
15855TIP3    H268981   3.164   1.555  13.838 -1.2914 -0.4004 -1.0104
15856TIP3   OH268982   6.619   4.045  15.470  0.7666  0.3300  0.7039
15856TIP3    H168983   6.529   4.052  15.437  0.1735  5.6536  2.4695
15856TIP3    H268984   6.613   3.983  15.543 -1.2310 -0.2510  0.1033
15857TIP3   OH268985   4.703   1.540   5.354 -0.4655 -0.2421  0.1410
15857TIP3    H168986   4.639   1.573   5.290  0.6252  2.7309  0.4121
15857TIP3    H268987   4.782   1.523   5.302 -0.6424 -1.2799  0.1998
15858TIP3   OH268988   2.500   1.580   3.244  0.5433  0.0499 -0.1039
15858TIP3    H168989   2.407   1.562   3.236 -0.2526  2.9342  1.3776
15858TIP3    H268990   2.519   1.568   3.337  1.4874  0.1431 -0.2751
15859TIP3   OH268991   6.029   0.043   0.781  0.6226  0.4459 -0.3456
15859TIP3    H168992   6.003   0.074   0.695  0.7491 -0.4116 -0.7052
15859TIP3    H268993   5.973  -0.033   0.797  2.3046 -0.9620 -0.7937
15860TIP3   OH268994   4.492   5.141   2.995 -0.0541 -0.0552  0.1996
15860TIP3    H168995   4.580   5.176   2.979  0.3280 -1.1922 -0.3408
15860TIP3    H268996   4.498   5.099   3.081 -0.1993  0.2675  0.3669
15861TIP3   OH268997   2.827   2.575  11.844 -0.0461  0.3153 -0.2320
15861TIP3    H168998   2.922   2.582  11.845 -0.0902  0.9590  0.8752
15861TIP3    H268999   2.796   2.656  11.885 -1.1143  0.6113 -1.5744
15862TIP3   OH269000   2.188   0.111   0.637  0.2953 -0.1493 -0.0696
15862TIP3    H169001   2.237   0.166   0.699  2.9384 -1.7916 -0.5320
15862TIP3    H269002   2.101   0.102   0.676  1.5424 -0.3123  2.9513
15863TIP3   OH269003   3.625   5.163  14.108  0.4388  0.9237  0.4582
15863TIP3    H169004   3.677   5.084  14.120  1.1247  1.1246 -0.9176
15863TIP3    H269005   3.536   5.132  14.094  0.8637  0.2823 -1.0867
15864TIP3   OH269006   4.828   3.489   5.041  0.0646  0.0353  0.1276
15864TIP3    H169007   4.920   3.509   5.058  0.2507  0.1268 -0.9126
15864TIP3    H269008   4.811   3.525   4.954 -1.8745  2.9673  1.5777
15865TIP3   OH269009   3.188   2.536   6.564  0.4863 -0.5136 -0.0083
15865TIP3    H169010   3.226   2.454   6.532  1.0368 -0.8814  1.4699
15865TIP3    H269011   3.222   2.544   6.653  0.5926  1.4349 -0.1888
15866TIP3   OH269012   1.857   1.884  11.389  0.0719 -0.1901  0.3201
15866TIP3    H169013   1.920   1.858  11.457 -0.2230  0.5000  0.8719
15866TIP3    H269014   1.897   1.961  11.348  0.0060 -0.2938  0.0604
15867TIP3   OH269015   6.018   4.814   3.085  0.6905 -0.4930 -0.1023
15867TIP3    H169016   5.976   4.806   3.171  2.3965  0.7406  0.9096
15867TIP3    H269017   5.959   4.869   3.034 -0.2369 -1.0623  0.3321
15868TIP3   OH269018   3.775   3.238   1.997  0.0500  0.2442  0.1093
15868TIP3    H169019   3.754   3.145   2.004  0.4439  0.2870  3.5645
15868TIP3    H269020   3.853   3.249   2.052  1.9158  2.1450 -2.6860
15869TIP3   OH269021   1.660   5.770  15.868  0.5200  0.0626 -0.3604
15869TIP3    H169022   1.702   5.712  15.931 -1.3611 -1.4472 -0.4168
15869TIP3    H269023   1.566   5.752  15.876  0.0520  1.3739 -2.0795
15870TIP3   OH269024   5.406   0.952  13.035 -0.3659  0.0847  0.1256
15870TIP3    H169025   5.363   0.885  13.088 -0.4280  0.2608  0.3007
15870TIP3    H269026   5.495   0.919  13.023  0.2209  0.8990  1.9129
15871TIP3   OH269027   1.741   6.786   2.274 -1.0613 -0.0673 -0.0764
15871TIP3    H169028   1.660   6.804   2.320 -0.7639 -0.3596  0.5665
15871TIP3    H269029   1.797   6.742   2.338 -1.1005 -1.6488 -1.0682
15872TIP3   OH269030   1.841   3.742  10.795 -0.0179  0.2265 -0.3212
15872TIP3    H169031   1.800   3.777  10.715  0.5757 -2.1339 -1.7449
15872TIP3    H269032   1.769   3.699  10.841 -0.4980  2.1240  0.8404
15873TIP3   OH269033   1.003   4.627   6.166  0.2007 -0.7428  0.3391
15873TIP3    H169034   0.951   4.558   6.125 -0.6205  0.4677 -0.7289
15873TIP3    H269035   1.088   4.623   6.122  0.9591 -2.4834  1.8320
15874TIP3   OH269036   1.577   2.082   0.355 -0.3714  0.4041  0.0438
15874TIP3    H169037   1.571   2.047   0.444  3.0253  0.5544  0.4442
15874TIP3    H269038   1.567   2.176   0.366 -0.6323  0.3637  0.1690
15875TIP3   OH269039   3.829   4.534   6.004  0.3654  0.0336  0.1806
15875TIP3    H169040   3.794   4.499   6.086 -0.7608  2.5193  0.8544
15875TIP3    H269041   3.924   4.532   6.016  0.4303 -2.8780  0.0462
15876TIP3   OH269042   6.523   6.244   0.614 -0.2560 -0.3677  0.2636
15876TIP3    H169043   6.585   6.177   0.584 -0.1929 -1.1558  2.0399
15876TIP3    H269044   6.445   6.231   0.560  0.1525 -1.1533 -0.1490
15877TIP3   OH269045   2.306   2.364  13.904  0.5267 -0.0881 -0.3765
15877TIP3    H169046   2.311   2.426  13.977  0.5763  0.9662 -1.2562
15877TIP3    H269047   2.334   2.280  13.942  0.9732  0.5310  0.7057
15878TIP3   OH269048   6.474   4.631   1.736  0.3171  0.0414 -0.0564
15878TIP3    H169049   6.456   4.704   1.794  0.8547  0.3744 -0.3061
15878TIP3    H269050   6.562   4.647   1.702  0.3433 -0.5859 -0.3091
15879TIP3   OH269051   6.111   0.096  16.967  0.0271  0.6075 -0.2254
15879TIP3    H169052   6.046   0.075  16.900 -0.7444  3.7116 -0.6052
15879TIP3    H269053   6.095   0.033  17.036 -1.9332 -0.1012 -1.2474
15880TIP3   OH269054   5.883   4.029  11.891 -0.4939 -0.1067  0.4518
15880TIP3    H169055   5.917   3.981  11.966  0.4297 -1.1359 -0.5816
15880TIP3    H269056   5.885   3.966  11.819  0.0276  1.2479 -0.7836
15881TIP3   OH269057   5.861   3.565   3.258  0.6806  0.5003  0.0245
15881TIP3    H169058   5.824   3.550   3.171 -1.3951 -0.7589  1.0398
15881TIP3    H269059   5.896   3.480   3.284  1.9324  1.0418  0.1692
15882TIP3   OH269060   0.561   1.210  13.664 -0.2124 -0.0878 -0.4393
15882TIP3    H169061   0.509   1.169  13.595  0.0379 -0.9606 -0.1384
15882TIP3    H269062   0.580   1.138  13.725 -0.2106  0.6072  0.4037
15883TIP3   OH269063   2.953   0.573   6.256  0.0766 -0.0800 -0.3580
15883TIP3    H169064   3.004   0.650   6.232  0.1837  0.0489  0.2775
15883TIP3    H269065   2.998   0.500   6.212  0.7735  0.0394  0.1314
15884TIP3   OH269066   4.451   2.236   1.566 -0.0154  0.0397  0.3160
15884TIP3    H169067   4.517   2.274   1.507 -0.0324  2.4455  1.7265
15884TIP3    H269068   4.498   2.222   1.648 -0.5936 -0.9282  0.4977
15885TIP3   OH269069   0.972   5.117   4.703 -0.0359  0.2422  0.2285
15885TIP3    H169070   0.879   5.105   4.723 -0.1397  4.1781  3.6070
15885TIP3    H269071   0.973   5.163   4.620 -0.9777 -0.7229 -0.3440
15886TIP3   OH269072   3.595   3.017   4.483  0.2507 -0.5543 -0.1574
15886TIP3    H169073   3.572   3.069   4.406 -0.1363 -1.0941 -0.4108
15886TIP3    H269074   3.690   3.012   4.480  0.2773 -0.0667 -0.2672
15887TIP3   OH269075   6.623   3.253   5.873 -0.1494 -0.2754  0.3138
15887TIP3    H169076   6.653   3.296   5.953 -3.2137 -0.1524  1.5122
15887TIP3    H269077   6.585   3.170   5.903 -2.6547  0.3923 -0.7466
15888TIP3   OH269078   5.474   4.218  11.616  0.4353  0.8431  0.7619
15888TIP3    H169079   5.551   4.221  11.559  1.1626 -1.1597  1.5565
15888TIP3    H269080   5.449   4.310  11.627  1.9952  1.4658 -0.4481
15889TIP3   OH269081   1.627   6.577   2.087  0.2593  0.5511  0.4370
15889TIP3    H169082   1.694   6.560   2.152  1.1828  0.8671 -0.4026
15889TIP3    H269083   1.668   6.638   2.025  0.2348 -1.4081 -1.6592
15890TIP3   OH269084   5.218   4.755   2.689 -0.2867 -0.1153  0.7302
15890TIP3    H169085   5.194   4.729   2.777 -2.1859  1.4884  0.7501
15890TIP3    H269086   5.244   4.847   2.697  0.2270 -0.1532 -0.2715
15891TIP3   OH269087   6.441   0.417  13.063 -0.5566  0.1310  0.2462
15891TIP3    H169088   6.517   0.436  13.008 -1.1427 -0.3865 -0.7842
15891TIP3    H269089   6.453   0.470  13.141  0.3766  0.7808 -0.3263
15892TIP3   OH269090   6.392   4.296  11.393  0.4446 -0.4034  0.4053
15892TIP3    H169091   6.327   4.361  11.365 -0.7743 -1.1789  1.3243
15892TIP3    H269092   6.461   4.302  11.328 -0.6018  0.3851 -0.6832
15893TIP3   OH269093   5.462   1.643  11.581 -0.1393  0.3339 -0.2460
15893TIP3    H169094   5.426   1.668  11.495 -2.4719 -0.5599  0.3783
15893TIP3    H269095   5.435   1.714  11.639  1.1832  0.7920 -0.1753
15894TIP3   OH269096   3.849   1.190  13.567 -0.2816  0.2738  1.1028
15894TIP3    H169097   3.928   1.181  13.515 -0.7991 -0.8222  0.4797
15894TIP3    H269098   3.879   1.185  13.658  0.2127 -1.7049  0.8729
15895TIP3   OH269099   3.914   2.253   5.149 -1.0337 -0.0460  0.1350
15895TIP3    H169100   3.999   2.216   5.128 -1.1603  0.1491 -0.7906
15895TIP3    H269101   3.929   2.306   5.227 -0.6267 -1.1677  0.8362
15896TIP3   OH269102   4.781   6.074  16.317  0.1944  0.0444  0.3132
15896TIP3    H169103   4.817   6.053  16.404 -0.7701 -3.6109 -0.0127
15896TIP3    H269104   4.842   6.034  16.255 -0.5995  0.1596 -0.5654
15897TIP3   OH269105   1.979   3.887  14.323  0.0998 -0.6101 -0.2994
15897TIP3    H169106   1.987   3.811  14.381 -0.8119 -0.5188 -0.0358
15897TIP3    H269107   1.983   3.963  14.382  1.5316 -0.4134 -0.6134
15898TIP3   OH269108   1.506   1.950  15.110 -0.1555  0.3254 -0.3622
15898TIP3    H169109   1.549   2.034  15.119  2.0480 -0.5670 -1.6158
15898TIP3    H269110   1.475   1.928  15.198  1.7424  1.1721  0.5516
15899TIP3   OH269111   3.275   4.341  11.336 -0.3633 -0.4947  0.9160
15899TIP3    H169112   3.340   4.311  11.272 -0.1330  1.3676  0.2094
15899TIP3    H269113   3.327   4.384  11.404 -0.7459  4.3626 -1.4110
15900TIP3   OH269114   4.854   3.924   0.669  0.1053  0.4849 -0.4664
15900TIP3    H169115   4.914   3.984   0.624 -0.5645  0.9789 -0.7216
15900TIP3    H269116   4.828   3.861   0.602  2.4898 -1.4745  0.3096
15901TIP3   OH269117   1.810   2.196  15.897 -0.2566  0.1503  0.4683
15901TIP3    H169118   1.794   2.286  15.867  1.2280 -0.0358 -1.0109
15901TIP3    H269119   1.892   2.201  15.945  0.5401 -0.6091 -0.7548
15902TIP3   OH269120   1.303   0.674  16.508 -0.5666 -0.6690 -0.0329
15902TIP3    H169121   1.276   0.616  16.436 -0.1782 -1.8648  0.7431
15902TIP3    H269122   1.357   0.740  16.466 -1.0510 -0.8359 -0.9625
15903TIP3   OH269123   0.880   5.964   4.076 -0.0539 -0.0955  0.1838
15903TIP3    H169124   0.825   5.925   4.008 -1.1570 -0.0869  1.0382
15903TIP3    H269125   0.817   6.003   4.138  0.9405  2.7770 -0.4489
15904TIP3   OH269126   3.442   4.184   6.625  0.0281 -0.0139  0.8224
15904TIP3    H169127   3.533   4.169   6.649 -0.5807 -0.9658  2.7321
15904TIP3    H269128   3.416   4.104   6.578  0.0588  0.0986  0.6111
15905TIP3   OH269129   0.863   6.494   4.800 -0.1860 -0.1977  0.0068
15905TIP3    H169130   0.862   6.587   4.821 -0.3227  0.0492 -1.0433
15905TIP3    H269131   0.948   6.464   4.832  0.0040  0.3654  0.0426
15906TIP3   OH269132   5.215   1.276  11.905 -0.3334 -0.0059 -0.7279
15906TIP3    H169133   5.297   1.315  11.875  0.4039 -1.7468 -1.0984
15906TIP3    H269134   5.166   1.260  11.824 -0.6304  0.1466 -0.5789
15907TIP3   OH269135   4.436   4.762  14.611  0.3733  0.1978  0.0160
15907TIP3    H169136   4.389   4.839  14.579 -1.0715 -0.0909  1.3632
15907TIP3    H269137   4.505   4.798  14.667  0.7450  0.5575 -0.6582
15908TIP3   OH269138   0.863   6.531  16.736 -0.2477 -0.4027 -0.1995
15908TIP3    H169139   0.849   6.590  16.662 -1.6576  0.4512  0.6847
15908TIP3    H269140   0.942   6.565  16.779 -0.3016  0.0392 -0.4443
15909TIP3   OH269141   3.980   4.198  10.885  0.1020  0.4388  0.2066
15909TIP3    H169142   4.059   4.160  10.922  0.9199 -0.1128 -1.9531
15909TIP3    H269143   3.926   4.122  10.860  0.0243  0.7441 -0.6037
15910TIP3   OH269144   3.627   5.188  11.369  0.0503 -0.1041  0.1216
15910TIP3    H169145   3.563   5.147  11.427  0.5880 -0.4909  0.4538
15910TIP3    H269146   3.624   5.281  11.393 -0.9871  0.0259 -0.4533
15911TIP3   OH269147   2.437   3.677   4.036 -0.5010 -0.1528  0.4709
15911TIP3    H169148   2.362   3.723   4.074 -0.7751 -1.0072  1.0143
15911TIP3    H269149   2.473   3.628   4.110  0.7499  0.4436  0.2699
15912TIP3   OH269150   0.632   6.123  11.180  0.0846 -0.6174  0.1359
15912TIP3    H169151   0.690   6.184  11.225 -0.6135 -0.6119  1.0536
15912TIP3    H269152   0.653   6.134  11.087  1.9128 -0.9984  0.4686
15913TIP3   OH269153   0.456   3.087   1.138  0.2764  0.5463  0.4264
15913TIP3    H169154   0.365   3.063   1.123  0.3577  0.2585  0.3991
15913TIP3    H269155   0.477   3.148   1.067  0.6571 -0.7870 -0.6264
15914TIP3   OH269156   6.426   6.207  11.569 -0.3194  0.8339  0.0129
15914TIP3    H169157   6.368   6.163  11.508  0.2210 -0.1970  0.2268
15914TIP3    H269158   6.394   6.297  11.571 -1.6519  0.3874 -0.1709
15915TIP3   OH269159   6.296   2.382  14.970  0.0918 -0.0311  0.1739
15915TIP3    H169160   6.243   2.426  15.037  0.8118 -1.8115  2.0318
15915TIP3    H269161   6.286   2.289  14.989  0.4239 -0.6021 -2.1854
15916TIP3   OH269162   1.528   3.989  13.318 -0.5550 -0.2044  0.8825
15916TIP3    H169163   1.544   3.925  13.388  1.3464 -0.2325  0.4872
15916TIP3    H269164   1.616   4.011  13.285 -1.2622  1.4426 -0.0427
15917TIP3   OH269165   4.047   1.346   0.239  0.5059  0.1511 -0.0217
15917TIP3    H169166   4.108   1.273   0.230  0.2481 -0.2452  1.2055
15917TIP3    H269167   4.077   1.392   0.317  0.6918  1.4131 -0.8041
15918TIP3   OH269168   3.846   0.640   5.958 -0.0442 -0.4734  0.0258
15918TIP3    H169169   3.817   0.615   6.045  1.1215 -0.4770  0.4363
15918TIP3    H269170   3.824   0.733   5.950 -2.7874 -1.1098 -0.8278
15919TIP3   OH269171   5.560   4.225  12.794 -0.6184  0.1563  0.1324
15919TIP3    H169172   5.650   4.248  12.768 -0.5049  0.8142  1.0634
15919TIP3    H269173   5.513   4.308  12.792 -0.7024  0.1706  1.5873
15920TIP3   OH269174   5.355   0.768  12.261  0.1105 -0.5926 -0.3136
15920TIP3    H169175   5.352   0.851  12.309 -0.5863 -0.9977  0.3657
15920TIP3    H269176   5.413   0.785  12.186 -0.4012  0.6451 -0.4491
15921TIP3   OH269177   5.780   2.898  15.362 -0.0451 -0.4593  0.0785
15921TIP3    H169178   5.823   2.983  15.362 -0.3874 -0.2789 -0.6468
15921TIP3    H269179   5.710   2.907  15.426  0.7095 -0.6176  0.9453
15922TIP3   OH269180   4.349   3.745  16.741  0.2729 -0.7665  0.2730
15922TIP3    H169181   4.353   3.783  16.653 -1.5247  1.7154  1.1169
15922TIP3    H269182   4.440   3.742  16.771  0.7637 -0.0305 -1.0656
15923TIP3   OH269183   0.255   3.338   0.584  0.4126 -0.0032  0.3120
15923TIP3    H169184   0.169   3.327   0.626 -0.0835 -1.7643 -0.9989
15923TIP3    H269185   0.235   3.379   0.500  0.9888  0.4745  0.4044
15924TIP3   OH269186   0.312   4.680   1.082  0.0721  0.3735  0.0097
15924TIP3    H169187   0.256   4.725   1.145 -0.8236 -0.9016  0.1562
15924TIP3    H269188   0.325   4.593   1.119  0.6481  0.0467 -0.9193
15925TIP3   OH269189   2.229   0.441  15.895 -0.4888  0.6053  0.3357
15925TIP3    H169190   2.184   0.390  15.962  0.1672  1.5343  1.5020
15925TIP3    H269191   2.299   0.383  15.864 -1.0632  0.0115  0.1150
15926TIP3   OH269192   0.452   0.377  11.761 -0.3021  0.3324 -0.1514
15926TIP3    H169193   0.485   0.294  11.729  0.8246  1.2983 -1.6398
15926TIP3    H269194   0.363   0.384  11.725  0.2841  0.5746 -1.6326
15927TIP3   OH269195   4.641   4.002   0.816 -0.2760 -0.4535  0.2275
15927TIP3    H169196   4.575   3.941   0.782 -0.1122 -0.2939 -0.3832
15927TIP3    H269197   4.725   3.967   0.786 -0.0424 -0.8465  1.2961
15928TIP3   OH269198   6.331   6.765  15.110  0.2221  0.8273 -0.5264
15928TIP3    H169199   6.323   6.815  15.029  0.6698 -0.5017 -1.4297
15928TIP3    H269200   6.278   6.687  15.095 -0.5088  1.0181  0.8668
15929TIP3   OH269201   4.049   6.315   4.823  0.4097  0.7408  0.0814
15929TIP3    H169202   4.003   6.236   4.793  0.2849  0.1113  1.8431
15929TIP3    H269203   4.141   6.299   4.802  0.2032  0.7763 -0.8920
15930TIP3   OH269204   2.859   3.739  16.759  0.3270  0.3548 -0.7054
15930TIP3    H169205   2.893   3.693  16.682 -0.7954 -1.5715 -0.1079
15930TIP3    H269206   2.884   3.684  16.833 -1.7387  0.2712 -0.0274
15931TIP3   OH269207   5.021   6.718  13.030 -0.3282  0.4296  0.0546
15931TIP3    H169208   5.096   6.706  13.089 -0.4969  0.9604  0.3938
15931TIP3    H269209   4.969   6.638  13.040  0.0602  0.1720  0.0173
15932TIP3   OH269210   2.046   5.602   3.714 -0.1168  0.1808  0.0323
15932TIP3    H169211   2.118   5.648   3.671 -0.0701  0.1856  0.1142
15932TIP3    H269212   2.080   5.514   3.731  0.8780  0.9651  2.5408
15933TIP3   OH269213   6.685   2.266  11.713 -0.2128 -0.5971 -0.2501
15933TIP3    H169214   6.670   2.357  11.739 -0.7884 -1.4612  2.8418
15933TIP3    H269215   6.648   2.260  11.625  0.2431  2.2257 -0.7426
15934TIP3   OH269216   1.161   5.701  12.824 -0.9343  0.3852 -0.0517
15934TIP3    H169217   1.102   5.775  12.840 -0.7811  0.4557  0.2003
15934TIP3    H269218   1.103   5.627  12.808 -1.0920  0.6722 -0.8616
15935TIP3   OH269219   3.488   2.104   5.445 -0.0024  0.1752 -0.8284
15935TIP3    H169220   3.555   2.133   5.383  0.8146 -0.8738 -0.4744
15935TIP3    H269221   3.471   2.181   5.500  0.2324  0.7198 -1.5095
15936TIP3   OH269222   5.673   6.065  12.347  0.0855  0.0018 -0.0177
15936TIP3    H169223   5.637   6.146  12.311 -2.9050 -0.5109  1.5590
15936TIP3    H269224   5.740   6.095  12.409 -1.3765  1.3764  0.9948
15937TIP3   OH269225   1.980   3.991   5.560  0.1642 -0.1215 -0.1781
15937TIP3    H169226   2.049   4.046   5.598 -1.4769  0.9339  1.4516
15937TIP3    H269227   1.930   3.959   5.635 -0.4881 -1.7447 -1.2519
15938TIP3   OH269228   6.134   1.620  13.415 -0.0797 -0.2515 -0.7786
15938TIP3    H169229   6.203   1.567  13.455 -0.2557  0.3008  0.2764
15938TIP3    H269230   6.138   1.597  13.322  1.0548 -0.7527 -0.6266
15939TIP3   OH269231   6.738   2.257  17.037  0.0545  0.3877 -0.4781
15939TIP3    H169232   6.734   2.333  16.979 -0.7730  0.7079 -0.0285
15939TIP3    H269233   6.659   2.207  17.017  0.3840 -0.1404 -0.4784
15940TIP3   OH269234   6.336   2.208   5.566  0.2046 -0.1459  0.0939
15940TIP3    H169235   6.328   2.176   5.655 -1.0340  0.4258  0.2003
15940TIP3    H269236   6.364   2.299   5.575 -0.4409  0.0758 -0.0723
15941TIP3   OH269237   4.327   1.415  13.371 -0.2773 -0.5190  0.2258
15941TIP3    H169238   4.374   1.332  13.371  1.5788  0.4749 -0.0326
15941TIP3    H269239   4.373   1.469  13.307 -1.1645  0.8755  0.7079
15942TIP3   OH269240   5.334   1.366   2.601 -0.6107  0.3287 -0.3781
15942TIP3    H169241   5.250   1.412   2.603 -0.5401  0.4510 -0.2525
15942TIP3    H269242   5.389   1.412   2.665 -0.2453  0.6481 -0.9092
15943TIP3   OH269243   1.241   4.508   2.949  0.2026  0.2004  0.3684
15943TIP3    H169244   1.201   4.432   2.991  1.7272 -0.9116 -0.0550
15943TIP3    H269245   1.215   4.501   2.857  1.7190 -0.8683 -0.0337
15944TIP3   OH269246   3.789   5.887  16.213  0.4987 -0.2500  0.2750
15944TIP3    H169247   3.738   5.968  16.209 -0.9282 -1.0061  1.9686
15944TIP3    H269248   3.839   5.894  16.295 -0.2672 -1.4111  0.8651
15945TIP3   OH269249   2.075   2.211   1.393  1.0735 -0.1091 -0.3417
15945TIP3    H169250   2.095   2.284   1.452  2.4327 -0.5867 -0.1701
15945TIP3    H269251   2.022   2.151   1.446  0.4650  0.4619 -0.2962
15946TIP3   OH269252   1.117   4.407   3.216  0.8441  0.4502 -0.2285
15946TIP3    H169253   1.080   4.369   3.296 -0.8208 -0.3859 -1.3376
15946TIP3    H269254   1.146   4.494   3.242  0.4560  0.1511  1.3074
15947TIP3   OH269255   2.686   1.719   0.517  0.1445  0.1665  0.3697
15947TIP3    H169256   2.691   1.638   0.567 -2.5726 -0.0532  0.4505
15947TIP3    H269257   2.593   1.742   0.517  0.3054  1.3407 -2.7289
15948TIP3   OH269258   5.212   0.419  17.065  0.0061  0.4699  0.1454
15948TIP3    H169259   5.187   0.384  16.980 -0.9417  1.0424  0.1741
15948TIP3    H269260   5.130   0.448  17.104  0.4983  0.7228  1.0268
15949TIP3   OH269261   5.678   4.349  13.779 -0.2078 -0.3890 -0.4772
15949TIP3    H169262   5.742   4.323  13.713 -0.7868  2.5732 -2.3975
15949TIP3    H269263   5.728   4.354  13.860  0.9513 -2.3529 -1.0149
15950TIP3   OH269264   6.640   5.290  16.312 -0.0230  0.1319  0.3438
15950TIP3    H169265   6.689   5.231  16.255  0.5046  0.0015  0.9118
15950TIP3    H269266   6.630   5.242  16.394 -0.7133  0.3401  0.3835
15951TIP3   OH269267   5.064   4.335   6.012  0.0338  0.2214  0.0005
15951TIP3    H169268   5.014   4.321   6.092 -1.0361  0.0808 -0.6737
15951TIP3    H269269   5.011   4.295   5.943  1.2088 -0.1606 -0.7078
15952TIP3   OH269270   3.096   4.316  13.253 -0.1307 -0.3878 -0.0061
15952TIP3    H169271   3.021   4.336  13.309 -0.7653 -1.9237 -0.2605
15952TIP3    H269272   3.106   4.221  13.259  1.1173 -0.3374 -0.8479
15953TIP3   OH269273   5.912   2.192  15.772  0.1877  0.5139 -0.2094
15953TIP3    H169274   5.950   2.216  15.688 -0.5895  0.8024 -0.4876
15953TIP3    H269275   5.986   2.197  15.833  0.4993  1.5958 -0.6373
15954TIP3   OH269276   1.643   1.607   5.368 -0.2008 -0.6909  0.0157
15954TIP3    H169277   1.570   1.603   5.306 -1.9184  0.3446  1.8389
15954TIP3    H269278   1.638   1.696   5.404  0.4744 -1.3743  1.9065
15955TIP3   OH269279   1.162   1.877  11.565  0.6100 -0.1758  0.0350
15955TIP3    H169280   1.195   1.967  11.565  1.8834 -0.5753 -1.6543
15955TIP3    H269281   1.163   1.851  11.657  3.3335  0.5080  0.3034
15956TIP3   OH269282   1.559   4.014  11.786  0.8796 -0.4110 -0.2029
15956TIP3    H169283   1.515   3.931  11.803 -0.5726  0.6754  1.7160
15956TIP3    H269284   1.566   4.018  11.691 -2.3950 -1.0886 -0.5814
15957TIP3   OH269285   2.917   5.688  13.458 -0.2612 -0.4762 -0.0596
15957TIP3    H169286   2.909   5.598  13.490  0.1405 -0.0684  1.2396
15957TIP3    H269287   2.917   5.742  13.537  0.7091  0.5778 -0.7454
15958TIP3   OH269288   6.160   4.302  11.600  0.4711 -0.3132  0.4198
15958TIP3    H169289   6.123   4.327  11.685 -0.2905 -1.0168  0.3100
15958TIP3    H269290   6.254   4.312  11.611  0.2748  2.3058  0.4569
15959TIP3   OH269291   4.187   6.735  13.836  0.4161 -0.0239  0.3295
15959TIP3    H169292   4.252   6.726  13.907 -1.6965 -0.9623  2.2732
15959TIP3    H269293   4.152   6.823  13.847  0.8864  0.2547 -0.3277
15960TIP3   OH269294   0.484   0.708   0.799 -0.5061 -0.2174 -0.0139
15960TIP3    H169295   0.509   0.671   0.883  2.3071  1.2549 -0.0904
15960TIP3    H269296   0.511   0.642   0.735 -0.4774 -0.3395  0.1242
15961TIP3   OH269297   6.266   0.933  12.246 -0.6253 -0.4973  0.0040
15961TIP3    H169298   6.319   0.893  12.177 -1.0430 -0.2373 -0.4681
15961TIP3    H269299   6.330   0.974  12.304 -0.2449 -1.0972  0.0206
15962TIP3   OH269300   5.056   6.174  13.562  0.1686  0.4776 -0.4153
15962TIP3    H169301   4.990   6.159  13.494  1.8594 -1.1739 -1.7886
15962TIP3    H269302   5.138   6.146  13.522  1.4085  0.5287  1.9470
15963TIP3   OH269303   1.098   6.360   0.797 -0.5260  0.7633  0.5752
15963TIP3    H169304   1.029   6.304   0.833  1.4003 -0.6674  2.2755
15963TIP3    H269305   1.142   6.304   0.733  0.7213  0.7019  1.4711
15964TIP3   OH269306   0.735   0.964  11.784  0.0652 -0.0321 -0.1556
15964TIP3    H169307   0.743   0.979  11.690 -1.9745 -0.3295 -0.4160
15964TIP3    H269308   0.825   0.945  11.813  1.0501  1.8827 -1.6799
15965TIP3   OH269309   0.639   6.461   1.050 -0.0587 -0.4275  0.2693
15965TIP3    H169310   0.622   6.536   1.107  0.4260 -1.1461  1.3842
15965TIP3    H269311   0.555   6.417   1.041 -0.2957  0.1049 -0.2028
15966TIP3   OH269312   4.886   3.352  12.990 -0.4602  0.6575 -0.5214
15966TIP3    H169313   4.809   3.380  13.038 -0.3736  1.8500 -1.0289
15966TIP3    H269314   4.918   3.275  13.037 -3.1309 -1.1959 -1.4924
15967TIP3   OH269315   1.509   6.498  13.917 -0.3926  0.2921  0.6551
15967TIP3    H169316   1.460   6.561  13.865 -1.3702  1.0778  2.4545
15967TIP3    H269317   1.601   6.517  13.897 -0.7359  0.0895 -1.2716
15968TIP3   OH269318   5.220   1.351   1.334 -0.4027  0.2010  0.2403
15968TIP3    H169319   5.261   1.355   1.247  0.7184 -1.3720  0.6644
15968TIP3    H269320   5.213   1.258   1.353 -1.1585  0.5177  1.6161
15969TIP3   OH269321   1.113   1.463   0.803 -0.3816  0.3538  0.4693
15969TIP3    H169322   1.202   1.427   0.807 -0.6203 -0.8978 -2.5860
15969TIP3    H269323   1.056   1.391   0.830 -0.6555 -0.6095 -2.3483
15970TIP3   OH269324   5.526   4.156  13.329  0.0348 -0.4485 -0.0843
15970TIP3    H169325   5.589   4.223  13.302  0.3291 -0.6913 -0.0107
15970TIP3    H269326   5.506   4.177  13.420 -0.9412  0.3578 -0.4677
15971TIP3   OH269327   4.104   4.340  12.572  0.3654  0.0916  0.4971
15971TIP3    H169328   4.191   4.322  12.606 -0.1626 -1.0388  1.3291
15971TIP3    H269329   4.117   4.355  12.478  1.4528 -0.0091  0.6219
15972TIP3   OH269330   5.641   4.330   6.602 -0.8197  0.1099  0.3452
15972TIP3    H169331   5.704   4.299   6.536 -0.9958  0.2997  0.0849
15972TIP3    H269332   5.626   4.254   6.658  0.2364  0.2783  0.8879
15973TIP3   OH269333   3.613   4.176  11.080  0.3289  0.0163 -0.5053
15973TIP3    H169334   3.585   4.103  11.025 -0.0723 -0.6161  0.5075
15973TIP3    H269335   3.541   4.239  11.073  0.9409  0.6159 -1.8540
15974TIP3   OH269336   4.640   1.966  12.225  0.3133 -0.2647  0.0233
15974TIP3    H169337   4.726   2.004  12.245  0.5793 -1.5062  1.3935
15974TIP3    H269338   4.655   1.871  12.226 -1.3394 -0.5715  1.7550
15975TIP3   OH269339   3.549   2.268  16.632 -0.3014  0.6971 -0.4555
15975TIP3    H169340   3.581   2.178  16.623 -0.3767  0.6609 -0.3651
15975TIP3    H269341   3.614   2.322  16.587 -1.2818  0.4080 -2.2792
15976TIP3   OH269342   3.944   4.574  12.607 -0.1715 -0.1462  0.2580
15976TIP3    H169343   3.998   4.500  12.635  0.4783  0.1977 -0.0818
15976TIP3    H269344   3.973   4.647  12.662 -0.2274  0.0608  0.0146
15977TIP3   OH269345   1.418   0.335   1.514  0.5727  0.2497  0.4089
15977TIP3    H169346   1.426   0.355   1.607 -1.6938 -0.6847  0.8728
15977TIP3    H269347   1.433   0.241   1.508 -1.5331 -0.1152  0.2171
15978TIP3   OH269348   6.737   4.181  14.150 -0.1130 -0.1087  0.0186
15978TIP3    H169349   6.655   4.221  14.123 -0.6146 -0.7095  0.6231
15978TIP3    H269350   6.748   4.206  14.242  0.5460  0.2293 -0.1421
15979TIP3   OH269351   5.854   6.347   2.651  0.2237  0.0868 -0.6811
15979TIP3    H169352   5.790   6.416   2.636  0.0297 -0.1562 -0.9902
15979TIP3    H269353   5.938   6.393   2.656  0.0958  0.3428 -0.8768
15980TIP3   OH269354   3.332   6.646   5.893 -0.4883  0.6357  0.1938
15980TIP3    H169355   3.368   6.565   5.857 -0.4543  0.3585  0.8494
15980TIP3    H269356   3.257   6.618   5.945 -0.7334  1.0664  0.0796
15981TIP3   OH269357   0.020   5.752   4.055 -0.6766 -0.6846  0.4046
15981TIP3    H169358   0.040   5.732   3.963 -0.9642 -2.0100  0.6097
15981TIP3    H269359   0.066   5.684   4.105  1.3472  1.2830  1.4280
15982TIP3   OH269360   0.442   3.315   3.900  0.2161  0.5245 -0.0316
15982TIP3    H169361   0.469   3.382   3.836  0.7953  0.8846  0.5830
15982TIP3    H269362   0.521   3.296   3.950 -0.5083  1.0875  1.3547
15983TIP3   OH269363   0.039   6.547   2.439  0.2791 -0.0416  0.3529
15983TIP3    H169364  -0.009   6.627   2.418 -0.8233 -1.2617 -2.1452
15983TIP3    H269365   0.081   6.521   2.357  0.4644 -2.1024  1.0426
15984TIP3   OH269366   2.261   1.206   3.871 -0.4081  0.7350  0.8048
15984TIP3    H169367   2.181   1.246   3.905 -0.1536  1.1819  0.8940
15984TIP3    H269368   2.233   1.121   3.837 -0.9208  0.8913  0.8228
15985TIP3   OH269369   0.567   4.426  12.166  0.5820 -0.2418 -0.1691
15985TIP3    H169370   0.619   4.490  12.117  1.1863 -0.8436 -0.3300
15985TIP3    H269371   0.601   4.432  12.255 -0.5830  0.9223  0.2409
15986TIP3   OH269372   2.998   3.117  10.951 -0.0481 -0.2072  0.5366
15986TIP3    H169373   3.024   3.034  10.913  0.7042  1.0286 -1.8818
15986TIP3    H269374   2.905   3.106  10.972 -0.1661 -1.3994 -0.5204
15987TIP3   OH269375   6.592   0.858  17.260  0.1162 -0.0970 -0.1561
15987TIP3    H169376   6.619   0.795  17.327  0.5682 -0.5706 -0.7706
15987TIP3    H269377   6.630   0.941  17.288 -0.4409 -0.0983  0.6314
15988TIP3   OH269378   1.128   2.389   6.394 -0.5085 -0.0765 -0.0645
15988TIP3    H169379   1.114   2.479   6.363 -1.3811  0.0192  0.5546
15988TIP3    H269380   1.203   2.396   6.453 -0.5529  0.2530 -0.0401
15989TIP3   OH269381   5.023   5.439  11.945  0.2732 -0.8161  0.0417
15989TIP3    H169382   5.017   5.396  11.860 -1.0040  1.3589 -1.0511
15989TIP3    H269383   5.042   5.531  11.924  0.4175 -0.3226  2.1272
15990TIP3   OH269384   3.836   5.521   6.314  0.6050  0.2850 -0.0002
15990TIP3    H169385   3.811   5.444   6.365 -0.8788  1.5630  1.3190
15990TIP3    H269386   3.905   5.562   6.366  0.3589  0.6335  0.0501
15991TIP3   OH269387   0.074   1.011  13.504 -0.6797 -0.5244 -0.3022
15991TIP3    H169388   0.068   0.920  13.474 -2.1183  0.0818 -2.0257
15991TIP3    H269389  -0.004   1.024  13.558 -0.7282 -0.1755 -0.4542
15992TIP3   OH269390   2.924   5.925   1.204  0.1772 -0.3389 -0.0135
15992TIP3    H169391   2.893   5.967   1.284  1.1491  1.3591 -0.4713
15992TIP3    H269392   2.853   5.937   1.142 -0.7892 -2.1085  0.6935
15993TIP3   OH269393   2.201   2.911  14.658 -0.1695 -0.3064 -0.3252
15993TIP3    H169394   2.139   2.959  14.714  0.2098 -0.3233  0.1195
15993TIP3    H269395   2.159   2.909  14.572 -0.1277  0.9842 -0.4070
15994TIP3   OH269396   5.417   1.013   3.311 -0.1542 -0.9954  0.1005
15994TIP3    H169397   5.488   1.038   3.369 -0.3273 -1.0183  0.3269
15994TIP3    H269398   5.372   1.095   3.290  1.6619 -0.5429 -2.4006
15995TIP3   OH269399   1.366   1.678   1.504 -0.2926 -0.3639 -0.0168
15995TIP3    H169400   1.411   1.624   1.438 -0.6900  0.8844 -1.3561
15995TIP3    H269401   1.273   1.662   1.488 -0.3975  0.1358  0.0947
15996TIP3   OH269402   1.465   4.691   4.320 -0.0268  0.5278 -0.0028
15996TIP3    H169403   1.481   4.766   4.262  2.2562  0.6257  0.6535
15996TIP3    H269404   1.416   4.727   4.394  2.4288  1.8251  1.1066
15997TIP3   OH269405   2.092   3.200   5.998 -0.5606 -0.6430 -0.0880
15997TIP3    H169406   2.101   3.171   5.907 -0.8216 -4.0255  0.8184
15997TIP3    H269407   2.158   3.268   6.008 -0.8599  0.1739 -2.8976
15998TIP3   OH269408   6.419   0.855   4.134 -0.0965  0.9160  0.0183
15998TIP3    H169409   6.411   0.951   4.140 -0.2084  0.9740 -0.9079
15998TIP3    H269410   6.485   0.841   4.066  1.2326  0.3339  1.3613
15999TIP3   OH269411   6.071   4.579  12.167 -0.1905 -0.8085  0.1493
15999TIP3    H169412   6.116   4.590  12.084  0.4482 -0.9838  0.4720
15999TIP3    H269413   6.041   4.668  12.189 -2.6353 -1.1145 -1.5106
16000TIP3   OH269414   1.463   4.023   2.915 -0.0088 -0.2527  0.1476
16000TIP3    H169415   1.441   3.982   2.999  0.3397 -3.2022 -1.0900
16000TIP3    H269416   1.557   4.037   2.919  0.6129 -3.3915 -0.8259
16001TIP3   OH269417   6.542   2.935   4.930  0.4380 -0.1013  0.6016
16001TIP3    H169418   6.621   2.967   4.887  0.1651  2.3677  1.7792
16001TIP3    H269419   6.574   2.889   5.008  0.7529  1.7548  1.6198
16002TIP3   OH269420   1.952   4.459   0.729 -0.1168  0.6948 -0.6745
16002TIP3    H169421   2.044   4.472   0.753  1.1696 -1.4692 -3.7455
16002TIP3    H269422   1.939   4.516   0.653 -0.5990 -0.6168 -1.6068
16003TIP3   OH269423   3.828   0.616  10.737  0.4767 -0.1527 -0.7639
16003TIP3    H169424   3.796   0.696  10.695 -1.6619  0.2743  1.4741
16003TIP3    H269425   3.898   0.646  10.795  0.2454 -0.0611 -0.5374
16004TIP3   OH269426   2.385   5.992   0.330  0.2679 -0.2462  0.0409
16004TIP3    H169427   2.399   5.926   0.263  1.2336 -0.3783  0.3443
16004TIP3    H269428   2.439   6.066   0.302 -1.0356  0.5439 -0.4502
16005TIP3   OH269429   6.717   2.755  13.416  0.0114  0.3617  0.4205
16005TIP3    H169430   6.635   2.765  13.464 -0.1495 -2.1975  0.7879
16005TIP3    H269431   6.760   2.680  13.455  0.9500 -0.4379 -1.9356
16006TIP3   OH269432   4.619   5.056  15.505 -0.5558  0.3294  0.2560
16006TIP3    H169433   4.637   4.994  15.575 -1.7474  1.1496  1.3540
16006TIP3    H269434   4.705   5.080  15.470 -0.0332 -1.2147  0.4136
16007TIP3   OH269435   0.980   1.972  16.095  0.5642  0.1002  0.1460
16007TIP3    H169436   0.979   1.910  16.023 -0.4043  1.2902 -0.9225
16007TIP3    H269437   1.015   1.923  16.169 -2.1231 -2.3639 -0.0566
16008TIP3   OH269438   3.380   5.506  14.481 -0.4516  0.6438 -0.2201
16008TIP3    H169439   3.351   5.585  14.527 -1.5198 -0.1645  0.5575
16008TIP3    H269440   3.469   5.526  14.453 -1.1870  2.6650 -1.3476
16009TIP3   OH269441   0.818   3.512   4.615 -0.2776  0.2132 -0.3859
16009TIP3    H169442   0.892   3.517   4.676  0.2464 -1.4163 -0.8376
16009TIP3    H269443   0.854   3.542   4.532 -0.1460 -0.4526 -0.5752
16010TIP3   OH269444   3.702   0.783  17.178  0.1539  0.4884  0.2825
16010TIP3    H169445   3.673   0.865  17.139  0.0147 -0.5151 -1.8632
16010TIP3    H269446   3.767   0.749  17.117  0.7287 -0.6759  1.4874
16011TIP3   OH269447   4.000   3.723  14.491 -0.0527 -0.4380  0.2799
16011TIP3    H169448   4.032   3.766  14.570  1.7169 -0.6449 -0.2825
16011TIP3    H269449   4.001   3.792  14.425 -2.2627 -0.0649  0.5594
16012TIP3   OH269450   2.600   0.474   2.033 -0.2392  0.2970 -0.0453
16012TIP3    H169451   2.656   0.447   1.961  1.3673 -2.6832  2.0931
16012TIP3    H269452   2.511   0.452   2.004  0.1414  0.9107 -1.7646
16013TIP3   OH269453   2.278   1.023   2.528  0.1326 -0.0411 -0.5152
16013TIP3    H169454   2.323   1.041   2.610  0.0304 -1.1899 -0.1922
16013TIP3    H269455   2.186   1.044   2.546  0.6042  3.8262 -1.6293
16014TIP3   OH269456   1.701   4.987  14.723  0.3530 -0.1261 -0.2059
16014TIP3    H169457   1.621   4.965  14.677  0.6592 -0.8304 -0.4213
16014TIP3    H269458   1.745   4.902  14.736  0.7577  0.1789  0.4587
16015TIP3   OH269459   4.001   4.989   5.122  0.1467 -0.1231  0.4097
16015TIP3    H169460   4.055   5.034   5.186 -0.1995 -0.2033  0.7588
16015TIP3    H269461   4.034   4.899   5.122  2.7790  0.6794 -2.3443
16016TIP3   OH269462   0.987   3.076   4.032 -0.2293  0.1778  0.3879
16016TIP3    H169463   0.964   3.022   3.956 -2.8928 -0.0037  1.2328
16016TIP3    H269464   0.910   3.073   4.088  0.5775  2.6412  1.7755
16017TIP3   OH269465   0.728   4.193   5.984  0.4714  0.4164  0.3178
16017TIP3    H169466   0.686   4.135   6.047  0.5846 -0.4971 -0.4337
16017TIP3    H269467   0.656   4.240   5.942  0.3260  0.2165  0.3466
16018TIP3   OH269468   0.558   3.780  15.865  0.1526  0.0578 -0.5125
16018TIP3    H169469   0.505   3.832  15.926 -0.2678 -1.1917  0.2285
16018TIP3    H269470   0.637   3.758  15.914  0.2992 -0.0467 -0.7950
16019TIP3   OH269471   0.971   2.778   4.248  0.1081 -0.5677 -0.5423
16019TIP3    H169472   0.942   2.869   4.254 -0.1811 -0.5677 -1.7270
16019TIP3    H269473   1.067   2.784   4.240  0.0069 -0.2871 -1.7801
16020TIP3   OH269474   0.118   0.340   1.588 -0.2139 -0.7618 -0.1009
16020TIP3    H169475   0.119   0.413   1.527  0.0961 -0.2516  0.4985
16020TIP3    H269476   0.087   0.378   1.670  2.8371 -0.5596  1.0875
16021TIP3   OH269477   6.113   5.574   1.046 -0.6480  0.2289  0.4363
16021TIP3    H169478   6.119   5.656   1.094 -1.5740  0.6412 -0.1242
16021TIP3    H269479   6.091   5.509   1.113  2.7160 -0.1271  1.3713
16022TIP3   OH269480   3.420   5.419   3.043  0.2883 -0.3422  0.3642
16022TIP3    H169481   3.477   5.349   3.011  0.5399  0.3763 -0.8483
16022TIP3    H269482   3.474   5.498   3.036 -0.2088  0.0638  1.0648
16023TIP3   OH269483   1.030   0.050   5.635 -0.7474 -0.0032  0.2327
16023TIP3    H169484   0.939   0.023   5.625 -0.6850 -0.4904  0.8925
16023TIP3    H269485   1.047   0.106   5.560 -1.5365 -0.0576  0.0054
16024TIP3   OH269486   2.624   5.822  12.919 -0.0883  0.4655  0.1496
16024TIP3    H169487   2.679   5.888  12.961 -0.2210 -0.2279  1.4308
16024TIP3    H269488   2.534   5.845  12.944 -0.0900 -0.5511  1.1349
16025TIP3   OH269489   0.895   3.890   1.502  0.2864  0.2414  0.4458
16025TIP3    H169490   0.905   3.922   1.412 -0.0632 -1.5363 -0.2675
16025TIP3    H269491   0.930   3.801   1.500  0.8371  0.3847  2.2375
16026TIP3   OH269492   6.751   4.639  11.734 -0.0473  0.1683  0.2686
16026TIP3    H169493   6.761   4.635  11.829 -0.1487 -1.7622  0.2425
16026TIP3    H269494   6.841   4.643  11.701  0.0105  0.1845  0.4260
16027TIP3   OH269495   1.601   0.792  16.457 -0.4374 -0.3408 -0.3899
16027TIP3    H169496   1.673   0.838  16.412 -0.2396  0.7963  1.0000
16027TIP3    H269497   1.526   0.851  16.448 -0.5623 -0.4055  0.1913
16028TIP3   OH269498   5.621   3.089  11.984  0.0904 -0.3644  0.3446
16028TIP3    H169499   5.536   3.123  11.959 -0.0137 -1.9197 -1.6338
16028TIP3    H269500   5.666   3.163  12.024 -2.1321  0.4973  1.4031
16029TIP3   OH269501   3.004   2.557   0.361 -0.1870 -0.0790 -0.0907
16029TIP3    H169502   2.980   2.626   0.422  0.6253 -0.1375  0.3015
16029TIP3    H269503   3.073   2.595   0.307 -0.5073 -0.2166 -0.6134
16030TIP3   OH269504   0.586   6.563  14.874 -0.9164  0.2814  0.0417
16030TIP3    H169505   0.637   6.487  14.901 -0.4666  0.7574  0.5418
16030TIP3    H269506   0.622   6.587  14.789  1.0951  1.8325  1.2570
16031TIP3   OH269507   1.277   5.609   1.708  0.0676 -0.8121  0.3433
16031TIP3    H169508   1.245   5.688   1.663  0.3647 -2.1130 -2.3499
16031TIP3    H269509   1.199   5.553   1.716  0.1349 -0.8202  0.9786
16032TIP3   OH269510   4.489   3.256   2.465 -0.0553 -0.2462  0.2139
16032TIP3    H169511   4.520   3.232   2.378  2.1510  1.2129  0.5161
16032TIP3    H269512   4.427   3.328   2.450 -1.0699 -1.1694 -0.2040
16033TIP3   OH269513   6.293   5.370   0.571  0.3223  0.0433 -0.0545
16033TIP3    H169514   6.230   5.349   0.640  1.3073  0.3094  0.9600
16033TIP3    H269515   6.367   5.408   0.617  1.5063 -0.8605 -1.1447
16034TIP3   OH269516   1.596   3.756   1.707 -0.6036 -0.8790 -0.4420
16034TIP3    H169517   1.627   3.755   1.797 -1.7573 -0.1701 -0.0065
16034TIP3    H269518   1.650   3.822   1.664  0.3037 -1.5897 -0.4179
16035TIP3   OH269519   5.287   5.824   5.235 -0.6104  0.1209  0.2967
16035TIP3    H169520   5.289   5.762   5.308 -0.9161  1.4451  1.4769
16035TIP3    H269521   5.378   5.826   5.203 -0.7920 -1.6865 -0.4804
16036TIP3   OH269522   4.180   1.241   4.019 -0.7979 -0.2802  0.1301
16036TIP3    H169523   4.257   1.254   4.073 -1.8364  0.0001  1.6015
16036TIP3    H269524   4.182   1.148   3.996 -0.9173 -0.6683  1.6041
16037TIP3   OH269525   4.425   1.282  10.385  0.9603  0.0166 -0.1465
16037TIP3    H169526   4.348   1.317  10.340 -0.7539  1.4811  3.4668
16037TIP3    H269527   4.475   1.359  10.411  2.1403 -0.7689  0.0091
16038TIP3   OH269528   6.390   2.041  12.742  0.4754  0.2846 -0.5259
16038TIP3    H169529   6.384   2.094  12.663  2.1699  0.5061 -0.5387
16038TIP3    H269530   6.345   1.960  12.720  1.3226  0.1573 -1.9025
16039TIP3   OH269531   5.248   5.049   3.435  0.0117 -0.1543  0.5416
16039TIP3    H169532   5.158   5.080   3.424 -0.2455  0.5153  3.4659
16039TIP3    H269533   5.300   5.129   3.441  0.8578 -0.5441 -1.2350
16040TIP3   OH269534   0.250   0.116   0.274  0.3159  0.0684  0.7927
16040TIP3    H169535   0.278   0.203   0.302  0.4018 -0.1455  1.3896
16040TIP3    H269536   0.312   0.056   0.316  0.8162 -0.2336 -0.3491
16041TIP3   OH269537   4.126   2.708  12.206 -0.0034 -0.3696 -0.5689
16041TIP3    H169538   4.094   2.639  12.149 -2.5008  0.0997  0.1726
16041TIP3    H269539   4.104   2.680  12.294 -2.4368  1.9182 -0.3203
16042TIP3   OH269540   1.630   6.177   6.214  0.0415  0.1540  0.3371
16042TIP3    H169541   1.557   6.195   6.273  0.0366 -0.8519  0.6615
16042TIP3    H269542   1.698   6.239   6.240 -0.1463  0.0600  1.0771
16043TIP3   OH269543   2.268   5.773   3.068 -0.0476  0.3463  0.3681
16043TIP3    H169544   2.336   5.788   3.002 -0.6383  0.6036 -0.1935
16043TIP3    H269545   2.270   5.850   3.123 -0.4727  0.7660 -0.1868
16044TIP3   OH269546   0.443   1.910   1.764  0.0492  0.2434 -0.1546
16044TIP3    H169547   0.473   1.986   1.813 -0.8574  1.6972 -1.7392
16044TIP3    H269548   0.353   1.896   1.795 -0.1490  0.4980 -0.5950
16045TIP3   OH269549   0.326   6.428   5.312  0.1542  0.1951  0.2621
16045TIP3    H169550   0.412   6.469   5.301  0.5410 -0.5622  0.4026
16045TIP3    H269551   0.342   6.335   5.296 -0.7232  0.1029 -0.1353
16046TIP3   OH269552   4.926   6.737   4.879 -0.4589 -0.3210 -0.2366
16046TIP3    H169553   4.841   6.760   4.916 -1.4559 -2.0284 -1.3753
16046TIP3    H269554   4.947   6.652   4.918  1.1443  0.4187  0.6291
16047TIP3   OH269555   2.499   4.866   3.940 -0.3889  0.2601  0.0423
16047TIP3    H169556   2.472   4.955   3.962 -1.3643 -0.3895  1.6605
16047TIP3    H269557   2.491   4.818   4.023  1.4596 -1.0238 -0.4728
16048TIP3   OH269558   1.677   2.251   2.510 -0.7208  0.4431 -0.2504
16048TIP3    H169559   1.752   2.272   2.565 -2.0272  1.6253  1.1963
16048TIP3    H269560   1.686   2.158   2.489 -0.1729 -0.0650  2.0197
16049TIP3   OH269561   2.642   5.264   5.958 -0.1089 -0.2746  0.0427
16049TIP3    H169562   2.640   5.333   6.023 -0.4970 -0.4923  0.2664
16049TIP3    H269563   2.661   5.184   6.008 -1.1687 -0.5629  0.0118
16050TIP3   OH269564   5.392   2.508  14.302 -0.2004 -0.1770  0.0401
16050TIP3    H169565   5.344   2.473  14.377 -0.3254  0.6451  0.3522
16050TIP3    H269566   5.463   2.559  14.340 -0.6534  0.7899 -0.3890
16051TIP3   OH269567   0.939   4.367   5.759 -0.0420  0.8440  0.1550
16051TIP3    H169568   0.869   4.429   5.781 -1.3048 -0.5587  0.2531
16051TIP3    H269569   0.949   4.313   5.838  1.3802  1.2069  0.2467
16052TIP3   OH269570   2.598   5.886  12.605 -0.1022 -0.2459 -0.2972
16052TIP3    H169571   2.652   5.869  12.528 -0.9395 -0.3411 -0.8797
16052TIP3    H269572   2.621   5.816  12.667  1.6517  0.6807  0.1543
16053TIP3   OH269573   1.494   4.941   5.842 -0.8795 -0.4279  0.1497
16053TIP3    H169574   1.421   4.947   5.781 -1.7459  0.5916  1.2186
16053TIP3    H269575   1.461   4.889   5.915 -0.6350  0.2147  0.7392
16054TIP3   OH269576   2.294   3.015  16.773 -0.6730  0.1860 -0.2988
16054TIP3    H169577   2.227   2.949  16.790 -0.5097 -0.1222 -0.8547
16054TIP3    H269578   2.253   3.075  16.711 -0.9358  0.7982  0.4431
16055TIP3   OH269579   0.906   2.473  12.762  0.3718 -0.4385  0.6724
16055TIP3    H169580   0.978   2.529  12.793  0.9630 -1.2570  0.8063
16055TIP3    H269581   0.947   2.417  12.696 -0.3966 -0.1705 -0.0372
16056TIP3   OH269582   1.487   1.522  16.017 -0.9073 -0.2004  0.1686
16056TIP3    H169583   1.565   1.518  15.962 -0.5096 -2.4882  0.7873
16056TIP3    H269584   1.506   1.589  16.082 -0.1701  0.4562 -0.7051
16057TIP3   OH269585   4.484   5.515  11.401 -0.1688 -0.3121 -0.5207
16057TIP3    H169586   4.458   5.567  11.477  0.6713  1.0860 -1.1554
16057TIP3    H269587   4.443   5.560  11.327  0.8975 -0.3247 -1.1279
16058TIP3   OH269588   2.593   5.174  12.956 -0.3601  0.1362 -0.4260
16058TIP3    H169589   2.522   5.167  13.021 -3.1884  0.5540 -3.2191
16058TIP3    H269590   2.632   5.260  12.971 -0.2523 -0.1797  1.2937
16059TIP3   OH269591   2.771   4.862  11.251 -0.2199  0.8443  0.2964
16059TIP3    H169592   2.809   4.947  11.274 -0.1342  0.7018  0.6863
16059TIP3    H269593   2.847   4.807  11.232 -0.3122  1.6950 -3.0830
16060TIP3   OH269594   6.768   4.157   5.043 -0.0948  0.2601  0.0639
16060TIP3    H169595   6.747   4.065   5.025 -1.0487  0.4302  0.2346
16060TIP3    H269596   6.851   4.154   5.090  0.2983 -0.4580 -0.6495
16061TIP3   OH269597   0.184   3.011   1.336  0.1125 -0.0455 -0.1949
16061TIP3    H169598   0.092   3.034   1.349 -0.5512 -2.1497 -0.8480
16061TIP3    H269599   0.186   2.970   1.250  0.5315 -5.1740  1.9512
16062TIP3   OH269600   1.407   2.857   4.786  0.0398 -0.3404  0.1386
16062TIP3    H169601   1.396   2.949   4.810 -0.2029 -0.1111 -0.8188
16062TIP3    H269602   1.389   2.809   4.867 -0.3277  0.4216  0.5233
16063TIP3   OH269603   5.953   5.069  13.708  0.2895 -0.5937  0.0775
16063TIP3    H169604   5.883   5.064  13.773  0.7924 -0.6349  0.6216
16063TIP3    H269605   5.966   5.163  13.693  0.1111 -0.5862 -0.0419
16064TIP3   OH269606   3.296   3.763   2.642 -0.1994 -0.5626  0.2022
16064TIP3    H169607   3.242   3.834   2.608  0.7859  0.2266  0.2455
16064TIP3    H269608   3.380   3.804   2.663 -0.1730 -1.4078  1.8618
16065TIP3   OH269609   5.784   0.549   2.674  0.2628 -0.5191  0.3903
16065TIP3    H169610   5.709   0.575   2.620  0.3861 -0.7055  0.1321
16065TIP3    H269611   5.860   0.571   2.621  0.3879 -0.5674  0.5509
16066TIP3   OH269612   6.153   6.737  14.500  0.4107 -0.1432 -0.1251
16066TIP3    H169613   6.165   6.677  14.573  2.2365  2.4671  1.9155
16066TIP3    H269614   6.130   6.820  14.541  0.2610  1.1454 -2.6296
16067TIP3   OH269615   5.554   0.848   5.065 -0.0379 -0.2886 -0.1469
16067TIP3    H169616   5.512   0.875   4.983  1.4181 -0.1924 -0.8925
16067TIP3    H269617   5.488   0.794   5.109 -0.5243 -1.1430 -1.8227
16068TIP3   OH269618   6.737   4.559  17.157 -0.0662 -0.7122 -0.7496
16068TIP3    H169619   6.769   4.533  17.243  1.8830 -1.2489 -1.5941
16068TIP3    H269620   6.782   4.642  17.139 -1.8257  0.3362 -0.5280
16069TIP3   OH269621   3.561   4.779  13.771  0.0371  0.2665  0.0339
16069TIP3    H169622   3.519   4.753  13.853 -0.6844  1.5913  0.1071
16069TIP3    H269623   3.654   4.766  13.787 -0.0528  0.9897  1.2677
16070TIP3   OH269624   1.917   2.954   1.627 -0.0726 -0.2260 -0.0896
16070TIP3    H169625   1.913   2.903   1.546 -0.6371 -1.1608  0.5114
16070TIP3    H269626   1.986   2.912   1.679 -0.5450 -0.3973  0.4117
16071TIP3   OH269627   4.898   1.648  12.007 -0.4555  0.2954 -0.1859
16071TIP3    H169628   4.967   1.712  12.024  0.5771 -0.9316  0.4707
16071TIP3    H269629   4.843   1.649  12.085  0.0039 -0.1479  0.1471
16072TIP3   OH269630   4.762   0.793  12.169 -0.2486 -0.0653 -0.3149
16072TIP3    H169631   4.851   0.791  12.134 -0.0642  1.2964  0.0351
16072TIP3    H269632   4.731   0.882  12.153 -1.4272 -0.4111 -0.1066
16073TIP3   OH269633   0.393   6.163   5.217 -1.0004  1.0065 -0.2749
16073TIP3    H169634   0.486   6.140   5.223 -1.1502  0.2016 -0.7516
16073TIP3    H269635   0.383   6.198   5.128 -0.9453  2.1482  0.1570
16074TIP3   OH269636   3.944   6.171   3.247  0.0781 -0.1086 -0.3436
16074TIP3    H169637   3.900   6.256   3.243 -0.5566 -0.4014  0.2750
16074TIP3    H269638   3.875   6.107   3.231  0.5678 -0.5113 -0.8847
16075TIP3   OH269639   5.822   1.410   2.953  0.1204  0.8329 -0.0130
16075TIP3    H169640   5.783   1.460   3.024  0.9160 -2.2438  2.8640
16075TIP3    H269641   5.790   1.321   2.966  1.5531 -0.1836 -2.6194
16076TIP3   OH269642   1.234   0.166   3.532  0.0895  0.3471  0.2080
16076TIP3    H169643   1.154   0.216   3.547 -0.8509 -1.0731  0.1196
16076TIP3    H269644   1.227   0.135   3.442  0.8657  0.4027  0.1177
16077TIP3   OH269645   2.834   3.406   4.407 -0.0979  0.1856  0.1950
16077TIP3    H169646   2.772   3.478   4.399 -1.8887 -1.3453 -0.7335
16077TIP3    H269647   2.892   3.415   4.331  0.4954  1.3161  0.7657
16078TIP3   OH269648   1.532   4.321   5.365 -0.0033 -0.0481  0.4343
16078TIP3    H169649   1.618   4.298   5.330 -0.0209  0.8637 -0.2536
16078TIP3    H269650   1.534   4.291   5.455  1.4950  1.0327  0.7978
16079TIP3   OH269651   2.692   0.011   0.406 -0.5883 -0.5016  0.2685
16079TIP3    H169652   2.783   0.011   0.377 -0.3401  0.3975  0.9908
16079TIP3    H269653   2.676   0.102   0.433 -1.6159 -0.7130  0.3923
16080TIP3   OH269654   4.034   0.817  16.697 -0.1890  0.0685 -0.1805
16080TIP3    H169655   4.118   0.789  16.664 -0.0780  0.7293 -0.4773
16080TIP3    H269656   4.040   0.913  16.701 -1.3296  0.2149 -1.3276
16081TIP3   OH269657   5.316   1.310  15.026 -0.3459 -0.2087  0.3181
16081TIP3    H169658   5.329   1.355  15.109  0.6712  2.3155 -1.1014
16081TIP3    H269659   5.404   1.302  14.988 -0.9252  0.1107 -1.1871
16082TIP3   OH269660   3.636   1.606   0.472 -0.4263  0.4772 -0.1515
16082TIP3    H169661   3.671   1.630   0.386  1.8220  1.0177  0.8382
16082TIP3    H269662   3.612   1.689   0.511  2.4129  0.7789  1.2358
16083TIP3   OH269663   3.590   1.702  11.247 -0.2097  0.0704  0.7505
16083TIP3    H169664   3.649   1.628  11.262  1.2579  1.0873  0.2221
16083TIP3    H269665   3.517   1.687  11.307 -0.7964 -2.6584 -0.4973
16084TIP3   OH269666   5.898   3.317   2.786 -0.0179  0.9056 -0.2057
16084TIP3    H169667   5.936   3.317   2.698 -0.7406  1.0868 -0.5260
16084TIP3    H269668   5.810   3.352   2.774 -1.6056 -2.5347 -0.0676
16085TIP3   OH269669   5.058   4.808  16.153  0.3959  0.1260 -0.0420
16085TIP3    H169670   5.022   4.780  16.237  1.5338  1.4864  0.9448
16085TIP3    H269671   4.986   4.856  16.111  0.9778  3.0566  2.0259
16086TIP3   OH269672   1.594   2.987  14.493  0.2507  0.5129 -0.0360
16086TIP3    H169673   1.502   2.992  14.468  0.2190  0.3238  0.0380
16086TIP3    H269674   1.624   2.904  14.456  0.3684  0.5329  0.0150
16087TIP3   OH269675   0.071   3.628  16.268 -0.1867 -0.5101 -0.4271
16087TIP3    H169676   0.011   3.556  16.290  0.5077 -1.1430 -0.5612
16087TIP3    H269677   0.066   3.687  16.343 -0.2448 -1.0488  0.0000
16088TIP3   OH269678   4.083   6.096   0.711 -0.3475  0.0409 -0.0692
16088TIP3    H169679   4.106   6.110   0.803 -1.8458 -0.4737  0.4124
16088TIP3    H269680   4.160   6.055   0.672  0.0801 -0.3027  1.1203
16089TIP3   OH269681   0.332   5.322   1.526 -0.1819  0.2768 -0.2543
16089TIP3    H169682   0.343   5.349   1.618  1.4084 -1.7825  0.2505
16089TIP3    H269683   0.238   5.313   1.515 -0.3880  0.1352  1.3413
16090TIP3   OH269684   1.532   3.394  11.137  0.1565  0.0613  0.0786
16090TIP3    H169685   1.588   3.395  11.215 -0.6586 -3.1513  0.8601
16090TIP3    H269686   1.593   3.391  11.063  0.9573  0.6957  0.6945
16091TIP3   OH269687   5.558   4.549   3.268 -0.0580 -0.1568  0.1250
16091TIP3    H169688   5.528   4.470   3.222  1.8183 -0.5794 -0.4778
16091TIP3    H269689   5.653   4.551   3.252  0.1360  1.5037  1.2528
16092TIP3   OH269690   0.962   2.350  14.702 -0.2952  0.1844 -0.3019
16092TIP3    H169691   0.964   2.361  14.797 -0.4719  2.2719 -0.4893
16092TIP3    H269692   1.049   2.315  14.680 -0.1654 -0.0704  0.5995
16093TIP3   OH269693   4.654   0.622   0.614 -0.1648 -0.0720  0.3990
16093TIP3    H169694   4.654   0.683   0.688 -0.7411 -1.4147  1.5575
16093TIP3    H269695   4.574   0.570   0.626  0.1721 -0.8826 -0.7035
16094TIP3   OH269696   3.264   6.160  16.986 -0.6944 -0.1164  0.3523
16094TIP3    H169697   3.203   6.231  16.964 -0.3174 -0.2470 -1.2639
16094TIP3    H269698   3.341   6.204  17.022  0.1204  0.4995 -1.9309
16095TIP3   OH269699   2.101   0.960  11.190 -0.1340 -0.1070 -0.5644
16095TIP3    H169700   2.126   0.957  11.098  4.7922  0.3419  0.4995
16095TIP3    H269701   2.159   0.897  11.233 -0.8370  1.1466  2.4772
16096TIP3   OH269702   4.651   5.422   5.009 -0.2299 -0.1016 -0.7062
16096TIP3    H169703   4.606   5.426   5.094  0.2462 -0.1776 -0.4461
16096TIP3    H269704   4.655   5.329   4.989 -0.0627 -0.1050 -0.6589
16097TIP3   OH269705   3.919   6.508   0.242  0.0839  0.0886  0.5068
16097TIP3    H169706   3.842   6.486   0.295  0.5499  1.4519  1.8370
16097TIP3    H269707   3.984   6.441   0.265 -0.7860 -1.3251 -0.9440
16098TIP3   OH269708   4.256   6.045   0.499 -0.6588  0.2188 -0.4029
16098TIP3    H169709   4.273   5.962   0.543 -0.3450 -0.3798 -1.6238
16098TIP3    H269710   4.207   6.022   0.420 -1.5175  1.3048 -0.2198
16099TIP3   OH269711   1.005   6.469   3.350 -0.4183 -0.4129  1.0581
16099TIP3    H169712   0.925   6.478   3.403  1.1226  0.9609  3.2839
16099TIP3    H269713   0.996   6.537   3.283 -1.7007 -1.1761  0.4003
16100TIP3   OH269714   3.982   4.141  15.163 -0.0221 -0.2404  0.2132
16100TIP3    H169715   4.040   4.180  15.228  0.0923  0.3153 -0.2156
16100TIP3    H269716   3.895   4.172  15.187  0.1698  1.0587 -0.6569
16101TIP3   OH269717   3.320   4.460   3.602  0.4707 -0.5681 -0.3532
16101TIP3    H169718   3.319   4.528   3.669 -2.2478 -0.9987  0.1694
16101TIP3    H269719   3.412   4.437   3.593  0.9825 -0.7717  3.5679
16102TIP3   OH269720   2.329   0.907   6.640  0.7509  0.0944 -0.1231
16102TIP3    H169721   2.288   0.823   6.618  0.6025  0.0699  0.2473
16102TIP3    H269722   2.290   0.932   6.724  0.9918  0.4055 -0.1016
16103TIP3   OH269723   5.507   4.028   0.066 -0.1823 -0.1175  0.4426
16103TIP3    H169724   5.526   3.960   0.002  0.3604  0.3070  0.1414
16103TIP3    H269725   5.446   4.087   0.022  0.0346  0.0674  0.3923
16104TIP3   OH269726   2.265   2.790   4.719  0.3090  0.8825 -0.0422
16104TIP3    H169727   2.353   2.757   4.736  0.7532  0.2740 -3.0344
16104TIP3    H269728   2.267   2.880   4.752  2.2210  1.0503 -0.4734
16105TIP3   OH269729   4.819   4.594  13.399  0.2261  0.1611 -0.2344
16105TIP3    H169730   4.735   4.626  13.432  0.7524  1.1660  0.1775
16105TIP3    H269731   4.884   4.650  13.441  1.0967 -0.4670 -0.7091
16106TIP3   OH269732   5.168   5.375   1.673  0.1792 -0.0885 -0.5808
16106TIP3    H169733   5.133   5.321   1.744  0.4105 -0.0015 -0.4007
16106TIP3    H269734   5.195   5.456   1.716  0.2370  0.0003 -0.7836
16107TIP3   OH269735   5.836   3.872   6.215  0.1222  0.0849  0.1377
16107TIP3    H169736   5.923   3.906   6.234  0.3445 -0.6726  0.4996
16107TIP3    H269737   5.804   3.926   6.143  1.1106  0.0071 -0.3653
16108TIP3   OH269738   0.361   4.354  11.044  0.2908  0.2028 -0.1248
16108TIP3    H169739   0.309   4.298  10.986  2.1863 -1.1281 -0.6420
16108TIP3    H269740   0.444   4.307  11.054  2.0202  2.9477 -0.6004
16109TIP3   OH269741   4.760   0.659   5.161  0.0166  0.0268 -0.5359
16109TIP3    H169742   4.702   0.590   5.194 -0.0574 -0.1040 -0.9433
16109TIP3    H269743   4.731   0.738   5.207  0.1729 -0.2325  0.0181
16110TIP3   OH269744   3.336   2.210  16.466  0.1337  0.1122 -0.8201
16110TIP3    H169745   3.423   2.224  16.504 -0.0662 -0.8762  0.0411
16110TIP3    H269746   3.275   2.230  16.537 -0.3689  1.1156 -1.5161
16111TIP3   OH269747   5.732   0.364  14.846  0.2715 -0.5745  0.0658
16111TIP3    H169748   5.706   0.456  14.856 -0.9186 -0.8619 -0.2065
16111TIP3    H269749   5.769   0.359  14.758  0.2619 -0.3722  0.0493
16112TIP3   OH269750   3.998   1.188   5.072 -0.5766 -0.1585 -0.4730
16112TIP3    H169751   3.935   1.149   5.133 -0.0324  1.1435  0.9920
16112TIP3    H269752   3.973   1.281   5.069  1.4548  0.4563  0.4112
16113TIP3   OH269753   5.777   2.768  13.687 -0.1730 -0.2585 -0.5425
16113TIP3    H169754   5.792   2.674  13.697  0.5618 -0.2181 -1.1834
16113TIP3    H269755   5.837   2.808  13.751 -0.5499 -0.2247 -0.2077
16114TIP3   OH269756   1.996   3.102  14.116 -0.2744 -0.0839  0.2799
16114TIP3    H169757   2.047   3.110  14.197 -0.3635  2.3720  0.1584
16114TIP3    H269758   2.059   3.122  14.046 -0.6289 -0.3816 -0.1303
16115TIP3   OH269759   6.404   2.543  13.375  0.4386  0.3235  0.3510
16115TIP3    H169760   6.450   2.554  13.292 -0.1095 -1.8473 -0.2982
16115TIP3    H269761   6.312   2.550  13.353  0.2968  0.1552  0.8699
16116TIP3   OH269762   2.214   4.154   6.328  0.6044 -0.1183  0.0268
16116TIP3    H169763   2.200   4.244   6.358 -4.1560 -0.1091 -1.3968
16116TIP3    H269764   2.153   4.102   6.379  0.6285 -1.9415 -1.7028
16117TIP3   OH269765   4.814   3.025  10.794  0.1602  0.0633  0.4093
16117TIP3    H169766   4.864   3.032  10.713  2.1995 -0.0635  1.5781
16117TIP3    H269767   4.732   2.984  10.768  1.1035 -0.7811 -1.4628
16118TIP3   OH269768   3.123   2.561  12.275 -0.0827  1.2289  0.1271
16118TIP3    H169769   3.033   2.534  12.255  0.5483 -0.7657 -0.3374
16118TIP3    H269770   3.114   2.633  12.337 -2.0186 -0.6449  2.2047
16119TIP3   OH269771   3.404   0.819  16.425  0.6863 -0.4701 -0.3118
16119TIP3    H169772   3.346   0.763  16.374 -0.1414 -0.4891  0.6241
16119TIP3    H269773   3.395   0.788  16.515  0.7138  0.7349  0.1286
16120TIP3   OH269774   2.067   0.438  16.321 -0.0440 -0.9529  0.6106
16120TIP3    H169775   2.143   0.460  16.267 -1.1859  0.0167 -0.6820
16120TIP3    H269776   2.019   0.373  16.269 -0.2265 -1.3728  1.2970
16121TIP3   OH269777   0.740   0.259   3.552  0.6788 -0.4148  0.5140
16121TIP3    H169778   0.803   0.258   3.624  0.1721  0.3685  0.9733
16121TIP3    H269779   0.707   0.349   3.549  0.8801 -0.3635 -0.8655
16122TIP3   OH269780   5.591   0.380   0.486 -0.8334 -0.1940  0.6392
16122TIP3    H169781   5.608   0.425   0.403  0.8310 -0.2015  0.9462
16122TIP3    H269782   5.663   0.407   0.543 -0.6941 -1.9605  1.3559
16123TIP3   OH269783   3.378   1.219  15.215  0.2504 -0.3497  0.5260
16123TIP3    H169784   3.381   1.155  15.144  0.6470 -0.9626  1.0880
16123TIP3    H269785   3.383   1.304  15.170  2.2642 -0.7494 -0.1197
16124TIP3   OH269786   5.738   1.625   0.714 -0.1421 -0.6536 -0.1890
16124TIP3    H169787   5.703   1.558   0.654 -1.2601 -0.9420  0.7580
16124TIP3    H269788   5.826   1.594   0.733 -0.3466 -1.4288 -0.4214
16125TIP3   OH269789   3.089   1.620   4.654 -0.1698 -0.2866  0.8544
16125TIP3    H169790   3.091   1.558   4.726 -0.3066 -0.6834  0.5194
16125TIP3    H269791   3.171   1.668   4.661  1.5841 -2.8021 -0.8963
16126TIP3   OH269792   5.596   6.589  16.857  0.3549 -0.1008 -0.0041
16126TIP3    H169793   5.613   6.654  16.788  1.2144 -0.4580 -0.1319
16126TIP3    H269794   5.655   6.517  16.837 -0.4940 -0.8780  0.2145
16127TIP3   OH269795   5.911   6.460   3.258 -0.2286  0.0610  0.2824
16127TIP3    H169796   5.975   6.474   3.328  0.4334  0.6217 -0.4132
16127TIP3    H269797   5.956   6.489   3.179 -1.0610 -0.3153 -0.3412
16128TIP3   OH269798   0.114   5.669   0.574  0.2341 -0.3938 -0.0353
16128TIP3    H169799   0.105   5.690   0.667  1.9614 -3.2431  0.8767
16128TIP3    H269800   0.041   5.609   0.556 -0.0256  0.0578 -0.5170
16129TIP3   OH269801   1.704   3.789  14.770 -0.5058 -0.6222 -0.1731
16129TIP3    H169802   1.646   3.713  14.770 -1.4414  0.0748  0.1865
16129TIP3    H269803   1.662   3.851  14.829 -0.1123  0.4401 -0.9886
16130TIP3   OH269804   0.082   6.530  16.566  0.1994 -0.0003 -0.3316
16130TIP3    H169805   0.132   6.464  16.518  0.3727  0.2664 -0.5187
16130TIP3    H269806   0.142   6.604  16.574  0.2388 -0.1123  0.4591
16131TIP3   OH269807   2.237   4.059   5.687 -0.1532  0.4296 -0.0918
16131TIP3    H169808   2.251   4.059   5.781 -0.9402 -0.0143  0.0323
16131TIP3    H269809   2.304   4.000   5.653  0.0907  0.5410  0.1925
16132TIP3   OH269810   6.633   0.364   0.276 -0.4447  0.6479 -0.0309
16132TIP3    H169811   6.561   0.379   0.215  0.1955  0.0660 -0.9557
16132TIP3    H269812   6.592   0.367   0.363 -2.1688 -2.4351 -0.5798
16133TIP3   OH269813   4.885   2.752   0.444 -0.5103 -0.0611 -0.4452
16133TIP3    H169814   4.970   2.712   0.458 -0.3882  0.8723  2.0580
16133TIP3    H269815   4.822   2.681   0.458 -0.2361  0.1308  2.3294
16134TIP3   OH269816   2.566   1.545  10.917 -0.3742 -0.1184  0.3836
16134TIP3    H169817   2.500   1.596  10.870  0.2524  1.0044  0.6909
16134TIP3    H269818   2.642   1.545  10.859  0.2373  0.8591  1.1584
16135TIP3   OH269819   5.489   5.403  11.615 -0.2234 -0.4111  0.3017
16135TIP3    H169820   5.575   5.370  11.588  0.2552  1.0293  0.0002
16135TIP3    H269821   5.438   5.408  11.534  0.4808  1.7592 -0.0755
16136TIP3   OH269822   0.523   0.323  14.598 -0.3543  0.4073  0.1046
16136TIP3    H169823   0.519   0.330  14.503  1.3214 -2.7119 -0.3396
16136TIP3    H269824   0.590   0.386  14.624  0.7254 -0.1709 -1.1142
16137TIP3   OH269825   3.364   4.505  17.129  0.1596  0.0726 -0.0108
16137TIP3    H169826   3.388   4.488  17.220  0.9680  0.2503 -0.1808
16137TIP3    H269827   3.269   4.491  17.126 -0.2827  2.1907  1.3702
16138TIP3   OH269828   0.677   3.859  11.219  0.0463  0.3099  0.0857
16138TIP3    H169829   0.653   3.840  11.128  1.1382  0.0669 -0.1645
16138TIP3    H269830   0.629   3.939  11.240  0.8447  1.1435 -1.1629
16139TIP3   OH269831   2.559   5.027  13.865 -0.5868 -0.2140 -0.8372
16139TIP3    H169832   2.604   4.966  13.807 -0.0801 -0.4800 -0.1784
16139TIP3    H269833   2.534   4.974  13.941 -0.4612  0.3156 -0.4192
16140TIP3   OH269834   3.566   3.680   3.276  0.3668  0.6975  0.2350
16140TIP3    H169835   3.645   3.674   3.222  0.2966  2.1304 -0.0794
16140TIP3    H269836   3.596   3.660   3.364  1.0558  1.0105  0.0813
16141TIP3   OH269837   1.769   6.676  12.044 -0.4722 -0.2106  0.0102
16141TIP3    H169838   1.803   6.645  12.128 -1.1051 -0.7391  0.0779
16141TIP3    H269839   1.757   6.597  11.992 -1.3550 -0.0147 -0.1012
16142TIP3   OH269840   4.477   1.934   3.045  0.4876 -0.4207  0.0611
16142TIP3    H169841   4.438   1.947   3.132 -0.4550  0.7941 -0.5251
16142TIP3    H269842   4.531   1.855   3.055 -0.0699 -0.6403  1.5889
16143TIP3   OH269843   3.515   2.757  12.752  0.0627 -0.0894  0.0725
16143TIP3    H169844   3.463   2.796  12.822 -0.8825 -0.4799 -0.3958
16143TIP3    H269845   3.492   2.808  12.674  2.0196  1.1420  0.2448
16144TIP3   OH269846   0.330   0.854  12.099  0.1843  0.0655 -0.0268
16144TIP3    H169847   0.259   0.892  12.151 -0.5526  0.5825 -1.3628
16144TIP3    H269848   0.395   0.924  12.092  0.1340  0.1055 -0.0891
16145TIP3   OH269849   3.446   1.794  16.419 -0.1834 -0.2208  0.1671
16145TIP3    H169850   3.444   1.776  16.325 -0.6386  0.5416  0.0259
16145TIP3    H269851   3.368   1.750  16.453  0.0985 -0.6820  0.2303
16146TIP3   OH269852   6.745   0.393   0.756 -0.5733  0.5325 -0.0217
16146TIP3    H169853   6.774   0.378   0.846 -0.3689  2.1816  0.2231
16146TIP3    H269854   6.712   0.308   0.726  0.2055 -0.2585  1.2896
16147TIP3   OH269855   0.383   3.918  12.962 -0.2666  0.6313  0.1914
16147TIP3    H169856   0.406   3.868  13.040  0.6993  0.1900 -0.3601
16147TIP3    H269857   0.288   3.909  12.955 -0.2013 -0.4748  0.5498
16148TIP3   OH269858   6.526   3.230   1.963  0.1423 -0.3955 -0.1353
16148TIP3    H169859   6.541   3.174   2.039  0.0607 -0.7802 -0.4015
16148TIP3    H269860   6.488   3.310   2.000  0.1962 -0.5410  0.2399
16149TIP3   OH269861   3.294   1.753   2.053  0.1076  0.2950 -0.4468
16149TIP3    H169862   3.218   1.747   1.995 -1.0473 -1.8188  1.1403
16149TIP3    H269863   3.320   1.662   2.068 -0.5767  0.5903  3.4035
16150TIP3   OH269864   5.974   1.765   5.135 -0.5349 -0.1115 -0.8093
16150TIP3    H169865   5.939   1.778   5.223  1.7825 -0.9214  0.3132
16150TIP3    H269866   6.054   1.818   5.133 -0.6563  0.0880 -2.5407
16151TIP3   OH269867   3.510   3.789  12.811  0.2565  0.0716  0.4668
16151TIP3    H169868   3.523   3.859  12.748  3.1045 -0.8592 -0.1019
16151TIP3    H269869   3.576   3.805  12.879  0.1505 -1.3793  0.9374
16152TIP3   OH269870   4.411   1.822  11.352 -0.6081 -0.8026 -0.3550
16152TIP3    H169871   4.350   1.764  11.305 -1.4561 -0.3860  0.2255
16152TIP3    H269872   4.424   1.779  11.436 -0.5954 -0.5608 -0.2360
16153TIP3   OH269873   1.320   4.058   0.419  0.5216  0.1378  0.3213
16153TIP3    H169874   1.354   4.039   0.332 -0.4752  1.3795 -0.3721
16153TIP3    H269875   1.378   4.126   0.453  0.0083  0.7654 -0.0243
16154TIP3   OH269876   3.553   5.707  14.867 -0.0915 -0.3265  0.5106
16154TIP3    H169877   3.566   5.717  14.773 -3.0211  0.6182  0.1014
16154TIP3    H269878   3.626   5.652  14.896  1.8512  0.7671 -1.9695
16155TIP3   OH269879   1.564   6.025   6.014 -0.6335  0.3863 -0.3992
16155TIP3    H169880   1.528   5.953   6.066 -1.2757 -0.4834 -1.9621
16155TIP3    H269881   1.598   6.087   6.078  1.0732 -1.8704  1.0192
16156TIP3   OH269882   4.486   1.489   1.335 -0.1821  0.6498  0.2650
16156TIP3    H169883   4.440   1.481   1.419 -1.6169  1.2719 -0.4380
16156TIP3    H269884   4.437   1.555   1.287  0.7389  0.4394 -1.0050
16157TIP3   OH269885   4.072   3.888  14.265 -0.1552 -0.2870  0.3051
16157TIP3    H169886   4.141   3.829  14.234 -0.3456 -0.2394 -0.2162
16157TIP3    H269887   3.999   3.873  14.205  0.2325  1.4145 -0.6420
16158TIP3   OH269888   5.076   3.570   2.439 -0.0194  0.2774 -0.1832
16158TIP3    H169889   5.069   3.481   2.474 -3.3499  1.3334  2.4446
16158TIP3    H269890   5.116   3.620   2.510  0.5167  1.1357 -1.0712
16159TIP3   OH269891   1.326   0.498   3.333 -0.0607  0.0185  0.1909
16159TIP3    H169892   1.321   0.580   3.384 -0.2036  1.3852 -1.9051
16159TIP3    H269893   1.418   0.472   3.340  0.3862  1.2980 -0.4271
16160TIP3   OH269894   3.974   1.855  11.063 -0.0987 -0.2242 -0.3861
16160TIP3    H169895   4.038   1.807  11.010  1.0336  0.8733 -0.0698
16160TIP3    H269896   4.026   1.890  11.136 -0.9762  1.0712 -0.3667
16161TIP3   OH269897   0.708   2.651  12.659 -0.3110 -0.2747  0.3421
16161TIP3    H169898   0.688   2.586  12.591 -0.0809 -0.4221  0.4149
16161TIP3    H269899   0.785   2.616  12.704  0.8306  0.8403 -0.6716
16162TIP3   OH269900   4.202   6.025   3.904  0.8713 -0.4362 -0.0842
16162TIP3    H169901   4.158   5.990   3.981  0.5527 -1.2670 -0.6326
16162TIP3    H269902   4.279   6.070   3.939 -0.2786  0.8897  0.8727
16163TIP3   OH269903   0.425   0.127  10.244  0.0307 -0.0770  0.6986
16163TIP3    H169904   0.457   0.037  10.246 -1.5533 -0.7239 -0.7857
16163TIP3    H269905   0.372   0.136  10.323 -0.3109 -0.6572  0.5413
16164TIP3   OH269906   0.924   2.504  12.125 -0.3463 -0.5611  0.2030
16164TIP3    H169907   0.919   2.599  12.131  4.4573 -0.1413  1.3813
16164TIP3    H269908   0.889   2.483  12.039 -1.1403  2.2723 -0.2526
16165TIP3   OH269909   3.543   4.826   4.581 -0.1609 -0.2568 -0.0448
16165TIP3    H169910   3.449   4.808   4.578  0.2206 -3.0440  1.3736
16165TIP3    H269911   3.574   4.807   4.493 -0.7983 -0.2272 -0.2788
16166TIP3   OH269912   5.660   2.708   4.345 -0.1778  0.2149  0.8794
16166TIP3    H169913   5.612   2.749   4.272  0.9670 -1.1545 -0.6988
16166TIP3    H269914   5.591   2.678   4.404 -1.2512 -0.5279 -0.6794
16167TIP3   OH269915   5.964   1.432  13.982  0.3846  0.1957 -0.0048
16167TIP3    H169916   5.975   1.380  13.903  0.1404  1.2563 -0.7713
16167TIP3    H269917   6.024   1.506  13.970  0.4618  0.2808  0.8812
16168TIP3   OH269918   0.381   1.560  15.724  0.3362  0.0753  0.0455
16168TIP3    H169919   0.426   1.483  15.689  3.2191  2.5195 -2.1887
16168TIP3    H269920   0.329   1.526  15.797  0.5650 -4.0834 -1.4527
16169TIP3   OH269921   6.083   4.273  14.168  0.5993 -0.3771 -0.5001
16169TIP3    H169922   6.026   4.200  14.191 -0.1363 -0.0216 -1.1534
16169TIP3    H269923   6.151   4.234  14.112  1.6377 -0.9975  1.1113
16170TIP3   OH269924   3.780   0.867  12.941 -0.1421  0.2151  0.0903
16170TIP3    H169925   3.836   0.831  13.009 -0.4963  0.5465  0.5638
16170TIP3    H269926   3.840   0.895  12.872  0.2899  0.6610  0.6377
16171TIP3   OH269927   2.046   6.387  13.278  0.2137 -0.0246 -0.1440
16171TIP3    H169928   2.122   6.329  13.273 -0.9123 -1.4917 -1.5750
16171TIP3    H269929   2.060   6.450  13.207  0.8804  0.7949  0.6840
16172TIP3   OH269930   4.695   6.134  14.063 -0.0770 -0.2718  0.5223
16172TIP3    H169931   4.670   6.041  14.057 -1.6848  0.1482  0.1728
16172TIP3    H269932   4.636   6.178  14.002  1.2836  0.8833  0.0012
16173TIP3   OH269933   2.076   3.590  12.089 -0.3509 -0.3175  0.0839
16173TIP3    H169934   2.038   3.589  12.001 -2.8764  1.4811  1.0223
16173TIP3    H269935   2.049   3.507  12.128  0.5876 -1.0240 -0.7201
16174TIP3   OH269936   4.812   3.237   3.081  0.2529 -0.5400 -0.1911
16174TIP3    H169937   4.801   3.325   3.046  0.4741 -0.5648 -0.3222
16174TIP3    H269938   4.748   3.232   3.153  0.7620 -0.0083  0.3145
16175TIP3   OH269939   6.250   3.174   0.421  0.2553 -0.3936  0.0206
16175TIP3    H169940   6.263   3.129   0.338  1.1477  0.5900 -0.4025
16175TIP3    H269941   6.339   3.192   0.452 -0.0456 -1.2746  1.5021
16176TIP3   OH269942   2.971   1.527   5.033 -0.1173 -0.7053 -0.7046
16176TIP3    H169943   2.998   1.605   5.081 -2.0521 -0.1800 -0.3776
16176TIP3    H269944   3.052   1.495   4.992  1.0031  0.5717  0.4032
16177TIP3   OH269945   0.320   4.199  12.369 -0.1332  0.0555 -0.1168
16177TIP3    H169946   0.322   4.239  12.282 -0.0511  0.0262 -0.1277
16177TIP3    H269947   0.291   4.109  12.354 -0.8558  0.2652 -0.0346
16178TIP3   OH269948   4.031   4.607   1.092 -0.4127  0.6274  0.3676
16178TIP3    H169949   4.054   4.524   1.133 -3.2033 -0.1687  0.5336
16178TIP3    H269950   4.031   4.671   1.163  1.6083  0.8131  0.2615
16179TIP3   OH269951   6.450   6.360   2.332 -0.4284  0.0261  0.5596
16179TIP3    H169952   6.451   6.450   2.298 -0.5618 -0.6713 -1.4169
16179TIP3    H269953   6.503   6.364   2.411  1.3091  1.4642 -0.5959
16180TIP3   OH269954   0.956   5.793  16.464 -0.6271 -0.0836 -0.4230
16180TIP3    H169955   1.017   5.799  16.537 -1.5485  0.1296  0.3421
16180TIP3    H269956   1.006   5.748  16.395 -0.5808 -2.7735  1.2354
16181TIP3   OH269957   2.826   5.531  15.585  0.1045 -0.1597 -0.2973
16181TIP3    H169958   2.840   5.533  15.680  0.4123  1.5309 -0.3351
16181TIP3    H269959   2.886   5.464  15.553  0.7537 -0.0331  0.6111
16182TIP3   OH269960   0.724   3.714   0.755 -0.3349 -0.4890 -0.4115
16182TIP3    H169961   0.815   3.725   0.725 -0.5161  1.2255 -0.4417
16182TIP3    H269962   0.672   3.765   0.693 -1.2135 -0.6068  0.2105
16183TIP3   OH269963   4.155   0.403  16.624 -0.7344  0.1605 -0.3701
16183TIP3    H169964   4.116   0.418  16.710  1.7654  0.3558  0.8135
16183TIP3    H269965   4.112   0.324  16.591 -1.4731 -0.1313  1.2125
16184TIP3   OH269966   2.190   5.338  12.246  0.5748  0.0309 -0.6957
16184TIP3    H169967   2.208   5.303  12.333  0.9989  0.3402 -0.6568
16184TIP3    H269968   2.149   5.265  12.199  1.3608 -0.4969 -0.5863
16185TIP3   OH269969   3.247   0.444   2.494  0.5283 -0.1970  0.0211
16185TIP3    H169970   3.176   0.415   2.437  0.2171  0.8005 -0.1211
16185TIP3    H269971   3.203   0.474   2.573  0.9208 -1.0679  0.5787
16186TIP3   OH269972   4.610   4.628  14.400  0.4644  0.4335  0.1995
16186TIP3    H169973   4.636   4.716  14.428  0.6289 -0.2537  2.4051
16186TIP3    H269974   4.643   4.570  14.469 -1.4310 -1.1459 -0.1176
16187TIP3   OH269975   2.974   1.461  16.080 -0.3394  0.6379 -0.1186
16187TIP3    H169976   3.048   1.402  16.080  0.7958  2.0057  0.1082
16187TIP3    H269977   2.929   1.444  15.996  0.4667  0.0960 -0.4493
16188TIP3   OH269978   2.938   4.757  17.251  0.1713 -0.0398  0.3640
16188TIP3    H169979   2.865   4.769  17.312 -0.0771 -0.7585  0.2226
16188TIP3    H269980   2.983   4.679  17.283 -1.4799 -2.0140 -1.7931
16189TIP3   OH269981   4.005   3.470   1.894 -0.3181  0.0840 -0.2131
16189TIP3    H169982   4.021   3.514   1.977 -0.1295  0.9934 -0.7252
16189TIP3    H269983   3.930   3.412   1.912 -1.9779  2.1730 -0.0528
16190TIP3   OH269984   1.580   3.282   3.834 -0.2516  0.1676  0.3545
16190TIP3    H169985   1.505   3.321   3.788  0.1577 -1.3230 -1.7419
16190TIP3    H269986   1.567   3.306   3.925 -3.5988 -0.4241  0.1888
16191TIP3   OH269987   1.563   3.627   0.211  0.6944  0.3846 -0.1861
16191TIP3    H169988   1.644   3.598   0.169 -0.2091 -0.7612 -1.2281
16191TIP3    H269989   1.510   3.661   0.139 -0.3868 -0.4265  0.1991
16192TIP3   OH269990   2.512   1.313  11.479  0.0760  0.0729  0.0808
16192TIP3    H169991   2.447   1.367  11.434 -0.5831 -0.6785  0.1039
16192TIP3    H269992   2.592   1.365  11.478 -0.1352  0.3991 -1.2522
16193TIP3   OH269993   1.678   0.652  13.576 -0.1058 -0.7582  0.2580
16193TIP3    H169994   1.771   0.673  13.578 -0.1582 -0.4666 -0.2566
16193TIP3    H269995   1.673   0.563  13.610  0.5434 -1.4014 -1.2530
16194TIP3   OH269996   3.076   3.901  15.736 -0.1132  0.0706 -0.1758
16194TIP3    H169997   3.141   3.877  15.801  0.2370  1.7982  0.1600
16194TIP3    H269998   3.062   3.822  15.685 -2.1882 -2.1445  3.4167
16195TIP3   OH269999   1.442   1.734   4.586  0.1754 -0.3863 -0.4341
16195TIP3    H170000   1.361   1.784   4.581  0.7065  0.6417  0.6436
16195TIP3    H270001   1.489   1.755   4.505  0.0211  0.2335 -0.3694
16196TIP3   OH270002   3.452   5.611   4.356 -0.8448  0.0319 -0.3481
16196TIP3    H170003   3.463   5.527   4.400 -1.3705 -0.5321 -1.2439
16196TIP3    H270004   3.523   5.665   4.389 -0.4944 -0.7683  0.2497
16197TIP3   OH270005   3.868   6.430   4.295 -0.2441  0.4741  0.1921
16197TIP3    H170006   3.896   6.516   4.265 -2.2942  1.2808  0.3886
16197TIP3    H270007   3.949   6.380   4.303  1.2191  2.8093  1.4688
16198TIP3   OH270008   0.253   4.614   3.061  0.0217  0.1699 -0.2954
16198TIP3    H170009   0.330   4.669   3.065 -0.7533  1.2978 -0.5252
16198TIP3    H270010   0.269   4.556   2.987  1.1562 -0.4305  0.3866
16199TIP3   OH270011   6.617   0.579  11.709 -0.2462  0.4878 -0.4418
16199TIP3    H170012   6.601   0.498  11.757  0.2285 -0.6845 -2.1680
16199TIP3    H270013   6.644   0.642  11.776  0.4635 -1.0869  0.8141
16200TIP3   OH270014   3.523   5.423   2.024 -0.1148 -0.1561 -0.4221
16200TIP3    H170015   3.612   5.439   1.991  0.2113 -2.1217 -0.6051
16200TIP3    H270016   3.484   5.363   1.961 -2.0941  1.6952 -1.0513
16201TIP3   OH270017   4.534   5.208  13.650  0.1077  0.5552  0.5820
16201TIP3    H170018   4.608   5.268  13.640 -2.1117  3.0671 -2.1536
16201TIP3    H270019   4.516   5.177  13.561 -0.6550 -2.0077  1.5334
16202TIP3   OH270020   5.011   5.103   1.596  0.3221 -0.3307 -0.6119
16202TIP3    H170021   5.061   5.022   1.603 -0.8779 -1.0362  0.1082
16202TIP3    H270022   5.021   5.146   1.681 -0.0785 -0.3597 -0.5461
16203TIP3   OH270023   6.595   2.432  11.938  0.4093  0.3003 -0.6737
16203TIP3    H170024   6.518   2.463  11.987  1.2987  0.9845  0.3335
16203TIP3    H270025   6.581   2.338  11.930  0.2385  0.1553  0.9361
16204TIP3   OH270026   6.049   3.148   5.759 -0.0996 -0.1404 -0.2613
16204TIP3    H170027   6.062   3.214   5.691 -0.8653 -1.7295 -2.0296
16204TIP3    H270028   6.007   3.075   5.714 -2.4872 -0.5290  2.3113
16205TIP3   OH270029   2.136   6.515  15.692  0.5680  0.1721 -0.0657
16205TIP3    H170030   2.050   6.515  15.650 -0.3819  0.8408  1.7638
16205TIP3    H270031   2.167   6.605  15.683  0.2280  0.3982  0.8256
16206TIP3   OH270032   2.834   4.091  10.844  0.1937  0.0479  0.0895
16206TIP3    H170033   2.759   4.063  10.897 -0.4292 -1.5869 -1.5445
16206TIP3    H270034   2.846   4.183  10.867 -2.0334  0.2443  0.7604
16207TIP3   OH270035   3.461   2.352   2.738  0.3970  0.0553  0.5779
16207TIP3    H170036   3.450   2.443   2.713 -0.9695 -0.7094 -1.9518
16207TIP3    H270037   3.438   2.350   2.831 -1.4533  1.9978  0.2512
16208TIP3   OH270038   5.862   0.408  13.871 -0.6990  0.3825 -0.0958
16208TIP3    H170039   5.829   0.411  13.961 -1.7538  0.5320 -0.4717
16208TIP3    H270040   5.898   0.320  13.862 -0.2557  0.4926  0.5851
16209TIP3   OH270041   3.720   1.430   3.304  0.0376  0.6340 -0.4305
16209TIP3    H170042   3.737   1.476   3.222 -1.1953  2.5584  0.3211
16209TIP3    H270043   3.796   1.450   3.360  0.3926  0.1627 -0.7355
16210TIP3   OH270044   6.254   2.084  14.812 -0.0884  0.3467 -0.1581
16210TIP3    H170045   6.209   2.014  14.763 -0.7666 -0.7943  1.9362
16210TIP3    H270046   6.288   2.039  14.890  1.8366  1.8697 -0.0741
16211TIP3   OH270047   2.197   3.082  13.926  0.2753  0.7130 -0.3390
16211TIP3    H170048   2.139   3.052  13.856  0.4923  2.2614 -1.2205
16211TIP3    H270049   2.281   3.041  13.908 -0.1773 -0.4900  0.1892
16212TIP3   OH270050   6.593   5.356   1.898  0.0468 -0.2664 -0.0928
16212TIP3    H170051   6.566   5.340   1.807 -0.7875  0.0182  0.0941
16212TIP3    H270052   6.544   5.434   1.923  1.0381  0.2416  0.2838
16213TIP3   OH270053   2.872   5.196   3.158  0.2490  0.4626 -0.2059
16213TIP3    H170054   2.835   5.175   3.072  0.2524 -0.1792 -0.0525
16213TIP3    H270055   2.896   5.112   3.196  2.4489  0.8738 -0.5401
16214TIP3   OH270056   3.201   1.730   6.152  0.1996  0.3825  0.0128
16214TIP3    H170057   3.136   1.664   6.125 -1.0685  1.0672  1.2550
16214TIP3    H270058   3.186   1.741   6.246  3.1175 -0.4898  0.6820
16215TIP3   OH270059   1.157   3.276  15.846  0.1551 -0.0888 -0.0969
16215TIP3    H170060   1.182   3.233  15.765 -0.0968 -0.8266  0.2106
16215TIP3    H270061   1.240   3.307  15.883  0.7153 -2.6175  0.9711
16216TIP3   OH270062   6.491   3.322  11.178 -0.3451 -0.2317  0.3814
16216TIP3    H170063   6.534   3.250  11.225  0.4189  0.6284  1.0214
16216TIP3    H270064   6.551   3.344  11.108  1.1432  2.0529  2.2321
16217TIP3   OH270065   0.006   0.339   6.300  0.3267 -0.2463 -0.4264
16217TIP3    H170066  -0.036   0.424   6.287 -1.0576 -1.0773 -1.7406
16217TIP3    H270067   0.002   0.325   6.395  1.3194  1.4781 -0.0952
16218TIP3   OH270068   4.473   5.711   2.184 -0.2472  0.0272  0.3483
16218TIP3    H170069   4.448   5.688   2.273 -2.1790  0.0137 -0.1645
16218TIP3    H270070   4.508   5.630   2.147  0.5226  0.0234  1.0524
16219TIP3   OH270071   0.339   1.898  16.613 -0.2193 -0.1356  0.1060
16219TIP3    H170072   0.254   1.926  16.645 -0.6635 -0.6561 -0.5896
16219TIP3    H270073   0.359   1.957  16.541 -0.4442 -0.6164 -0.3571
16220TIP3   OH270074   6.627   4.625   7.019  0.0145  0.0624 -0.0641
16220TIP3    H170075   6.666   4.558   7.075 -2.6424 -2.5046 -1.0353
16220TIP3    H270076   6.626   4.586   6.932 -1.7119  1.3173 -0.6578
16221TIP3   OH270077   1.478   3.464  11.625  0.4017 -0.0450 -0.5885
16221TIP3    H170078   1.514   3.410  11.695 -1.9053  1.3398  1.8562
16221TIP3    H270079   1.431   3.402  11.569  0.1021 -0.9116  0.5831
16222TIP3   OH270080   0.567   0.024   3.632 -0.5269  0.1316  0.1746
16222TIP3    H170081   0.598   0.111   3.606 -1.7052  0.7649  0.8319
16222TIP3    H270082   0.622  -0.001   3.706 -0.3815  0.4443  0.1717
16223TIP3   OH270083   3.732   2.116   2.241 -0.4281  0.2466  0.3015
16223TIP3    H170084   3.751   2.041   2.185 -1.9180  0.1054 -0.0583
16223TIP3    H270085   3.679   2.174   2.187  0.9323  1.7268  0.4854
16224TIP3   OH270086   3.023   1.944  13.264 -0.9313  0.1836  0.3519
16224TIP3    H170087   2.954   1.908  13.321  0.6440  0.3992  2.5392
16224TIP3    H270088   3.003   2.037  13.260 -1.4227  0.0680 -0.0053
16225TIP3   OH270089   4.696   6.381  12.537  0.2271 -0.7413  0.2299
16225TIP3    H170090   4.756   6.315  12.503 -0.1588 -1.2347  0.5017
16225TIP3    H270091   4.751   6.438  12.590  0.6318 -0.6149 -0.3107
16226TIP3   OH270092   3.505   1.645   3.646 -0.1306  0.0775 -0.5815
16226TIP3    H170093   3.413   1.674   3.650  0.6633  2.8230  1.7055
16226TIP3    H270094   3.538   1.681   3.564 -0.9596 -0.5380 -1.2024
16227TIP3   OH270095   4.503   3.813  17.227  0.0366 -0.8410 -0.2495
16227TIP3    H170096   4.550   3.896  17.231  0.5104 -1.1320  0.5400
16227TIP3    H270097   4.565   3.750  17.264 -0.9217 -1.2637  0.6531
16228TIP3   OH270098   2.877   3.969   3.874  0.1429 -0.2504 -0.2080
16228TIP3    H170099   2.805   3.986   3.934 -0.9247 -2.8911 -0.6149
16228TIP3    H270100   2.955   4.003   3.919 -0.9633  0.1891  1.4524
16229TIP3   OH270101   0.609   0.913   0.193 -0.0361 -0.2654 -0.0823
16229TIP3    H170102   0.513   0.908   0.194 -0.0608  0.1041  0.6636
16229TIP3    H270103   0.628   0.988   0.137 -0.2147  0.0433  0.2638
16230TIP3   OH270104   0.703   3.186  13.708 -0.8397 -0.6204 -0.9098
16230TIP3    H170105   0.708   3.146  13.795 -1.0053 -0.2594 -0.7339
16230TIP3    H270106   0.686   3.278  13.725  0.8437 -0.1975 -1.2692
16231TIP3   OH270107   3.865   4.860  16.275 -0.3189  0.2080  0.2032
16231TIP3    H170108   3.831   4.825  16.357 -0.8793 -1.1753 -0.5649
16231TIP3    H270109   3.960   4.851  16.282 -0.3087  0.8630  1.0040
16232TIP3   OH270110   4.729   2.048   1.397 -0.2863 -0.1736 -0.4947
16232TIP3    H170111   4.746   1.967   1.444  0.2660  0.6752  0.8416
16232TIP3    H270112   4.807   2.101   1.411 -1.1117  1.0441 -0.3228
16233TIP3   OH270113   6.556   1.596   2.210  0.2522 -0.2207  0.5342
16233TIP3    H170114   6.565   1.569   2.119 -2.6636  0.6038 -0.0819
16233TIP3    H270115   6.584   1.688   2.211  3.1977 -1.0035  1.1917
16234TIP3   OH270116   3.755   3.497  12.499  0.6103 -0.0200  0.0068
16234TIP3    H170117   3.847   3.476  12.511  0.4942 -1.2593 -1.0364
16234TIP3    H270118   3.736   3.470  12.409 -1.1244 -1.1705  0.6531
16235TIP3   OH270119   5.002   2.193   2.674  0.0631  0.2066 -0.2104
16235TIP3    H170120   4.959   2.109   2.659  0.0015  0.2980 -0.5582
16235TIP3    H270121   5.079   2.190   2.617  0.5396  0.0289  0.4327
16236TIP3   OH270122   5.947   0.240   5.309 -0.0749 -0.5775  0.2017
16236TIP3    H170123   5.942   0.150   5.278 -2.0139 -0.7556  0.9386
16236TIP3    H270124   5.857   0.271   5.309  0.4643  1.1149  0.7199
16237TIP3   OH270125   4.005   2.538  12.015 -0.1469  0.4777  0.0824
16237TIP3    H170126   3.939   2.470  12.029 -0.1069  0.4876  0.3282
16237TIP3    H270127   4.067   2.500  11.954  0.3929 -0.0604  0.9589
16238TIP3   OH270128   2.430   0.938  16.301 -0.4653 -0.5115 -0.8334
16238TIP3    H170129   2.448   1.019  16.253  0.8558  0.3274  0.9567
16238TIP3    H270130   2.493   0.874  16.265 -1.3644 -0.7221 -2.0980
16239TIP3   OH270131   2.293   4.067  13.934  0.0338  0.4974  0.6520
16239TIP3    H170132   2.379   4.035  13.962  0.1397  0.2602  0.0670
16239TIP3    H270133   2.301   4.076  13.839 -1.1750 -1.4009  0.3215
16240TIP3   OH270134   3.787   1.931   0.226 -0.1406 -0.7174  0.0666
16240TIP3    H170135   3.761   2.007   0.278  0.8002  0.0256 -0.5133
16240TIP3    H270136   3.836   1.876   0.287  0.8362  0.0813  0.0376
16241TIP3   OH270137   2.001   3.368   2.786 -0.2690 -0.6208 -0.1166
16241TIP3    H170138   1.927   3.387   2.844  1.0642  2.9553  0.6462
16241TIP3    H270139   2.068   3.330   2.843 -1.1861 -3.3522 -0.7094
16242TIP3   OH270140   1.469   4.139   5.588  0.2212  0.2446 -0.2027
16242TIP3    H170141   1.534   4.090   5.639  1.2960  1.2535 -0.5627
16242TIP3    H270142   1.386   4.123   5.634  0.9736  0.2125  1.2202
16243TIP3   OH270143   1.573   2.313   0.554  0.2469  0.4860  0.3995
16243TIP3    H170144   1.500   2.299   0.615 -0.4431  0.3451 -0.4311
16243TIP3    H270145   1.644   2.260   0.589 -0.7507 -1.1801  0.0337
16244TIP3   OH270146   0.822   5.031  11.644 -0.1810  0.6374  0.0483
16244TIP3    H170147   0.784   4.962  11.699  0.0873 -0.4057 -1.0318
16244TIP3    H270148   0.783   5.016  11.558  1.5290  0.4732 -0.7320
16245TIP3   OH270149   6.328   4.692  13.248  0.2543  0.4029 -0.7480
16245TIP3    H170150   6.364   4.699  13.336 -0.7694  0.5936 -0.3421
16245TIP3    H270151   6.405   4.674  13.193  0.7954 -0.6478  0.2916
16246TIP3   OH270152   3.764   5.860   1.458 -0.2214  0.0381 -0.1186
16246TIP3    H170153   3.680   5.882   1.417  0.4107  0.5336 -1.1971
16246TIP3    H270154   3.817   5.938   1.448  0.1637 -0.0377  1.1630
16247TIP3   OH270155   0.637   1.649   1.798 -0.3154  0.4835  0.1297
16247TIP3    H170156   0.728   1.642   1.826 -0.8604 -0.5341  1.7367
16247TIP3    H270157   0.599   1.715   1.856 -0.8053  0.3355 -0.0177
16248TIP3   OH270158   4.087   1.748   3.842 -0.0582  0.0644 -0.2938
16248TIP3    H170159   4.090   1.667   3.894  0.0804  0.3942  0.2184
16248TIP3    H270160   3.995   1.774   3.845 -0.5663 -1.2508 -2.3207
16249TIP3   OH270161   0.358   1.212   0.300 -0.8640  0.3912  0.4824
16249TIP3    H170162   0.376   1.119   0.283 -0.3201  0.8836 -2.1265
16249TIP3    H270163   0.262   1.215   0.309 -1.0442 -0.2920 -0.8201
16250TIP3   OH270164   6.153   5.830   0.831  0.3092 -0.2211  0.1421
16250TIP3    H170165   6.165   5.845   0.925 -0.7516  0.6984  0.1571
16250TIP3    H270166   6.241   5.823   0.796  0.7124 -0.8535  1.2492
16251TIP3   OH270167   0.666   0.023   4.825  0.2600 -0.1816 -0.9292
16251TIP3    H170168   0.758   0.050   4.824  0.4650 -0.7647  0.4570
16251TIP3    H270169   0.618   0.102   4.847  0.6876 -0.4272  1.0792
16252TIP3   OH270170   5.253   0.771  13.182  0.3036 -0.3421 -0.3043
16252TIP3    H170171   5.283   0.686  13.215  1.2097 -0.3088 -1.0221
16252TIP3    H270172   5.213   0.813  13.258  1.7500 -0.5387  0.5996
16253TIP3   OH270173   6.208   1.031  15.683 -0.5135 -0.4129 -0.1176
16253TIP3    H170174   6.268   1.049  15.611  0.7779 -2.2911  0.4092
16253TIP3    H270175   6.255   0.968  15.739 -2.5945 -1.2463  0.8247
16254TIP3   OH270176   4.777   0.012   6.407 -0.0852  0.5212 -0.4230
16254TIP3    H170177   4.809  -0.026   6.489  1.4865 -0.4480 -1.4361
16254TIP3    H270178   4.713   0.077   6.434 -0.3717 -0.5053  1.5256
16255TIP3   OH270179   0.975   3.256   1.316  0.2900 -0.2941  0.1064
16255TIP3    H170180   0.892   3.231   1.275  1.6405 -0.4109 -2.8088
16255TIP3    H270181   0.975   3.352   1.313  1.2322 -0.3070 -2.2291
16256TIP3   OH270182   6.463   3.538  14.769  0.1186  0.5501 -0.3070
16256TIP3    H170183   6.556   3.553  14.784  0.6376 -2.3326 -0.2438
16256TIP3    H270184   6.419   3.594  14.833  1.8633  0.4328  1.0498
16257TIP3   OH270185   5.585   6.282  11.792 -0.3174  0.7540 -0.4963
16257TIP3    H170186   5.589   6.373  11.820 -2.4367  0.1968  2.0995
16257TIP3    H270187   5.491   6.261  11.792  0.1630 -1.8100  0.4902
16258TIP3   OH270188   3.909   6.493  14.269  0.3744  0.0554  0.0062
16258TIP3    H170189   3.972   6.564  14.260  0.0632  0.4553  0.9024
16258TIP3    H270190   3.959   6.421  14.308  0.6869 -0.2268 -0.8920
16259TIP3   OH270191   2.795   6.194  13.321  0.3870  0.0659  0.7072
16259TIP3    H170192   2.784   6.178  13.415 -0.2709  0.3066  0.6767
16259TIP3    H270193   2.883   6.164  13.302  0.4799 -0.1071  1.3805
16260TIP3   OH270194   5.494   6.623   1.183 -0.2473 -0.1397 -0.4701
16260TIP3    H170195   5.531   6.669   1.258 -1.0824 -1.2016  0.6307
16260TIP3    H270196   5.405   6.658   1.175 -0.4717 -0.6974 -0.3910
16261TIP3   OH270197   6.337   2.292   4.784 -0.1242  0.1697  0.2764
16261TIP3    H170198   6.348   2.208   4.829  1.9212  1.6921  2.8728
16261TIP3    H270199   6.258   2.330   4.822 -0.3740 -0.0336 -0.0296
16262TIP3   OH270200   5.734   2.135  16.502 -0.4745 -0.2258  0.6273
16262TIP3    H170201   5.674   2.167  16.435  1.5269  1.4514 -0.4719
16262TIP3    H270202   5.718   2.191  16.577 -0.3066  0.1975  0.3480
16263TIP3   OH270203   3.279   4.323   6.428  0.1506  0.3146 -0.4490
16263TIP3    H170204   3.323   4.283   6.503 -0.1088 -1.0484 -0.9840
16263TIP3    H270205   3.337   4.305   6.354 -0.5000 -0.0629 -0.8818
16264TIP3   OH270206   3.568   1.343  16.528 -0.1155 -0.1022 -0.1852
16264TIP3    H170207   3.489   1.346  16.583  0.1905 -0.9468  0.3294
16264TIP3    H270208   3.548   1.277  16.462  0.3374 -0.6977  0.2577
16265TIP3   OH270209   3.487   6.364  15.405 -0.2996 -0.2444 -0.7027
16265TIP3    H170210   3.454   6.453  15.411  0.5452  0.0299  0.1281
16265TIP3    H270211   3.418   6.316  15.359 -1.3095  0.5669 -0.0839
16266TIP3   OH270212   3.669   4.548   4.420 -0.3084  0.4950  0.1356
16266TIP3    H170213   3.618   4.486   4.473 -0.4360  0.2510 -0.2710
16266TIP3    H270214   3.740   4.575   4.478  0.2759 -0.7199  0.0186
16267TIP3   OH270215   2.970   0.607  13.092  0.0301  0.5642 -0.4573
16267TIP3    H170216   2.978   0.602  13.187 -1.7474 -1.2223 -0.3235
16267TIP3    H270217   2.883   0.645  13.077  0.4062  1.0937 -1.3764
16268TIP3   OH270218   0.306   0.609  16.679  0.0193  0.1719 -0.1323
16268TIP3    H170219   0.401   0.620  16.677  0.0472  0.0021  0.0934
16268TIP3    H270220   0.293   0.514  16.685 -0.2090  0.0582 -2.0337
16269TIP3   OH270221   4.619   4.414   5.545 -0.5908 -0.2242  0.2450
16269TIP3    H170222   4.705   4.447   5.570 -0.5123 -0.4260  0.2486
16269TIP3    H270223   4.635   4.358   5.469 -0.8590  0.5593 -0.4043
16270TIP3   OH270224   2.897   3.931   1.581 -0.8020  0.7003 -0.3007
16270TIP3    H170225   2.918   3.983   1.504 -1.3597  1.3879 -0.0077
16270TIP3    H270226   2.811   3.963   1.608 -1.8620 -1.3848 -0.9554
16271TIP3   OH270227   2.214   4.756  15.768 -0.3081 -0.1212  0.3897
16271TIP3    H170228   2.297   4.773  15.724 -1.1589  0.3989 -1.0878
16271TIP3    H270229   2.224   4.796  15.855  1.5590 -1.5268  0.8788
16272TIP3   OH270230   0.338   5.429   5.522  0.0435 -0.4546 -0.3182
16272TIP3    H170231   0.318   5.517   5.489 -0.1818 -0.0537  0.8405
16272TIP3    H270232   0.432   5.419   5.507  0.4729  0.7790  1.2909
16273TIP3   OH270233   3.495   3.949   4.933  0.3145  0.3594  0.4455
16273TIP3    H170234   3.471   3.856   4.929 -1.2180  0.6295  2.1695
16273TIP3    H270235   3.581   3.950   4.974  0.2075 -0.2989  0.7045
16274TIP3   OH270236   4.158   2.906   1.682 -0.1089  0.0241 -0.3309
16274TIP3    H170237   4.118   2.975   1.736  0.9251  1.1637 -0.9726
16274TIP3    H270238   4.112   2.912   1.598 -0.8423 -0.9014 -0.0148
16275TIP3   OH270239   3.246   5.105  15.493  0.1490  0.5088  0.2730
16275TIP3    H170240   3.200   5.186  15.473  1.7415  1.4423  0.1742
16275TIP3    H270241   3.265   5.110  15.587  0.8344  0.5994  0.1407
16276TIP3   OH270242   5.546   3.394   5.676  0.3449  0.0544 -0.1383
16276TIP3    H170243   5.580   3.472   5.719  0.9174  0.3665 -1.1230
16276TIP3    H270244   5.597   3.322   5.711  0.6420  0.2754 -0.1156
16277TIP3   OH270245   6.216   5.822   1.388  0.8527  0.2049 -0.4475
16277TIP3    H170246   6.191   5.765   1.460  2.8256 -1.4205 -0.9750
16277TIP3    H270247   6.198   5.911   1.421  1.9568 -0.4477  2.1597
16278TIP3   OH270248   0.310   1.505  12.152  0.0748 -0.4426  0.0498
16278TIP3    H170249   0.240   1.449  12.119 -0.8700 -0.2777  1.6713
16278TIP3    H270250   0.383   1.445  12.169 -0.1201 -0.8187 -0.4411
16279TIP3   OH270251   0.791   1.700  12.354  0.1322 -0.6013  0.5800
16279TIP3    H170252   0.787   1.792  12.380  3.5384 -0.0910 -0.3296
16279TIP3    H270253   0.796   1.652  12.437  1.0609  0.2465  1.0303
16280TIP3   OH270254   2.209   5.931   2.455 -0.3177 -0.0876 -0.2162
16280TIP3    H170255   2.226   5.876   2.379  1.4596  0.2543 -0.1023
16280TIP3    H270256   2.244   5.882   2.529 -0.4949  0.3335  0.1519
16281TIP3   OH270257   2.322   5.886   5.866  0.0657  0.5939  0.6648
16281TIP3    H170258   2.410   5.865   5.837 -0.3684 -1.6084  0.7955
16281TIP3    H270259   2.331   5.901   5.961  0.1447 -0.8714  0.9143
16282TIP3   OH270260   6.633   6.704  15.488 -0.2800 -0.2324 -0.0190
16282TIP3    H170261   6.565   6.769  15.507  0.7197  0.7715  0.2198
16282TIP3    H270262   6.709   6.734  15.537  0.4647 -1.1168 -0.6056
16283TIP3   OH270263   1.071   5.906   0.850 -0.3592  0.1868 -0.3383
16283TIP3    H170264   1.138   5.950   0.903  1.1448  0.0372 -2.0119
16283TIP3    H270265   0.995   5.964   0.853 -0.0064  0.6093  1.1994
16284TIP3   OH270266   2.070   5.088  12.798  0.0715  0.0181  0.2008
16284TIP3    H170267   2.054   4.994  12.806  0.8213 -0.1902 -0.5066
16284TIP3    H270268   2.149   5.093  12.743  0.6522  1.0270  1.0895
16285TIP3   OH270269   4.743   1.191   5.247 -0.1350  0.0907  0.4685
16285TIP3    H170270   4.755   1.204   5.153  1.2047 -3.0888  0.0794
16285TIP3    H270271   4.649   1.199   5.260 -0.3546  0.5193 -1.1795
16286TIP3   OH270272   0.488   3.903   5.319  0.1191 -0.2283  0.2195
16286TIP3    H170273   0.488   3.842   5.245 -0.1861 -0.1768  0.1783
16286TIP3    H270274   0.561   3.874   5.373  0.1665 -0.4426  0.0432
16287TIP3   OH270275   1.731   1.889  14.634  0.1382 -0.1514 -0.0375
16287TIP3    H170276   1.719   1.980  14.663  0.1319 -0.4511  0.9535
16287TIP3    H270277   1.799   1.894  14.567 -0.4287  0.6798 -0.5684
16288TIP3   OH270278   6.182   0.596   1.842  0.4864  0.0810  0.6697
16288TIP3    H170279   6.268   0.586   1.801  0.9209 -0.5529  1.6919
16288TIP3    H270280   6.162   0.689   1.833  1.3071  0.2481  0.4637
16289TIP3   OH270281   6.410   0.586   2.966 -0.8981  0.0786  0.0690
16289TIP3    H170282   6.333   0.533   2.949 -0.3458 -1.2585  1.5409
16289TIP3    H270283   6.387   0.638   3.043 -0.1411 -0.8106  0.9240
16290TIP3   OH270284   5.695   4.123  14.625 -1.1558 -0.1952  0.4480
16290TIP3    H170285   5.656   4.192  14.572 -2.2331 -1.2117 -0.1288
16290TIP3    H270286   5.662   4.041  14.587 -0.6435 -1.0042  1.6685
16291TIP3   OH270287   3.998   0.955   5.786  0.7021 -0.3447 -1.1525
16291TIP3    H170288   4.044   0.873   5.768  1.0620 -0.9514  2.0303
16291TIP3    H270289   4.041   0.991   5.863 -2.3046  0.5352  0.2718
16292TIP3   OH270290   1.250   5.741   0.144 -0.3722  0.1538  0.2268
16292TIP3    H170291   1.264   5.829   0.107 -0.5375  0.2383  0.3639
16292TIP3    H270292   1.257   5.755   0.239 -2.0957  0.3297  0.3575
16293TIP3   OH270293   5.972   4.502   5.402  0.3706  0.6394 -0.2549
16293TIP3    H170294   5.895   4.445   5.393  0.5049  0.4530 -0.2075
16293TIP3    H270295   5.942   4.587   5.368  0.0982  0.6060 -0.1015
16294TIP3   OH270296   0.408   0.071  14.725 -0.3431 -0.4551  0.6782
16294TIP3    H170297   0.463   0.149  14.732 -0.8665  0.1209 -1.1719
16294TIP3    H270298   0.407   0.034  14.814  1.6075  0.4667  1.1321
16295TIP3   OH270299   3.927   5.446   4.930 -0.0823  0.2496  0.6286
16295TIP3    H170300   3.888   5.532   4.914  1.4188  0.9603  0.5651
16295TIP3    H270301   3.865   5.384   4.891 -1.5591  1.2283  1.3281
16296TIP3   OH270302   5.853   4.063  12.560 -0.3753 -0.2214 -0.2870
16296TIP3    H170303   5.828   4.139  12.612  1.1856 -0.2974  0.6237
16296TIP3    H270304   5.895   4.099  12.481  1.6882 -0.0765  0.8085
16297TIP3   OH270305   4.077   0.816   3.576 -0.1301  0.6202 -0.2876
16297TIP3    H170306   4.133   0.749   3.537 -0.9317  1.0368 -2.2257
16297TIP3    H270307   3.998   0.817   3.523 -1.9895  0.1711  2.2655
16298TIP3   OH270308   3.270   4.416  12.297  0.1300 -0.2305 -0.1935
16298TIP3    H170309   3.294   4.331  12.333 -0.2541 -1.1303 -1.9358
16298TIP3    H270310   3.250   4.470  12.373 -2.8305 -2.6573  0.9392
16299TIP3   OH270311   2.130   2.414  12.077  0.5527  0.1590  0.2108
16299TIP3    H170312   2.158   2.424  11.986  0.5514  1.2493  0.3214
16299TIP3    H270313   2.179   2.338  12.109 -0.7108 -1.3388 -1.1823
16300TIP3   OH270314   4.503   0.288   1.947 -0.7059 -0.4613 -0.3081
16300TIP3    H170315   4.467   0.219   1.892  0.9727 -1.4788 -0.2070
16300TIP3    H270316   4.445   0.363   1.934 -0.8988 -0.9676 -2.6893
16301TIP3   OH270317   4.542   4.948  16.262 -0.0514 -0.1822  0.0856
16301TIP3    H170318   4.529   5.031  16.215 -0.3122 -0.1681  0.1830
16301TIP3    H270319   4.503   4.963  16.348  0.5757 -0.1512  0.3719
16302TIP3   OH270320   3.559   2.525  13.887 -0.7236 -0.9849 -0.4642
16302TIP3    H170321   3.473   2.552  13.917  0.5877  3.7763 -0.3121
16302TIP3    H270322   3.612   2.520  13.966 -0.5095 -2.8054 -0.6759
16303TIP3   OH270323   4.859   5.641   2.765 -0.2246  0.1351 -0.8017
16303TIP3    H170324   4.780   5.622   2.715  0.4398  0.0646 -1.8440
16303TIP3    H270325   4.916   5.566   2.751 -0.2354 -0.1555  0.5392
16304TIP3   OH270326   5.839   2.598  12.504 -0.0227  0.0082  0.1063
16304TIP3    H170327   5.752   2.637  12.502  0.6534  1.6169  0.2311
16304TIP3    H270328   5.894   2.662  12.458  1.5154  0.2212  2.1324
16305TIP3   OH270329   3.264   1.229   5.565  0.3490 -0.1185  0.0354
16305TIP3    H170330   3.341   1.172   5.562 -1.0262 -2.0639 -2.5944
16305TIP3    H270331   3.272   1.285   5.488 -0.3188  0.4816  0.3854
16306TIP3   OH270332   3.186   2.516  11.510 -0.0371  0.4592  0.4582
16306TIP3    H170333   3.236   2.585  11.465 -0.8453  1.6372  1.2954
16306TIP3    H270334   3.247   2.443  11.518  0.6725  0.8686 -0.9475
16307TIP3   OH270335   5.148   4.909  14.957 -0.1659  0.2516  0.2563
16307TIP3    H170336   5.166   4.989  15.006  0.4378 -0.5771  1.4270
16307TIP3    H270337   5.235   4.878  14.930 -0.3083 -0.5729  0.7350
16308TIP3   OH270338   1.755   3.560   5.151  0.0943 -0.5835 -0.5555
16308TIP3    H170339   1.834   3.591   5.107  1.4725 -0.8867  1.5537
16308TIP3    H270340   1.714   3.639   5.186  1.3508 -0.6961  1.2577
16309TIP3   OH270341   3.282   3.717  11.599  0.0703  0.3278  0.5518
16309TIP3    H170342   3.289   3.753  11.687 -0.8417 -0.1876  0.8449
16309TIP3    H270343   3.192   3.738  11.572  0.9787  2.4776 -1.1549
16310TIP3   OH270344   4.024   1.035  15.262 -0.1828 -0.2129  0.5446
16310TIP3    H170345   3.980   0.962  15.306 -1.3458 -1.6810 -2.7778
16310TIP3    H270346   4.116   1.008  15.257 -0.4816 -1.1596 -0.0208
16311TIP3   OH270347   3.071   2.345   2.012 -0.3572  0.2804  0.0078
16311TIP3    H170348   3.135   2.414   1.992 -0.0229  0.1909  0.7307
16311TIP3    H270349   3.121   2.280   2.062 -0.5386 -0.7460 -1.1122
16312TIP3   OH270350   1.424   3.962   3.187 -0.4856 -0.3170  0.4002
16312TIP3    H170351   1.388   4.050   3.178 -2.2358 -1.0201  0.2218
16312TIP3    H270352   1.362   3.916   3.244 -1.1006 -2.2363 -1.7020
16313TIP3   OH270353   6.214   5.993  14.074 -0.3472 -0.3561  0.2112
16313TIP3    H170354   6.125   6.019  14.048 -0.0587  0.1238 -0.3349
16313TIP3    H270355   6.263   6.075  14.075  0.3036 -0.7226 -0.3974
16314TIP3   OH270356   1.965   6.593  11.461  0.6160  0.0776 -0.1856
16314TIP3    H170357   1.963   6.670  11.518 -0.6221  0.7899 -1.1511
16314TIP3    H270358   2.041   6.607  11.404  0.1869  0.7807 -0.5964
16315TIP3   OH270359   5.691   4.264  16.969 -0.2443 -0.0457  0.1418
16315TIP3    H170360   5.703   4.197  17.037  0.2022 -1.3974 -1.1909
16315TIP3    H270361   5.608   4.241  16.928 -0.1186  0.2514 -0.2844
16316TIP3   OH270362   1.754   0.242  15.178  0.9548  0.1050  0.3322
16316TIP3    H170363   1.713   0.318  15.136  2.4236  0.7664  0.0219
16316TIP3    H270364   1.775   0.184  15.105  1.3732  0.1775  0.3945
16317TIP3   OH270365   6.742   3.646  14.629 -0.2402 -0.0826 -0.0665
16317TIP3    H170366   6.726   3.719  14.570 -0.8581 -1.0264 -1.1205
16317TIP3    H270367   6.711   3.676  14.714  0.5838  1.2752 -0.2302
16318TIP3   OH270368   4.956   3.910   3.662 -0.0407 -0.4162 -0.5642
16318TIP3    H170369   4.975   3.917   3.755 -1.5396  0.0404 -0.2771
16318TIP3    H270370   4.868   3.946   3.652 -0.0362 -0.7649 -2.1060
16319TIP3   OH270371   5.544   1.244  16.976  0.0295 -0.2183 -0.3113
16319TIP3    H170372   5.522   1.328  16.936 -1.2811 -0.2492  0.2865
16319TIP3    H270373   5.469   1.188  16.957  1.3513 -1.6066 -1.6048
16320TIP3   OH270374   3.947   1.775   0.392 -0.1461  0.2413 -0.7193
16320TIP3    H170375   4.006   1.850   0.402  0.2063 -0.2871  1.9246
16320TIP3    H270376   3.951   1.730   0.476  0.1548 -3.1614 -2.3877
16321TIP3   OH270377   2.484   6.062   2.238 -0.5966 -0.1220 -0.8408
16321TIP3    H170378   2.442   5.992   2.188 -0.0735  0.6516 -2.4384
16321TIP3    H270379   2.437   6.141   2.212  1.6086  0.7328 -2.5253
16322TIP3   OH270380   3.740   4.744  14.877  0.4367 -0.1181 -0.1905
16322TIP3    H170381   3.828   4.740  14.915  1.0653  2.3659 -1.1764
16322TIP3    H270382   3.723   4.837  14.865 -1.7245 -0.6002 -1.4841
16323TIP3   OH270383   5.050   0.011  16.156 -0.5012  0.0492 -0.4612
16323TIP3    H170384   5.067   0.101  16.186 -0.7264  0.0004 -0.1811
16323TIP3    H270385   4.967   0.016  16.109 -0.8051 -0.1137  0.0464
16324TIP3   OH270386   0.942   0.330   6.484 -0.4840  0.3377  0.0629
16324TIP3    H170387   0.858   0.296   6.453  0.3943 -1.1514 -0.7966
16324TIP3    H270388   0.941   0.422   6.459 -2.2685  0.6250  0.9979
16325TIP3   OH270389   5.737   5.759  12.469  0.2715 -0.1205 -0.5718
16325TIP3    H170390   5.658   5.813  12.473  1.8558  2.3489 -0.3791
16325TIP3    H270391   5.719   5.694  12.401 -1.6197  0.8762 -1.0868
16326TIP3   OH270392   3.997   5.805  12.263 -0.2396 -0.3988 -0.3093
16326TIP3    H170393   3.935   5.865  12.304 -1.1628 -0.2629 -1.8537
16326TIP3    H270394   3.953   5.775  12.183 -0.3795 -4.1453  0.9812
16327TIP3   OH270395   1.174   4.666   3.321  0.0424 -0.5957  0.3433
16327TIP3    H170396   1.101   4.725   3.303  0.4010 -0.6754 -1.6543
16327TIP3    H270397   1.252   4.721   3.315  0.2600 -0.8852  0.4890
16328TIP3   OH270398   2.787   1.361   1.782 -0.3605  0.2102 -0.3496
16328TIP3    H170399   2.860   1.320   1.735 -1.6406 -0.6375 -1.6663
16328TIP3    H270400   2.827   1.436   1.827  1.2762 -0.0969 -1.2183
16329TIP3   OH270401   1.362   5.852  13.470 -0.1871  0.1623  0.3342
16329TIP3    H170402   1.322   5.843  13.557 -1.4524  0.8821 -0.1480
16329TIP3    H270403   1.456   5.855  13.487 -0.4289  0.4995  1.6992
16330TIP3   OH270404   0.442   4.992  16.432  0.3385 -0.7633  0.3327
16330TIP3    H170405   0.535   5.014  16.444 -0.0319  0.7969  0.5142
16330TIP3    H270406   0.416   5.039  16.353 -0.7961  0.5121  1.4210
16331TIP3   OH270407   6.042   1.282   5.412 -0.7793 -0.4769  0.0343
16331TIP3    H170408   6.002   1.208   5.458  1.1054 -2.0806 -0.7670
16331TIP3    H270409   6.066   1.343   5.482 -2.4939 -0.4989  0.7000
16332TIP3   OH270410   1.437   2.803   5.813 -0.2328 -0.3962  0.3459
16332TIP3    H170411   1.452   2.721   5.766  0.1286 -1.2043  1.8147
16332TIP3    H270412   1.425   2.777   5.905  0.2462  1.2099  0.9029
16333TIP3   OH270413   0.691   6.232  13.502 -0.3328  0.4031 -0.1498
16333TIP3    H170414   0.693   6.146  13.462 -0.7434  0.8125 -1.0805
16333TIP3    H270415   0.783   6.259  13.506 -0.2546  0.1903 -0.4748
16334TIP3   OH270416   0.133   1.955  10.297  0.2402 -0.1343  0.4815
16334TIP3    H170417   0.208   1.994  10.342  1.6396 -0.9922 -0.9530
16334TIP3    H270418   0.057   2.004  10.327  1.5001  1.3533  1.3405
16335TIP3   OH270419   5.077   5.776   0.378 -0.2949 -0.0251  0.3780
16335TIP3    H170420   5.118   5.690   0.364  2.0785  1.5165 -4.1283
16335TIP3    H270421   5.013   5.783   0.307  0.5696  2.3829 -0.2451
16336TIP3   OH270422   5.464   1.978  12.860 -0.0426 -0.4832  0.3807
16336TIP3    H170423   5.527   2.016  12.920 -0.5050  0.8814  0.0486
16336TIP3    H270424   5.512   1.909  12.814  0.9855  0.0483  0.6388
16337TIP3   OH270425   1.134   3.123   1.765 -0.7026  0.0770  0.5279
16337TIP3    H170426   1.094   3.122   1.852  0.5305  2.2883  1.1959
16337TIP3    H270427   1.159   3.214   1.751 -0.8190 -0.2283 -2.1515
16338TIP3   OH270428   2.721   1.306   1.298  0.5894  0.6982 -0.0508
16338TIP3    H170429   2.661   1.335   1.229 -2.0173  1.4758  2.3380
16338TIP3    H270430   2.773   1.237   1.258 -0.7607  1.1289 -2.7649
16339TIP3   OH270431   2.169   6.052  10.523  0.3813  0.1727  0.2290
16339TIP3    H170432   2.108   6.099  10.466 -0.4961 -0.0736  0.9515
16339TIP3    H270433   2.121   6.038  10.604  0.8059 -1.5145  0.2247
16340TIP3   OH270434   2.026   1.353   0.730 -0.3172 -0.0911  0.6002
16340TIP3    H170435   2.113   1.392   0.718  0.4528 -1.8991  0.0357
16340TIP3    H270436   1.994   1.392   0.811  1.6489 -0.4785  1.6134
16341TIP3   OH270437   5.672   0.382   0.123  0.1425 -0.4034  0.5198
16341TIP3    H170438   5.622   0.461   0.143  1.7188  0.6331  0.5700
16341TIP3    H270439   5.763   0.406   0.140  0.9957 -1.3532 -2.1516
16342TIP3   OH270440   2.582   0.982  11.245  0.1390 -0.0722 -0.0498
16342TIP3    H170441   2.654   0.921  11.258  0.0977 -0.1654 -0.2515
16342TIP3    H270442   2.544   0.995  11.332 -0.4717 -1.0860 -0.1598
16343TIP3   OH270443   4.907   6.199  15.334 -0.1721 -0.6615  0.0157
16343TIP3    H170444   4.858   6.190  15.416 -0.8853 -1.8556 -0.5133
16343TIP3    H270445   4.918   6.109  15.303  1.7602 -0.3614 -0.2438
16344TIP3   OH270446   2.633   6.062  14.082 -0.5538  0.9924 -0.2008
16344TIP3    H170447   2.578   5.987  14.059  0.7226  0.5130 -1.8633
16344TIP3    H270448   2.662   6.045  14.171  0.0959 -0.7618 -0.7132
16345TIP3   OH270449   3.163   5.657   0.531  0.1791 -0.3557  0.2097
16345TIP3    H170450   3.190   5.744   0.501  0.8669 -0.1529  1.3577
16345TIP3    H270451   3.068   5.655   0.516 -0.6611  2.2168  3.8904
16346TIP3   OH270452   0.906   5.540   2.979  0.0501  0.1245  0.0385
16346TIP3    H170453   0.935   5.537   3.070  0.6023 -0.2966 -0.1469
16346TIP3    H270454   0.820   5.498   2.979 -0.3298  0.8807  0.5004
16347TIP3   OH270455   5.912   0.199   2.030 -0.3208  0.6871 -0.5766
16347TIP3    H170456   5.998   0.228   2.001  0.6973 -1.1951  0.3378
16347TIP3    H270457   5.902   0.111   1.992 -2.7498  1.6088 -2.3316
16348TIP3   OH270458   1.114   1.999   0.454  0.3320 -0.5528  0.1515
16348TIP3    H170459   1.167   2.050   0.394 -0.3095 -0.8214 -0.6600
16348TIP3    H270460   1.139   1.908   0.438  1.7171 -0.5226  1.8325
16349TIP3   OH270461   1.352   0.667  15.520 -0.0877  0.2434 -0.6298
16349TIP3    H170462   1.289   0.649  15.450  1.3460  0.1680 -1.9413
16349TIP3    H270463   1.422   0.603  15.506 -0.8008 -1.3992  2.3139
16350TIP3   OH270464   5.312   1.785  14.967 -0.4329  0.3107  0.9240
16350TIP3    H170465   5.347   1.728  14.898 -3.1503 -0.6117  0.1615
16350TIP3    H270466   5.360   1.760  15.046 -0.7039 -2.2700  0.3666
16351TIP3   OH270467   3.665   5.361   1.674 -0.4627 -0.0764 -0.8038
16351TIP3    H170468   3.756   5.342   1.655 -0.4239  0.4980 -1.2100
16351TIP3    H270469   3.651   5.450   1.642 -1.2220 -0.2369 -0.9469
16352TIP3   OH270470   0.616   2.910   5.195  0.1153  0.0621 -0.2503
16352TIP3    H170471   0.542   2.958   5.158  0.0797 -1.2307 -1.9999
16352TIP3    H270472   0.684   2.975   5.207 -1.2073  1.2578  1.2613
16353TIP3   OH270473   1.057   3.363   4.030 -0.3557 -0.1290 -0.2544
16353TIP3    H170474   1.029   3.273   4.039 -0.2269 -0.2994 -1.3660
16353TIP3    H270475   0.985   3.415   4.065  0.3110 -0.6632  2.1246
16354TIP3   OH270476   1.852   5.987   0.260  0.2005  0.1119 -0.3292
16354TIP3    H170477   1.828   5.943   0.341  1.1094 -3.2321 -1.7229
16354TIP3    H270478   1.945   6.008   0.270  0.4088 -0.6472 -0.6220
16355TIP3   OH270479   0.347   3.212   3.377  0.0715 -0.9026 -0.5163
16355TIP3    H170480   0.403   3.144   3.414 -0.9480 -1.1973  0.5770
16355TIP3    H270481   0.296   3.167   3.310  0.2739 -0.9344 -0.6470
16356TIP3   OH270482   2.066   4.790   4.227  0.2115 -0.4396 -0.6234
16356TIP3    H170483   1.973   4.804   4.207 -0.0793 -0.6557  0.4801
16356TIP3    H270484   2.104   4.760   4.145 -0.5246  0.4309 -1.3132
16357TIP3   OH270485   5.927   3.633   4.866 -0.2635  0.4753 -0.1751
16357TIP3    H170486   5.871   3.642   4.943 -1.1153  1.3913 -0.8690
16357TIP3    H270487   5.917   3.541   4.840 -0.9324  0.4634  0.0950
16358TIP3   OH270488   1.835   4.062  12.935  0.2501 -0.1627 -0.3845
16358TIP3    H170489   1.806   4.102  12.853 -0.1216  0.4599  0.0386
16358TIP3    H270490   1.900   4.123  12.969 -0.1070 -0.0601  0.1244
16359TIP3   OH270491   2.630   4.080  11.876 -0.0954 -0.0744  0.2672
16359TIP3    H170492   2.545   4.039  11.892  0.3176 -0.7167  0.8454
16359TIP3    H270493   2.641   4.076  11.781 -0.5363 -0.3436  0.2268
16360TIP3   OH270494   2.025   1.611  17.215 -0.1205 -0.0755 -0.2378
16360TIP3    H170495   2.028   1.644  17.125 -0.0173  1.0917  0.1903
16360TIP3    H270496   2.092   1.542  17.217  1.3531  1.2944 -0.5122
16361TIP3   OH270497   5.029   3.776   4.575  0.0632 -0.0738 -0.2789
16361TIP3    H170498   5.074   3.831   4.640  1.5376 -1.3581 -0.1562
16361TIP3    H270499   5.045   3.820   4.491  1.9607 -0.7032 -0.2886
16362TIP3   OH270500   5.809   3.225   1.909 -0.2024  0.7130  0.2353
16362TIP3    H170501   5.796   3.275   1.829  1.2499 -0.2874 -0.6862
16362TIP3    H270502   5.795   3.288   1.979  1.0685  2.3184 -0.8580
16363TIP3   OH270503   5.398   2.462   3.331  0.0909  0.0889  0.0332
16363TIP3    H170504   5.452   2.510   3.269  2.9020 -1.6926  0.9210
16363TIP3    H270505   5.419   2.499   3.416  0.7497 -1.3066  0.5066
16364TIP3   OH270506   3.287   6.476   5.555 -0.5889  0.2380  0.0775
16364TIP3    H170507   3.368   6.502   5.599 -1.4189  1.3875  1.0020
16364TIP3    H270508   3.290   6.521   5.471  0.2230 -0.6134 -0.3671
16365TIP3   OH270509   6.717   0.310  13.495  0.3926  0.0317  0.2582
16365TIP3    H170510   6.800   0.277  13.461 -0.5201 -0.2247 -1.8966
16365TIP3    H270511   6.665   0.328  13.417 -1.0676  1.5635  1.5107
16366TIP3   OH270512   3.519   6.612   1.930  0.0544  0.3935 -0.2088
16366TIP3    H170513   3.543   6.700   1.960  0.0091  0.1674  0.5098
16366TIP3    H270514   3.491   6.625   1.840  1.2321  0.9286 -0.5234
16367TIP3   OH270515   5.004   2.022   3.869  0.4735 -0.1342 -0.0048
16367TIP3    H170516   4.961   2.039   3.953  2.1184 -0.3656  0.9326
16367TIP3    H270517   5.098   2.025   3.889  0.9853  1.7242 -2.2088
16368TIP3   OH270518   5.208   3.210   5.074  0.2464  0.1330  0.2899
16368TIP3    H170519   5.234   3.125   5.040 -1.4655 -0.3496  0.1275
16368TIP3    H270520   5.138   3.191   5.137 -0.7206  1.4517 -0.3392
16369TIP3   OH270521   5.907   5.491  16.196 -0.2454  0.1919  0.1414
16369TIP3    H170522   5.850   5.474  16.121  1.0908  0.4015 -0.9650
16369TIP3    H270523   5.897   5.585  16.214  1.4714  0.7561 -1.5756
16370TIP3   OH270524   2.364   2.755  11.490  0.0331  0.5403  0.6392
16370TIP3    H170525   2.450   2.795  11.501 -0.1560  1.2769 -0.3879
16370TIP3    H270526   2.311   2.794  11.559  0.1630  1.1851  0.3818
16371TIP3   OH270527   4.155   6.738  13.461  0.3685 -0.5050  0.8293
16371TIP3    H170528   4.223   6.806  13.468 -0.1823  0.0162  1.2514
16371TIP3    H270529   4.082   6.772  13.513 -0.8399 -0.3144 -0.9037
16372TIP3   OH270530   3.872   1.412   2.887 -0.3178  0.3370 -0.4630
16372TIP3    H170531   3.870   1.508   2.879  2.6282  0.4597 -0.6653
16372TIP3    H270532   3.922   1.395   2.966  1.1471 -1.0014 -1.6175
16373TIP3   OH270533   6.073   5.046  16.685 -0.5719  0.2786  0.0728
16373TIP3    H170534   6.020   5.019  16.760 -0.3285  0.4780  0.3205
16373TIP3    H270535   6.009   5.068  16.617 -0.7948  0.1263  0.2325
16374TIP3   OH270536   2.791   6.695   6.668 -0.3212 -0.4515  0.1834
16374TIP3    H170537   2.726   6.758   6.701 -0.2746  0.2615 -1.0127
16374TIP3    H270538   2.866   6.749   6.642 -0.1799 -1.0178 -0.6242
16375TIP3   OH270539   5.179   5.196  16.720  0.3755 -0.1773 -1.0073
16375TIP3    H170540   5.179   5.152  16.635  0.5314  1.1664 -1.7351
16375TIP3    H270541   5.270   5.224  16.732 -0.0036  1.3581 -1.3682
16376TIP3   OH270542   3.556   0.414   4.883 -0.3060 -0.3492 -0.0757
16376TIP3    H170543   3.470   0.408   4.924 -0.7650  2.0194 -0.5513
16376TIP3    H270544   3.606   0.471   4.941  0.0405  0.4736 -1.1483
16377TIP3   OH270545   5.337   4.467   6.007 -0.2450 -0.1462  0.1151
16377TIP3    H170546   5.360   4.450   5.916 -2.3112  1.9705 -0.9247
16377TIP3    H270547   5.272   4.400   6.029  1.7381 -1.9251  0.7851
16378TIP3   OH270548   4.748   4.498   1.693  0.7111  0.4338 -0.0390
16378TIP3    H170549   4.780   4.575   1.647  0.7449  0.6487  0.3399
16378TIP3    H270550   4.719   4.439   1.624  1.3103  0.5106 -0.3607
16379TIP3   OH270551   2.719   3.092  11.733 -0.2011  0.4099  0.1439
16379TIP3    H170552   2.798   3.037  11.738 -0.2636  0.0564 -1.9706
16379TIP3    H270553   2.717   3.122  11.642  0.1478  4.4440  1.2674
16380TIP3   OH270554   6.360   3.281  14.306  0.0773  0.1732 -0.2884
16380TIP3    H170555   6.428   3.282  14.238  1.2008  2.5741  0.7642
16380TIP3    H270556   6.395   3.221  14.372 -0.3241 -1.0062 -1.1065
16381TIP3   OH270557   1.950   3.414  16.840 -0.0821  0.1205  0.8566
16381TIP3    H170558   1.965   3.419  16.746 -0.1282  2.1235  0.9021
16381TIP3    H270559   1.948   3.321  16.860 -1.0943 -0.3679 -1.2886
16382TIP3   OH270560   1.378   0.660   5.839 -0.5278  0.3099 -0.5769
16382TIP3    H170561   1.290   0.688   5.815 -0.7707 -0.1827 -0.2618
16382TIP3    H270562   1.373   0.642   5.933 -0.4026 -0.8818 -0.7810
16383TIP3   OH270563   6.321   5.786   2.984 -0.3243 -0.5132 -0.2011
16383TIP3    H170564   6.366   5.871   2.982  0.0417 -0.6864  0.4930
16383TIP3    H270565   6.380   5.727   2.937 -1.0924 -0.1543 -1.6679
16384TIP3   OH270566   5.205   4.619  15.031  0.2738 -0.0703  0.2677
16384TIP3    H170567   5.118   4.656  15.016  0.6578  0.4715 -0.7409
16384TIP3    H270568   5.191   4.524  15.034 -0.2132 -0.0583 -1.0141
16385TIP3   OH270569   5.522   2.450   3.587 -0.2361 -0.0827  0.2855
16385TIP3    H170570   5.603   2.400   3.578 -0.7325 -0.6130 -1.5409
16385TIP3    H270571   5.545   2.523   3.645  1.2842 -0.7449  0.5521
16386TIP3   OH270572   6.193   1.080   3.100  0.1511 -0.1106 -0.8665
16386TIP3    H170573   6.195   1.005   3.041 -1.1949 -0.1863 -0.8417
16386TIP3    H270574   6.103   1.112   3.095  0.8316  1.8869 -1.3531
16387TIP3   OH270575   3.407   3.167  10.861 -0.4898 -0.9724 -0.7321
16387TIP3    H170576   3.424   3.073  10.855 -0.1064 -0.8732 -1.2278
16387TIP3    H270577   3.469   3.207  10.801  1.5409 -0.1500  1.7318
16388TIP3   OH270578   5.435   0.169  12.680 -0.1546 -0.4678 -0.2285
16388TIP3    H170579   5.475   0.115  12.749  0.4603  0.4103  0.1339
16388TIP3    H270580   5.419   0.253  12.723  0.1391  0.0591 -1.1312
16389TIP3   OH270581   3.084   3.888  16.192 -0.3725  0.2898  0.4512
16389TIP3    H170582   3.163   3.923  16.151  0.1048  1.2719  2.1376
16389TIP3    H270583   3.047   3.961  16.241 -2.2398 -0.2111 -0.1175
16390TIP3   OH270584   3.177   4.569  13.351  0.3836  0.4533 -0.1235
16390TIP3    H170585   3.197   4.615  13.270  1.7114  0.6560  0.2922
16390TIP3    H270586   3.147   4.482  13.323  2.2511 -0.0217 -0.8379
16391TIP3   OH270587   1.613   2.146  15.315  0.4040 -0.0523 -0.7050
16391TIP3    H170588   1.534   2.102  15.347  0.7471 -1.3519 -1.5493
16391TIP3    H270589   1.580   2.218  15.262 -0.2204 -0.3845 -0.7844
16392TIP3   OH270590   6.587   5.947  16.973  0.3157  0.2556 -0.2581
16392TIP3    H170591   6.596   5.853  16.989  1.0350  0.1907 -0.9868
16392TIP3    H270592   6.621   5.988  17.052 -0.1012 -0.0933  0.1072
16393TIP3   OH270593   2.511   6.418  16.767  0.1141 -0.0973 -0.7522
16393TIP3    H170594   2.558   6.372  16.697 -1.2064 -1.0743 -1.0295
16393TIP3    H270595   2.439   6.463  16.722 -0.6690 -0.6273 -0.0634
16394TIP3   OH270596   2.644   2.324  15.026  0.2173 -0.6360 -0.1362
16394TIP3    H170597   2.695   2.401  15.001 -1.2171  0.8111  1.1594
16394TIP3    H270598   2.707   2.266  15.069  0.9767  0.7073  0.6476
16395TIP3   OH270599   0.009   3.089  11.450 -0.1722  0.1176  0.2326
16395TIP3    H170600   0.068   3.148  11.497  0.6130  0.0020 -0.5927
16395TIP3    H270601   0.062   3.052  11.380  0.1724 -3.5768  2.1862
16396TIP3   OH270602   1.948   4.963  11.667  0.5862 -0.1203  0.0972
16396TIP3    H170603   1.973   4.898  11.733 -0.4601 -1.3826 -0.7047
16396TIP3    H270604   2.000   4.940  11.590  1.2958  0.9209  0.2541
16397TIP3   OH270605   1.042   1.833   5.375  0.4375  0.4085  0.3613
16397TIP3    H170606   1.127   1.796   5.400  2.0040  2.1304 -2.0156
16397TIP3    H270607   1.020   1.894   5.446  0.7843 -0.5879  1.3505
16398TIP3   OH270608   0.976   3.607   1.445 -0.1600  0.2853 -0.1946
16398TIP3    H170609   1.007   3.654   1.367 -0.8426  0.5172 -0.3334
16398TIP3    H270610   1.055   3.589   1.495  0.2063  0.8063 -0.5777
16399TIP3   OH270611   0.891   4.899   2.396  0.6412  0.5031  0.9333
16399TIP3    H170612   0.857   4.828   2.451  0.8460  0.0879  0.5226
16399TIP3    H270613   0.982   4.875   2.378  0.2503  0.0188 -0.5679
16400TIP3   OH270614   3.386   5.046   6.393  0.7198  0.4694 -0.3619
16400TIP3    H170615   3.294   5.060   6.374  0.4720  0.2005  0.5942
16400TIP3    H270616   3.387   4.981   6.463  1.6646 -0.1359 -0.9012
16401TIP3   OH270617   4.023   0.263  15.289 -0.7128 -0.3646 -0.4518
16401TIP3    H170618   4.025   0.344  15.340 -4.2407 -0.2983 -0.1415
16401TIP3    H270619   4.007   0.292  15.199  1.2893 -0.6560 -0.9426
16402TIP3   OH270620   4.105   6.298   4.351 -0.0384  0.3251 -0.1272
16402TIP3    H170621   4.190   6.267   4.321  0.8711  2.8561 -0.4666
16402TIP3    H270622   4.121   6.329   4.440 -0.3167  1.6776 -0.5174
16403TIP3   OH270623   0.627   0.978   5.453 -0.5594  0.5263 -0.4069
16403TIP3    H170624   0.705   0.964   5.398 -1.6963 -0.5314 -1.8356
16403TIP3    H270625   0.643   1.062   5.496  0.6700  1.1090 -1.9036
16404TIP3   OH270626   6.225   4.392   6.164 -0.4164 -0.2722 -0.0281
16404TIP3    H170627   6.314   4.364   6.186 -0.3237 -0.1800 -0.2833
16404TIP3    H270628   6.196   4.443   6.240 -0.3227 -0.4629  0.1350
16405TIP3   OH270629   3.589   6.500  13.837  0.2864  0.2690  0.2735
16405TIP3    H170630   3.505   6.527  13.799  0.5262  0.5777 -0.0446
16405TIP3    H270631   3.575   6.408  13.861  0.6615 -0.5283 -2.2256
16406TIP3   OH270632   3.945   4.294   0.157  0.1295  0.0893 -0.1340
16406TIP3    H170633   3.982   4.270   0.242 -1.8123  0.7449  0.9554
16406TIP3    H270634   3.979   4.227   0.097  2.7200  0.4367  0.7909
16407TIP3   OH270635   2.976   5.739  11.519 -0.0175 -0.5602  0.0112
16407TIP3    H170636   2.982   5.653  11.478  0.3598 -1.0645  1.0868
16407TIP3    H270637   3.065   5.758  11.548 -0.3240 -0.3438  0.8298
16408TIP3   OH270638   5.789   0.109  16.923 -0.6743  0.3007  0.3350
16408TIP3    H170639   5.812   0.201  16.936  0.3941  0.1608 -0.4368
16408TIP3    H270640   5.775   0.101  16.829 -0.4123 -0.4033  0.3513
16409TIP3   OH270641   1.088   5.670  15.725  0.1451 -0.2467 -0.6892
16409TIP3    H170642   1.054   5.634  15.807  1.4457 -2.0733 -0.8983
16409TIP3    H270643   1.010   5.700  15.678 -0.9338 -1.8563 -0.0286
16410TIP3   OH270644   5.638   4.404   2.710 -0.0103  0.0773  0.0947
16410TIP3    H170645   5.699   4.390   2.638  0.5348  1.5071  0.2370
16410TIP3    H270646   5.555   4.367   2.679  0.5129 -0.3993 -0.7774
16411TIP3   OH270647   6.483   6.158  13.976  0.0762 -0.6108  0.9878
16411TIP3    H170648   6.471   6.206  13.895  0.8718  1.4853  2.0371
16411TIP3    H270649   6.540   6.085  13.952 -1.5280 -1.3865 -0.7380
16412TIP3   OH270650   1.895   3.651   1.622  0.0235 -0.0010 -0.5402
16412TIP3    H170651   1.885   3.662   1.717  0.5470 -1.1097 -0.3429
16412TIP3    H270652   1.965   3.712   1.598 -0.8842  1.1258 -0.4263
16413TIP3   OH270653   4.873   4.986   2.088  0.2580  0.2468 -0.1142
16413TIP3    H170654   4.884   4.900   2.129  3.6611 -0.1041 -1.3988
16413TIP3    H270655   4.875   5.048   2.160  2.9724 -0.5380  0.6194
16414TIP3   OH270656   2.501   3.260  11.725 -0.1722  0.2498  0.3578
16414TIP3    H170657   2.455   3.303  11.797  1.1482  0.1270  1.3146
16414TIP3    H270658   2.566   3.204  11.768 -0.9669 -1.7348 -0.8763
16415TIP3   OH270659   2.438   5.364  13.667 -0.6523 -0.3385 -0.4870
16415TIP3    H170660   2.526   5.401  13.659 -0.4238 -0.3444  1.3597
16415TIP3    H270661   2.382   5.422  13.616  0.3040  0.1266 -1.0360
16416TIP3   OH270662   0.249   3.731   3.179 -0.3367  0.5626 -0.6070
16416TIP3    H170663   0.266   3.779   3.260  0.8092 -1.5760  0.4908
16416TIP3    H270664   0.175   3.778   3.139  0.8152  3.3304  0.2320
16417TIP3   OH270665   6.133   4.516  11.071  0.3621 -0.1595 -0.2117
16417TIP3    H170666   6.065   4.552  11.014 -0.7337 -0.9461  0.5530
16417TIP3    H270667   6.213   4.521  11.019  0.1618  2.7224 -0.3933
16418TIP3   OH270668   6.389   3.310  12.331  0.0722  0.1925 -0.4884
16418TIP3    H170669   6.410   3.398  12.362 -0.2843  0.1608 -0.1518
16418TIP3    H270670   6.294   3.310  12.321  0.1433  0.0632 -1.1654
16419TIP3   OH270671   2.892   1.373  15.844 -0.0866  0.1871  0.0444
16419TIP3    H170672   2.855   1.305  15.787 -1.1823  0.1854  0.7186
16419TIP3    H270673   2.946   1.427  15.786  0.8009 -1.2416 -0.5076
16420TIP3   OH270674   5.892   1.437   2.588 -0.0577  0.0179 -0.1867
16420TIP3    H170675   5.985   1.453   2.572  0.1905 -1.9514 -0.9553
16420TIP3    H270676   5.857   1.523   2.611  1.9924  0.7598  0.3830
16421TIP3   OH270677   4.317   2.790   3.585 -0.2571 -0.3655  0.5436
16421TIP3    H170678   4.253   2.727   3.551  1.2896 -1.7696  0.1253
16421TIP3    H270679   4.309   2.783   3.680  0.7240 -2.1387  0.5350
16422TIP3   OH270680   1.618   2.800   0.033 -0.1473  0.1157  0.0251
16422TIP3    H170681   1.633   2.834   0.122 -1.7071 -1.8064  1.1091
16422TIP3    H270682   1.688   2.737   0.020 -0.6525 -0.5433  0.4409
16423TIP3   OH270683   4.154   5.261   5.030  0.4504  0.7004  0.3870
16423TIP3    H170684   4.112   5.324   5.090  0.1170  1.4915 -0.6567
16423TIP3    H270685   4.083   5.204   5.002  0.2990  1.2780 -0.4273
16424TIP3   OH270686   0.431   4.355  11.740 -0.1807  0.3019  0.5135
16424TIP3    H170687   0.502   4.320  11.686 -1.3959 -0.7079 -0.4871
16424TIP3    H270688   0.423   4.293  11.812 -0.6315 -0.0824  0.1370
16425TIP3   OH270689   0.514   0.837  12.343 -0.6948 -0.7923  0.3562
16425TIP3    H170690   0.587   0.857  12.402  1.1836  0.6611 -2.2764
16425TIP3    H270691   0.554   0.796  12.267 -2.6026 -0.0086 -1.1632
16426TIP3   OH270692   6.227   5.586  14.424 -0.1293  0.0648 -0.0520
16426TIP3    H170693   6.177   5.523  14.476  2.2854 -0.4380  1.8260
16426TIP3    H270694   6.189   5.671  14.444 -0.6091 -0.3573  0.8517
16427TIP3   OH270695   3.599   1.487  12.361 -0.6883  0.6127 -0.0983
16427TIP3    H170696   3.524   1.427  12.366 -0.9544  1.0243  1.1754
16427TIP3    H270697   3.560   1.574  12.360 -0.3381  0.8361 -2.7412
16428TIP3   OH270698   1.525   2.999  15.431 -0.0967  0.4897  0.2301
16428TIP3    H170699   1.510   3.021  15.339 -0.8778 -0.4215  0.1251
16428TIP3    H270700   1.439   2.971  15.463  0.2652  0.3756  1.1179
16429TIP3   OH270701   6.245   1.927   3.855 -0.1075  0.1868 -0.1049
16429TIP3    H170702   6.254   1.886   3.769  0.5998 -0.5636  0.3048
16429TIP3    H270703   6.334   1.953   3.879 -0.2800  0.3008  0.4337
16430TIP3   OH270704   2.694   4.641  16.533 -0.1111 -0.9629 -0.6466
16430TIP3    H170705   2.787   4.632  16.514 -0.2310 -0.6552 -1.4041
16430TIP3    H270706   2.659   4.552  16.525  0.5222 -1.5529  2.0616
16431TIP3   OH270707   5.293   0.756  17.198  0.0956 -0.2055  0.6375
16431TIP3    H170708   5.387   0.739  17.193  0.0668 -0.5526  1.1739
16431TIP3    H270709   5.267   0.722  17.284 -0.3015  0.9516  0.9940
16432TIP3   OH270710   3.655   4.114  14.133 -0.6780  0.1169 -1.0561
16432TIP3    H170711   3.699   4.032  14.107 -2.3961 -1.3012  0.2350
16432TIP3    H270712   3.725   4.169  14.167  0.6906 -0.3807 -2.8774
16433TIP3   OH270713   6.404   5.915   0.470  0.2485  0.0131  0.5075
16433TIP3    H170714   6.371   5.859   0.400  0.9524 -0.5853  0.6479
16433TIP3    H270715   6.358   5.998   0.457 -2.5950 -1.2371  1.7166
16434TIP3   OH270716   3.408   2.605  16.706  0.0469  0.0949  0.4990
16434TIP3    H170717   3.503   2.591  16.700 -0.0092  0.2632 -2.5312
16434TIP3    H270718   3.380   2.552  16.780  2.4272 -0.3561  1.1626
16435TIP3   OH270719   1.582   3.963  14.960  0.1995  0.2234 -0.1873
16435TIP3    H170720   1.652   4.025  14.981 -0.5336  1.2072 -0.6134
16435TIP3    H270721   1.574   3.909  15.039 -0.1981  1.6650  0.7902
16436TIP3   OH270722   1.793   2.281   5.641  0.3749 -0.0236 -0.0856
16436TIP3    H170723   1.717   2.297   5.586  0.6376 -1.3575 -0.8839
16436TIP3    H270724   1.783   2.342   5.714 -1.3272 -0.0157 -0.2862
16437TIP3   OH270725   5.318   4.032   2.659 -0.1264 -0.6699  0.0212
16437TIP3    H170726   5.398   3.979   2.656 -1.0461 -2.0660 -1.2515
16437TIP3    H270727   5.340   4.112   2.612  0.0761 -1.7637 -1.8515
16438TIP3   OH270728   5.203   6.607  10.940  0.1719 -0.8291  0.3436
16438TIP3    H170729   5.130   6.580  10.996  1.1435 -1.1116  1.5177
16438TIP3    H270730   5.162   6.652  10.866 -1.3862 -3.4346 -0.5167
16439TIP3   OH270731   4.531   3.930  13.804  0.6671 -0.1163  0.4723
16439TIP3    H170732   4.455   3.934  13.747  0.0047 -1.2795  1.2163
16439TIP3    H270733   4.606   3.947  13.747  0.0786 -1.7399 -0.8613
16440TIP3   OH270734   4.829   1.584   1.604 -0.0800 -0.8621 -0.8074
16440TIP3    H170735   4.818   1.516   1.670  0.8324  0.5000  0.8422
16440TIP3    H270736   4.904   1.555   1.553  0.2968 -1.1223 -0.1263
16441TIP3   OH270737   5.220   5.510  13.817  0.0317 -0.4310 -0.0614
16441TIP3    H170738   5.219   5.595  13.860 -1.7973 -0.1015 -0.6780
16441TIP3    H270739   5.311   5.482  13.822  0.1017 -0.0157  3.1853
16442TIP3   OH270740   6.574   4.205  15.764  0.1259 -0.0297  0.4401
16442TIP3    H170741   6.519   4.270  15.720 -0.9476 -1.1903  0.0234
16442TIP3    H270742   6.516   4.165  15.829  0.0217 -2.2081 -0.9132
16443TIP3   OH270743   2.827   3.860  12.823  0.6167 -0.2130 -0.0497
16443TIP3    H170744   2.897   3.913  12.785 -2.5734  3.3354 -1.6299
16443TIP3    H270745   2.821   3.888  12.914  1.0824 -0.3418  0.0203
16444TIP3   OH270746   5.992   4.208   0.005 -0.0168 -0.4127 -0.4135
16444TIP3    H170747   5.966   4.298  -0.013 -0.7612 -0.5468 -0.0349
16444TIP3    H270748   6.023   4.175  -0.079 -0.0348  0.0932 -0.6243
16445TIP3   OH270749   0.300   6.206  16.834  0.0215 -0.1591  0.0600
16445TIP3    H170750   0.208   6.232  16.832  0.2364  0.5814 -0.4683
16445TIP3    H270751   0.313   6.175  16.924 -1.0843 -1.6004 -0.2399
16446TIP3   OH270752   5.257   1.873  17.125 -0.2536 -0.1852  0.0238
16446TIP3    H170753   5.318   1.809  17.087 -0.0982  1.0506 -1.9968
16446TIP3    H270754   5.278   1.875  17.218  0.9918 -1.7144 -0.1868
16447TIP3   OH270755   6.048   2.575   0.583 -0.2923 -0.0558  0.0770
16447TIP3    H170756   6.054   2.532   0.668  1.7037 -2.0705 -0.9493
16447TIP3    H270757   5.957   2.564   0.557 -0.7695 -0.0431  1.6233
16448TIP3   OH270758   0.441   3.004   1.401 -0.1976 -0.2984 -0.1391
16448TIP3    H170759   0.466   3.047   1.319  0.2735  0.1809  0.2502
16448TIP3    H270760   0.349   2.980   1.388 -0.1748 -0.0809 -0.7468
16449TIP3   OH270761   2.130   0.532   2.056 -0.1740 -0.2177  0.5996
16449TIP3    H170762   2.145   0.458   2.115  0.7293 -0.4745  0.0629
16449TIP3    H270763   2.188   0.516   1.982 -0.1752  0.8815  0.3426
16450TIP3   OH270764   5.779   0.626   5.974  0.2463  0.1382  0.0261
16450TIP3    H170765   5.725   0.612   5.896 -1.4656  1.4276  0.9194
16450TIP3    H270766   5.716   0.640   6.045  1.7284  2.1188  1.0422
16451TIP3   OH270767   5.440   6.728  12.550 -0.1530  0.3554 -0.0451
16451TIP3    H170768   5.390   6.736  12.469  1.5485 -0.2122 -1.1991
16451TIP3    H270769   5.437   6.816  12.588 -0.5341  0.7682 -0.9865
16452TIP3   OH270770   5.863   0.785  16.269  0.0322 -0.8503 -0.0852
16452TIP3    H170771   5.799   0.750  16.208 -0.8351 -0.5140  0.6061
16452TIP3    H270772   5.944   0.736  16.250 -0.4250 -1.2848 -0.9609
16453TIP3   OH270773   3.560   3.225  12.876  0.5865 -0.6382 -0.3384
16453TIP3    H170774   3.642   3.196  12.915  0.4657  1.3162  1.5563
16453TIP3    H270775   3.578   3.314  12.845 -1.5031  1.2746  3.1833
16454TIP3   OH270776   4.377   4.677   4.839  0.1384 -0.1452 -0.0599
16454TIP3    H170777   4.325   4.612   4.791 -1.3537  1.4898 -0.7795
16454TIP3    H270778   4.348   4.668   4.930 -0.8536  0.1987 -0.3250
16455TIP3   OH270779   5.091   2.338  15.516 -0.3330 -0.5109 -0.2679
16455TIP3    H170780   5.079   2.264  15.456 -2.1378 -0.5784  0.1125
16455TIP3    H270781   5.012   2.338  15.570 -0.0640  1.2904  0.1921
16456TIP3   OH270782   0.427   1.455  11.352  0.7331 -0.0479 -0.4089
16456TIP3    H170783   0.381   1.529  11.313  1.1628  0.2352 -0.3812
16456TIP3    H270784   0.459   1.405  11.278  0.6201 -0.0976 -0.4249
16457TIP3   OH270785   2.141   5.871   3.407 -0.7089 -0.1861  0.3157
16457TIP3    H170786   2.081   5.861   3.481 -0.8248  1.4222  0.4893
16457TIP3    H270787   2.109   5.809   3.342 -3.3653  1.4230 -0.0639
16458TIP3   OH270788   1.685   6.148   5.799  0.3543  0.5156 -0.2287
16458TIP3    H170789   1.612   6.123   5.857 -0.6556  2.6447 -0.5018
16458TIP3    H270790   1.696   6.072   5.742 -2.7823  0.6954 -1.2607
16459TIP3   OH270791   4.858   4.400  11.273 -0.0063 -0.2800 -0.2743
16459TIP3    H170792   4.811   4.317  11.284 -0.6495  0.2262  1.0803
16459TIP3    H270793   4.916   4.385  11.199 -1.7828 -1.1898 -1.5763
16460TIP3   OH270794   5.332   2.379  15.803 -0.7502  0.2880  0.2439
16460TIP3    H170795   5.411   2.427  15.828 -0.6865 -1.0021  2.8198
16460TIP3    H270796   5.263   2.445  15.801 -0.2857  0.8419  1.7095
16461TIP3   OH270797   2.134   0.209  13.298  0.2488 -0.3497 -0.2239
16461TIP3    H170798   2.161   0.298  13.275  0.8512 -0.4286  0.1677
16461TIP3    H270799   2.048   0.199  13.257 -0.6687  1.0587  1.2372
16462TIP3   OH270800   4.025   6.423  17.219  0.2652  0.0569 -0.2326
16462TIP3    H170801   3.987   6.510  17.212 -2.1833 -1.0061 -1.6962
16462TIP3    H270802   3.963   6.366  17.173  2.1060 -2.3662  0.0563
16463TIP3   OH270803   2.855   5.418  12.486  0.0176 -0.1507 -0.3669
16463TIP3    H170804   2.837   5.330  12.520  0.3382  0.1502  0.6156
16463TIP3    H270805   2.893   5.403  12.400  0.1660 -0.9809 -0.1668
16464TIP3   OH270806   5.549   4.746   5.888  0.5445 -0.4149 -0.1991
16464TIP3    H170807   5.474   4.748   5.947 -0.2867 -1.3303 -1.1826
16464TIP3    H270808   5.513   4.718   5.804  1.3110  2.8326 -1.7700
16465TIP3   OH270809   1.006   5.640   3.904 -0.2398 -0.0643  0.1063
16465TIP3    H170810   0.916   5.670   3.921 -0.7305  0.0235 -2.2821
16465TIP3    H270811   1.059   5.719   3.910 -0.5223  0.1164  0.2514
16466TIP3   OH270812   3.523   1.162  11.654 -0.0990 -0.2540 -0.1863
16466TIP3    H170813   3.604   1.145  11.702  0.2626  0.1021 -0.6505
16466TIP3    H270814   3.544   1.237  11.598 -0.9812  0.3294  0.2317
16467TIP3   OH270815   4.654   3.295  14.827  0.4089 -0.1680 -0.0096
16467TIP3    H170816   4.722   3.298  14.759 -0.5896  1.1387 -1.0244
16467TIP3    H270817   4.600   3.373  14.810 -1.1193 -0.9489  0.9850
16468TIP3   OH270818   2.970   3.398  11.542  0.0592 -0.0993 -0.0644
16468TIP3    H170819   3.032   3.417  11.472 -0.0543  0.6222  0.0219
16468TIP3    H270820   3.020   3.348  11.606  0.2109 -0.6013 -0.5767
16469TIP3   OH270821   1.562   5.837  15.544  0.4145 -0.4647  0.0969
16469TIP3    H170822   1.571   5.848  15.638 -2.4871  1.8273  0.2542
16469TIP3    H270823   1.531   5.747  15.533  1.4049 -0.9682  1.2251
16470TIP3   OH270824   0.783   2.606  16.016  0.0340  0.3266 -0.6710
16470TIP3    H170825   0.695   2.643  16.015 -0.0141  0.2455  0.2448
16470TIP3    H270826   0.839   2.678  16.044  0.0843  0.0235  0.0211
16471TIP3   OH270827   4.705   4.674  12.177 -0.3693  0.5639  0.3189
16471TIP3    H170828   4.686   4.657  12.269  2.4765 -0.5660  0.7934
16471TIP3    H270829   4.622   4.657  12.132 -1.1274 -1.6707  2.3388
16472TIP3   OH270830   4.736   2.974   1.974  0.3305 -0.0853 -0.1801
16472TIP3    H170831   4.756   3.005   1.886 -0.6016 -0.1350 -0.4198
16472TIP3    H270832   4.819   2.940   2.007  1.0178  1.2133 -0.4985
16473TIP3   OH270833   6.744   5.417  14.472  0.2161 -0.2370  0.1814
16473TIP3    H170834   6.809   5.394  14.538 -0.4903  0.3497  1.1245
16473TIP3    H270835   6.666   5.440  14.523 -0.7676 -1.0209 -0.9160
16474TIP3   OH270836   0.059   0.956   5.503 -0.3696  0.3529 -0.1960
16474TIP3    H170837   0.152   0.974   5.484 -0.4032 -0.7946 -1.6640
16474TIP3    H270838   0.012   1.005   5.435 -0.7472 -0.3154 -0.4230
16475TIP3   OH270839   4.017   3.903  11.172 -0.7069  0.6574  1.0006
16475TIP3    H170840   4.054   3.990  11.157  1.9949 -0.6293 -0.7347
16475TIP3    H270841   3.982   3.877  11.087 -0.8863 -0.1838  1.3200
16476TIP3   OH270842   5.421   5.507  11.347 -0.2012  0.2727 -0.4727
16476TIP3    H170843   5.379   5.508  11.261  0.3026  1.2290 -0.7242
16476TIP3    H270844   5.505   5.464  11.331 -0.9724 -1.4936 -0.0032
16477TIP3   OH270845   5.592   0.980   3.091 -0.8949  0.4901  0.2849
16477TIP3    H170846   5.527   0.963   3.159  0.3508 -0.5220  1.2871
16477TIP3    H270847   5.617   0.893   3.059 -0.1963  0.8691 -0.2320
16478TIP3   OH270848   1.888   0.894   3.719 -0.1080  0.0271  0.7753
16478TIP3    H170849   1.874   0.956   3.790  0.0598  0.4889  0.4120
16478TIP3    H270850   1.818   0.912   3.656  1.1186  1.2767 -0.3019
16479TIP3   OH270851   3.314   2.854   2.063  0.1465 -0.1455 -0.4281
16479TIP3    H170852   3.279   2.870   2.151 -0.1668 -0.6032 -0.4706
16479TIP3    H270853   3.311   2.940   2.020 -0.4269 -0.0748 -0.2565
16480TIP3   OH270854   2.618   1.069  14.109 -0.5226  0.2113  0.1062
16480TIP3    H170855   2.644   1.078  14.201  2.4630  0.7287 -0.6896
16480TIP3    H270856   2.697   1.039  14.064 -1.5219  1.1418 -2.4911
16481TIP3   OH270857   5.208   3.292  14.826 -0.1865  0.4784 -0.4288
16481TIP3    H170858   5.177   3.339  14.749 -1.3512 -1.2922 -1.1166
16481TIP3    H270859   5.206   3.200  14.800  2.5888  0.0360  0.6417
16482TIP3   OH270860   6.217   4.512  17.136  0.4961 -0.3302 -0.2128
16482TIP3    H170861   6.295   4.542  17.182  0.4036 -0.7950  0.2518
16482TIP3    H270862   6.242   4.427  17.100 -0.3256 -1.3029  1.4070
16483TIP3   OH270863   1.402   3.547  16.185 -0.6384 -0.6584 -0.2568
16483TIP3    H170864   1.438   3.573  16.270 -0.6025 -0.9626 -0.1765
16483TIP3    H270865   1.339   3.479  16.206  1.1223 -2.5053 -0.6542
16484TIP3   OH270866   0.200   0.514  14.886  0.0860  0.1908 -0.2564
16484TIP3    H170867   0.292   0.532  14.869  0.6387 -0.9316  1.4185
16484TIP3    H270868   0.169   0.472  14.805  1.4448 -0.8573 -0.2622
16485TIP3   OH270869   4.558   4.396  17.193 -0.9521 -0.2179  0.5033
16485TIP3    H170870   4.579   4.421  17.283 -0.7147 -1.5045  0.8334
16485TIP3    H270871   4.463   4.403  17.187 -1.0005 -0.4358  0.9620
16486TIP3   OH270872   3.980   4.909  17.053 -0.0667 -0.5375  0.2547
16486TIP3    H170873   4.006   4.826  17.012  3.0735  0.2441  0.3437
16486TIP3    H270874   3.955   4.885  17.142  1.5272 -1.3948  0.5142
16487TIP3   OH270875   1.065   2.571   3.434  0.0296 -0.2176  0.0116
16487TIP3    H170876   1.122   2.502   3.401 -1.0617 -0.5548 -1.2820
16487TIP3    H270877   1.053   2.551   3.527  0.1495 -1.4838 -0.2353
16488TIP3   OH270878   6.083   1.548  13.114 -0.3755 -0.2841  0.6929
16488TIP3    H170879   6.139   1.621  13.086  0.2950 -0.1997  2.2043
16488TIP3    H270880   5.994   1.575  13.087  0.1757 -0.1487 -1.1788
16489TIP3   OH270881   3.417   2.288  11.423  0.2857  0.2285  0.7183
16489TIP3    H170882   3.363   2.227  11.372  1.9319  1.3986 -2.7314
16489TIP3    H270883   3.477   2.231  11.471 -1.0279 -0.9470  1.0415
16490TIP3   OH270884   0.673   5.977   4.434  0.1392 -0.0476  0.4249
16490TIP3    H170885   0.719   6.061   4.428 -0.6079  0.4090  1.0264
16490TIP3    H270886   0.615   5.976   4.357  0.2588 -0.0830  0.3345
16491TIP3   OH270887   3.563   6.191   5.535 -0.7084 -0.3997  0.1485
16491TIP3    H170888   3.535   6.264   5.590 -0.9163 -0.9344  0.7805
16491TIP3    H270889   3.581   6.120   5.597 -1.1450 -1.0843 -0.4837
16492TIP3   OH270890   3.187   2.832  13.431  0.0813  0.1421 -0.2889
16492TIP3    H170891   3.188   2.738  13.411  0.9384  0.3565 -1.2983
16492TIP3    H270892   3.159   2.836  13.523  0.8635 -1.1504  0.0290
16493TIP3   OH270893   3.685   0.161  16.045 -0.0516  0.1031  0.0947
16493TIP3    H170894   3.686   0.240  15.991 -1.0890  0.6183  0.8036
16493TIP3    H270895   3.599   0.161  16.086  1.2331  0.5406  2.9727
16494TIP3   OH270896   2.928   4.020  10.597 -0.3846  0.1592  0.1386
16494TIP3    H170897   2.846   3.991  10.556 -0.8623  0.5343  0.8189
16494TIP3    H270898   2.906   4.034  10.689  0.8809 -1.5688  0.7770
16495TIP3   OH270899   5.937   2.871  13.877 -0.4458  0.3505 -0.2238
16495TIP3    H170900   6.025   2.851  13.908 -0.6685 -0.9567 -0.3759
16495TIP3    H270901   5.926   2.964  13.895  1.5030  0.8907 -1.5172
16496TIP3   OH270902   2.577   2.596  13.695  0.3327 -0.4857 -0.1153
16496TIP3    H170903   2.515   2.642  13.752 -0.2334 -0.3102 -0.8504
16496TIP3    H270904   2.582   2.651  13.616 -0.1952 -1.5583 -0.9195
16497TIP3   OH270905   0.804   3.073  17.210  0.7705 -0.3383 -0.1747
16497TIP3    H170906   0.841   3.122  17.283 -2.3469  0.2221  1.1536
16497TIP3    H270907   0.751   3.136  17.162 -0.4676 -1.5913 -0.5255
16498TIP3   OH270908   5.444   3.987  11.820 -0.3533 -0.0946 -0.6590
16498TIP3    H170909   5.499   3.921  11.778  1.5657 -0.0295  1.5320
16498TIP3    H270910   5.464   4.069  11.775  0.4413 -0.3023 -0.6908
16499TIP3   OH270911   5.740   1.743   5.641  0.4319  0.1849  0.0647
16499TIP3    H170912   5.831   1.754   5.611  0.8074 -5.2373 -1.9113
16499TIP3    H270913   5.748   1.717   5.733  0.8768  0.1056  0.0090
16500TIP3   OH270914   4.766   5.701  14.479  0.3897  0.5897  0.3528
16500TIP3    H170915   4.857   5.715  14.452  0.0359  2.8482  0.1372
16500TIP3    H270916   4.769   5.623  14.534  2.3177  0.1435 -0.3095
16501TIP3   OH270917   5.149   3.082  16.781 -0.5165  0.3075  0.2151
16501TIP3    H170918   5.101   3.090  16.699 -1.6655  0.7537  0.9034
16501TIP3    H270919   5.235   3.049  16.756 -1.7124 -2.2415 -0.9288
16502TIP3   OH270920   5.273   3.296  11.391 -0.1193 -0.1040  0.0690
16502TIP3    H170921   5.275   3.374  11.447 -0.9912  0.1523 -0.2389
16502TIP3    H270922   5.262   3.224  11.453 -1.7533  0.2331  0.2103
16503TIP3   OH270923   1.862   6.012  11.688 -0.6614  0.1492  0.1872
16503TIP3    H170924   1.931   6.033  11.625 -1.2116  0.5591 -0.2872
16503TIP3    H270925   1.802   6.086  11.684  0.0103  0.8460  2.2307
16504TIP3   OH270926   4.580   2.773  11.432  0.1818 -0.5878 -0.0565
16504TIP3    H170927   4.637   2.698  11.447 -0.4673 -1.0975 -0.1229
16504TIP3    H270928   4.605   2.836  11.499 -0.0389 -1.3124  0.7221
16505TIP3   OH270929   2.504   6.036   2.529 -0.3729 -0.7257 -0.1484
16505TIP3    H170930   2.494   6.085   2.447 -1.2797  0.8625  0.8767
16505TIP3    H270931   2.499   5.944   2.502 -0.8533 -0.2327 -1.8520
16506TIP3   OH270932   1.257   2.347  13.272  0.2668  0.1120  0.0020
16506TIP3    H170933   1.304   2.373  13.352  1.7927 -0.9330 -0.5116
16506TIP3    H270934   1.165   2.359  13.294  0.6852  0.5530  1.6791
16507TIP3   OH270935   5.808   2.160   6.524  0.6544  0.6481  0.3350
16507TIP3    H170936   5.766   2.181   6.441  0.5810  0.0396  0.2150
16507TIP3    H270937   5.881   2.221   6.530  1.0328  0.2838 -0.4735
16508TIP3   OH270938   3.331   0.880  12.150  0.3664 -0.0724 -0.4586
16508TIP3    H170939   3.400   0.920  12.203 -1.3318  0.8257  1.1861
16508TIP3    H270940   3.342   0.919  12.063  1.6239  0.4160 -0.0964
16509TIP3   OH270941   3.297   1.196   3.085  0.1294 -0.5026 -0.1328
16509TIP3    H170942   3.225   1.165   3.139  0.3368 -2.0299 -0.6963
16509TIP3    H270943   3.355   1.243   3.146  0.2812 -2.0421  0.9560
16510TIP3   OH270944   1.313   4.860   1.263 -0.6483 -0.0253 -0.0388
16510TIP3    H170945   1.223   4.890   1.273 -0.7931 -0.1928 -0.7723
16510TIP3    H270946   1.324   4.848   1.169  0.8439  2.1009 -0.2087
16511TIP3   OH270947   1.042   3.274   5.385  0.0326 -0.0759 -0.3371
16511TIP3    H170948   1.054   3.181   5.363 -0.0181  0.3254 -2.2364
16511TIP3    H270949   0.978   3.273   5.457  0.2010 -1.5194 -0.1775
16512TIP3   OH270950   3.503   1.048  12.273  0.4775  0.0102  0.1452
16512TIP3    H170951   3.577   0.993  12.296  1.7635  2.0347  1.2245
16512TIP3    H270952   3.543   1.126  12.233 -0.8882  1.8018  2.0771
16513TIP3   OH270953   6.707   3.124  15.007  0.2814  0.4612 -0.0078
16513TIP3    H170954   6.621   3.153  14.975 -0.9347 -1.4600  1.3056
16513TIP3    H270955   6.699   3.126  15.103  1.3401 -0.7118  0.1331
16514TIP3   OH270956   0.188   2.701  15.184 -0.2731 -0.6127  0.5848
16514TIP3    H170957   0.261   2.755  15.213  1.2302 -1.5880 -1.2301
16514TIP3    H270958   0.136   2.688  15.264  0.7079  1.2747  1.6206
16515TIP3   OH270959   2.763   0.896   3.370 -0.7081 -0.1179  0.1890
16515TIP3    H170960   2.851   0.881   3.335  1.0178  3.2012  2.4613
16515TIP3    H270961   2.716   0.939   3.298 -0.2283 -1.1886 -0.7914
16516TIP3   OH270962   5.799   0.556   1.986  0.1922 -0.3233 -0.2085
16516TIP3    H170963   5.854   0.516   1.919  1.7933 -0.2306  0.9817
16516TIP3    H270964   5.755   0.628   1.942  0.6462 -0.7114 -1.3234
16517TIP3   OH270965   6.527   5.018  15.430  0.0966  0.2474 -0.0576
16517TIP3    H170966   6.440   5.047  15.456  0.1981  0.8472 -0.3588
16517TIP3    H270967   6.526   4.923  15.440 -1.7101 -0.2043 -3.1778
16518TIP3   OH270968   6.659   5.979  14.566  0.7931  0.4666 -0.0665
16518TIP3    H170969   6.626   5.897  14.529  2.5487 -0.3794  0.1417
16518TIP3    H270970   6.620   6.047  14.512  0.6430 -0.5887 -1.3492
16519TIP3   OH270971   2.960   3.372  12.838 -0.3756  0.5105 -0.0279
16519TIP3    H170972   2.991   3.288  12.870  0.1032  0.0797 -1.5529
16519TIP3    H270973   2.962   3.364  12.743  0.5932  2.5688 -0.2391
16520TIP3   OH270974   2.780   6.420   3.671  0.2974 -0.1917 -0.5846
16520TIP3    H170975   2.760   6.513   3.678 -0.2489 -0.3233 -0.3413
16520TIP3    H270976   2.846   6.404   3.739  0.0439 -0.0788 -0.3105
16521TIP3   OH270977   2.201   0.628  16.129 -0.1590 -0.0954  0.2736
16521TIP3    H170978   2.211   0.609  16.035 -1.6129 -2.8104  0.5525
16521TIP3    H270979   2.265   0.697  16.147 -1.2347  2.0424 -3.1041
16522TIP3   OH270980   1.069   0.166   5.902 -0.0616 -0.2791  0.0013
16522TIP3    H170981   1.058   0.127   5.815 -2.4456  0.5043 -0.1399
16522TIP3    H270982   1.033   0.101   5.962 -2.3541  0.8292 -0.0661
16523TIP3   OH270983   4.777   2.635  16.731  0.1606 -0.9248  0.1443
16523TIP3    H170984   4.825   2.647  16.813 -1.4940 -0.8722  1.1531
16523TIP3    H270985   4.776   2.722  16.691 -1.4675 -0.2739  1.5090
16524TIP3   OH270986   4.659   4.941   2.876  0.1515  0.4979 -0.3902
16524TIP3    H170987   4.584   4.974   2.926 -1.7944 -2.5271 -1.0454
16524TIP3    H270988   4.621   4.913   2.792  2.0610 -0.7748 -0.8882
16525TIP3   OH270989   5.650   0.776  10.578  0.3999  0.6877 -0.4399
16525TIP3    H170990   5.582   0.834  10.613 -0.2946 -0.0586 -0.5342
16525TIP3    H270991   5.609   0.690  10.576  0.5575  0.6170 -2.6552
16526TIP3   OH270992   5.047   1.837  11.727 -0.0170  0.1280  0.2130
16526TIP3    H170993   5.081   1.764  11.675 -1.3503 -1.1621  1.0880
16526TIP3    H270994   5.053   1.807  11.817  2.1789  2.3021  0.8894
16527TIP3   OH270995   2.796   1.734   1.672  0.1332 -0.0327  0.0700
16527TIP3    H170996   2.848   1.797   1.722 -0.6913  2.5397 -2.0602
16527TIP3    H270997   2.715   1.723   1.722  1.3677 -1.6573  1.8364
16528TIP3   OH270998   0.907   0.328   1.744 -0.0495 -0.1549 -0.5017
16528TIP3    H170999   0.936   0.294   1.829 -0.6999 -2.0214 -0.9862
16528TIP3    H271000   0.823   0.371   1.763 -1.0985 -2.1188 -0.4217
16529TIP3   OH271001   3.219   6.438  15.568  0.2372 -0.1868  0.7934
16529TIP3    H171002   3.279   6.473  15.633  1.0654  0.5092 -0.3236
16529TIP3    H271003   3.217   6.344  15.585  0.7994 -0.0712  1.5183
16530TIP3   OH271004   4.950   0.032  15.801 -0.3317 -0.4894  0.4039
16530TIP3    H171005   4.913  -0.026  15.736 -2.1273  2.4716 -1.4568
16530TIP3    H271006   4.914   0.002  15.884 -0.4349 -2.5027 -0.3132
16531TIP3   OH271007   0.610   0.623   6.090  0.3115  0.1676 -0.1320
16531TIP3    H171008   0.599   0.623   5.995 -0.5101  1.4807 -0.0641
16531TIP3    H271009   0.674   0.692   6.107  0.7061 -0.2868  0.2495
16532TIP3   OH271010   1.238   0.501   0.705  0.2507 -0.4078  0.3198
16532TIP3    H171011   1.311   0.521   0.647 -0.3269 -1.4337 -0.8149
16532TIP3    H271012   1.251   0.409   0.729  0.4756 -0.0044  1.8424
16533TIP3   OH271013   2.687   4.782   0.181 -0.4143 -0.1412  0.3932
16533TIP3    H171014   2.615   4.720   0.180 -2.2342  1.8726 -0.6716
16533TIP3    H271015   2.705   4.797   0.274  0.0876 -2.1826  0.6752
16534TIP3   OH271016   6.038   4.255  11.145 -0.4224  0.2142 -0.1753
16534TIP3    H171017   6.069   4.345  11.153 -1.2849  0.3406  2.9836
16534TIP3    H271018   6.117   4.204  11.127  0.3616  1.3620 -0.0870
16535TIP3   OH271019   6.338   6.689  17.180  0.3663  0.5456 -0.3961
16535TIP3    H171020   6.424   6.676  17.221  0.5056  1.1557 -0.4874
16535TIP3    H271021   6.295   6.754  17.235 -0.1012  0.1423 -0.2738
16536TIP3   OH271022   4.086   5.001   2.705  0.5977 -0.1648 -0.4577
16536TIP3    H171023   4.095   4.958   2.789 -1.2722 -1.3800 -0.8186
16536TIP3    H271024   4.011   4.959   2.664  0.5592  1.3907 -2.1339
16537TIP3   OH271025   2.141   5.435   2.512  0.8060  0.8247 -0.8776
16537TIP3    H171026   2.168   5.371   2.446  0.2545  1.5144 -1.8006
16537TIP3    H271027   2.060   5.473   2.477 -0.0035  0.5770  0.6348
16538TIP3   OH271028   0.333   1.607  14.051  0.0300  0.0338  0.0518
16538TIP3    H171029   0.243   1.574  14.042  0.2488 -0.4834 -0.2497
16538TIP3    H271030   0.339   1.678  13.987  1.5392 -3.5114 -4.1886
16539TIP3   OH271031   5.904   5.213   2.016  0.3561  0.3672  0.2656
16539TIP3    H171032   5.938   5.196   1.928 -3.1320  0.6776 -1.3279
16539TIP3    H271033   5.844   5.140   2.033  0.4947  0.6443  2.1464
16540TIP3   OH271034   5.820   6.594   0.239 -0.0269  0.4144 -0.6810
16540TIP3    H171035   5.882   6.537   0.283  0.1697 -0.1167 -1.6008
16540TIP3    H271036   5.836   6.681   0.275 -0.0609 -0.0466  0.4588
16541TIP3   OH271037   1.434   0.907  13.013 -0.6371  0.4951 -0.0859
16541TIP3    H171038   1.429   0.860  13.096  0.0144  0.4234 -0.0775
16541TIP3    H271039   1.368   0.865  12.958  0.2330 -0.7485 -0.2244
16542TIP3   OH271040   6.194   2.936   5.472 -0.1900  0.4335  0.0069
16542TIP3    H171041   6.136   3.005   5.438  0.0654  0.4668 -0.3638
16542TIP3    H271042   6.244   2.979   5.541 -1.8417 -0.0425  1.5605
16543TIP3   OH271043   4.423   2.856   5.198  1.1180 -0.2083  0.1236
16543TIP3    H171044   4.420   2.761   5.197  2.0388 -0.2718  1.1016
16543TIP3    H271045   4.512   2.877   5.167  1.0898  0.3029  0.3769
16544TIP3   OH271046   6.610   1.708  14.883 -0.0330  0.0054  0.4814
16544TIP3    H171047   6.636   1.799  14.899 -1.1806  1.2747 -3.6160
16544TIP3    H271048   6.515   1.711  14.876 -0.1446 -1.6474  0.8776
16545TIP3   OH271049   2.963   3.151  16.359  0.2647 -0.1044  0.4457
16545TIP3    H171050   3.039   3.149  16.300 -0.1983  1.5992 -0.2820
16545TIP3    H271051   2.894   3.107  16.310  0.1565  0.4318  0.0997
16546TIP3   OH271052   3.504   0.717   4.896 -0.2514  0.5916 -0.3308
16546TIP3    H171053   3.425   0.715   4.950  0.6061 -1.3366  0.9493
16546TIP3    H271054   3.505   0.633   4.850  0.6483  0.9207 -0.9492
16547TIP3   OH271055   0.933   6.745  16.096  0.8567  0.0967  0.2475
16547TIP3    H171056   1.012   6.757  16.044  1.1803 -1.2330  0.4071
16547TIP3    H271057   0.862   6.774  16.039  1.0585 -2.5233 -1.4917
16548TIP3   OH271058   1.147   5.942   3.598 -0.2170 -1.0831 -0.1198
16548TIP3    H171059   1.087   5.874   3.629 -2.0573  0.8628  0.8796
16548TIP3    H271060   1.103   5.979   3.521  0.8472 -1.1271 -0.7651
16549TIP3   OH271061   0.814   1.971   3.595 -0.8675 -0.0208  0.1222
16549TIP3    H171062   0.903   1.996   3.571 -0.9399  2.1420  1.7827
16549TIP3    H271063   0.821   1.879   3.620  0.5289 -0.3658 -1.3249
16550TIP3   OH271064   4.462   2.480   1.878  0.3919 -0.7924 -0.3612
16550TIP3    H171065   4.504   2.567   1.876  1.1594 -1.1612 -1.9764
16550TIP3    H271066   4.389   2.487   1.817 -0.6980 -0.7626  0.9103
16551TIP3   OH271067   0.771   2.351   4.241 -0.5621  0.9438 -0.2321
16551TIP3    H171068   0.697   2.371   4.298 -1.6516 -0.1883 -1.1923
16551TIP3    H271069   0.750   2.265   4.203  1.0896  0.7496 -0.7819
16552TIP3   OH271070   2.834   0.003   3.199  0.0208  0.1715 -0.4573
16552TIP3    H171071   2.747   0.009   3.239  0.6234  0.6558  0.8250
16552TIP3    H271072   2.840  -0.088   3.169 -1.8549  0.7050 -2.8496
16553TIP3   OH271073   1.273   3.926  16.884 -0.1075  0.1702 -0.1496
16553TIP3    H171074   1.225   3.989  16.938 -0.2016 -0.5857  0.6608
16553TIP3    H271075   1.333   3.883  16.945  1.0555  0.5478 -0.9943
16554TIP3   OH271076   1.215   0.580  15.266  0.2644 -0.5950 -0.1608
16554TIP3    H171077   1.306   0.557  15.249  0.2902 -1.1066  0.6163
16554TIP3    H271078   1.163   0.512  15.223  0.1878  0.3161 -1.5893
16555TIP3   OH271079   1.572   5.152  16.834  0.1116  0.2440  0.9564
16555TIP3    H171080   1.539   5.169  16.745 -1.4892 -0.5488  1.3643
16555TIP3    H271081   1.554   5.233  16.882 -0.9610 -0.0409  1.0708
16556TIP3   OH271082   5.242   4.442  11.151 -0.1393  0.0168  0.1989
16556TIP3    H171083   5.185   4.437  11.074  0.5944  0.5033 -0.3917
16556TIP3    H271084   5.185   4.476  11.220 -0.6150  0.3435 -0.3396
16557TIP3   OH271085   6.531   3.120   4.674  0.0695 -0.2349  0.0286
16557TIP3    H171086   6.440   3.090   4.678 -0.0637  0.2759  1.8324
16557TIP3    H271087   6.581   3.047   4.709  0.7582 -1.6556 -3.5155
16558TIP3   OH271088   3.342   2.274  13.705 -0.2475  0.0920 -0.5179
16558TIP3    H171089   3.360   2.252  13.796 -0.5874 -1.0530 -0.7076
16558TIP3    H271090   3.274   2.340  13.709  0.2254  0.5574  0.0693
16559TIP3   OH271091   4.539   1.282  14.952  0.0802  0.0036  0.1737
16559TIP3    H171092   4.566   1.195  14.920  0.6452  0.0081  0.6170
16559TIP3    H271093   4.492   1.321  14.878  0.6627 -0.3020 -0.3717
16560TIP3   OH271094   2.308   6.759   6.175 -0.8580  0.5904 -0.3553
16560TIP3    H171095   2.352   6.772   6.259 -0.0785  2.2583 -0.9897
16560TIP3    H271096   2.218   6.737   6.199 -0.1178 -1.3178  0.9350
16561TIP3   OH271097   1.342   5.655   5.667  0.0039 -0.2683  0.4764
16561TIP3    H171098   1.311   5.719   5.602 -0.2795 -0.5625  0.3165
16561TIP3    H271099   1.406   5.702   5.719  0.2918 -0.0451 -0.0695
16562TIP3   OH271100   6.036   2.968  16.596  0.3180  0.6174 -0.0753
16562TIP3    H171101   6.121   2.967  16.551  0.9276  1.4947  1.0269
16562TIP3    H271102   5.979   3.014  16.535  0.4885 -0.4145 -1.0483
16563TIP3   OH271103   4.505   4.593  14.146 -0.2041 -1.0120 -0.0704
16563TIP3    H171104   4.543   4.587  14.234 -2.0180 -0.5641  0.7916
16563TIP3    H271105   4.511   4.686  14.124  0.7672 -1.2099 -0.6828
16564TIP3   OH271106   3.777   2.268  14.810  0.3509  0.1995  0.0824
16564TIP3    H171107   3.827   2.193  14.779 -0.7291 -0.7515  0.5602
16564TIP3    H271108   3.687   2.248  14.787  0.2120  2.2315 -1.4516
16565TIP3   OH271109   2.350   4.962  16.005 -0.1850  0.2192 -0.0995
16565TIP3    H171110   2.328   4.897  16.071  0.8936 -0.3465 -0.2651
16565TIP3    H271111   2.360   5.044  16.053  0.6939 -0.2054  0.4753
16566TIP3   OH271112   0.670   3.737   2.601  0.1507 -0.4602 -0.2080
16566TIP3    H171113   0.648   3.765   2.512 -0.2371 -0.6576 -0.1752
16566TIP3    H271114   0.685   3.819   2.648 -0.1159 -0.3372 -0.3349
16567TIP3   OH271115   3.742   2.709  14.307 -0.0162 -0.1982 -0.3304
16567TIP3    H171116   3.752   2.767  14.231 -0.3271 -1.4583 -1.3645
16567TIP3    H271117   3.823   2.720  14.356 -0.2426  1.4272 -0.2559
16568TIP3   OH271118   6.334   3.905  11.771  0.5234 -0.5577  0.0976
16568TIP3    H171119   6.308   3.892  11.680 -0.0870  1.6070 -0.1091
16568TIP3    H271120   6.257   3.878  11.821 -0.6269  1.6506 -0.2966
16569TIP3   OH271121   3.494   5.836  12.237  0.3295  0.2147 -0.6340
16569TIP3    H171122   3.548   5.817  12.314 -1.2959 -1.8037  0.1104
16569TIP3    H271123   3.493   5.931  12.232  0.2454  0.4508  2.0915
16570TIP3   OH271124   2.984   6.255  13.751  0.2586 -0.2642  0.4967
16570TIP3    H171125   2.985   6.241  13.846  2.7218 -2.0529  0.2970
16570TIP3    H271126   2.992   6.349  13.740 -0.4102  0.0031  2.0324
16571TIP3   OH271127   2.626   4.018  11.267  0.2865  0.6220 -0.3031
16571TIP3    H171128   2.553   3.956  11.268  0.6227  0.2267 -0.0018
16571TIP3    H271129   2.682   3.990  11.340  0.5617  1.1335 -0.3183
16572TIP3   OH271130   5.677   3.328   6.165 -0.0478 -0.3840  0.5802
16572TIP3    H171131   5.673   3.237   6.137  1.4115 -0.4035  0.3371
16572TIP3    H271132   5.770   3.344   6.182  0.2033  1.8009 -2.0492
16573TIP3   OH271133   3.262   0.909  13.112 -0.7870  0.0581 -0.1727
16573TIP3    H171134   3.303   0.824  13.129 -0.1977 -0.0727 -2.0061
16573TIP3    H271135   3.335   0.965  13.084 -1.5966  0.2250 -2.0891
16574TIP3   OH271136   0.269   1.103   3.707 -0.7512  0.3937 -0.1571
16574TIP3    H171137   0.254   1.195   3.685  0.7048  1.2531  2.1470
16574TIP3    H271138   0.234   1.093   3.796  3.7729  0.2539  1.8706
16575TIP3   OH271139   5.974   4.518  14.190 -0.0218  0.3617  0.0698
16575TIP3    H171140   6.011   4.565  14.116  1.4295  0.2311  0.6944
16575TIP3    H271141   6.017   4.433  14.190 -0.9309 -0.1206  0.3299
16576TIP3   OH271142   2.974   1.166  11.147  0.4987  0.2958 -0.5569
16576TIP3    H171143   3.034   1.118  11.089  2.6953  0.7560  1.1705
16576TIP3    H271144   2.988   1.127  11.233 -2.0341  0.2149 -0.1125
16577TIP3   OH271145   3.457   5.632  11.613  0.7364  0.1830 -0.3540
16577TIP3    H171146   3.424   5.596  11.696  0.6542  0.3786 -0.3014
16577TIP3    H271147   3.499   5.715  11.638  0.9282  0.1222 -0.4739
16578TIP3   OH271148   1.805   1.429  15.537  0.0918  0.3180 -0.4021
16578TIP3    H171149   1.849   1.411  15.454  1.4615 -0.5401  0.4680
16578TIP3    H271150   1.872   1.413  15.604 -0.0985  3.6551  0.7820
16579TIP3   OH271151   4.980   3.351  15.575  0.1164 -0.4284  0.3950
16579TIP3    H171152   4.973   3.288  15.647 -1.9118 -0.0208  0.5856
16579TIP3    H271153   4.931   3.311  15.503 -0.0193  0.3275  0.0584
16580TIP3   OH271154   5.191   4.728  11.600  0.2632 -0.1126  0.2076
16580TIP3    H171155   5.276   4.698  11.567 -0.5149 -1.0187 -1.0365
16580TIP3    H271156   5.163   4.796  11.538  0.8478  1.4671  1.5975
16581TIP3   OH271157   3.986   0.733  14.479 -0.0947  0.1573  0.6639
16581TIP3    H171158   3.996   0.637  14.476  0.8478  0.2606 -0.2478
16581TIP3    H271159   4.052   0.762  14.542  1.8078  0.4051 -1.3035
16582TIP3   OH271160   6.059   2.892   2.609 -0.4062  0.0051  0.3093
16582TIP3    H171161   5.999   2.850   2.671 -2.2329 -0.4593 -1.6618
16582TIP3    H271162   6.130   2.829   2.599 -1.8647 -1.5850 -0.6921
16583TIP3   OH271163   0.548   5.302  16.896 -0.5543  0.1232 -0.2124
16583TIP3    H171164   0.550   5.214  16.858 -1.5184  0.2531 -0.5930
16583TIP3    H271165   0.611   5.352  16.844  0.7151 -0.5662  0.6183
16584TIP3   OH271166   1.097   0.486  11.714 -0.0507 -0.0168 -0.3486
16584TIP3    H171167   1.014   0.510  11.755 -0.0024 -0.9473  0.3032
16584TIP3    H271168   1.077   0.408  11.662 -0.4024  1.7893 -3.1372
16585TIP3   OH271169   5.439   0.205   3.013 -0.3893 -0.7139  0.1635
16585TIP3    H171170   5.384   0.237   2.942 -0.5762 -2.0609 -0.3425
16585TIP3    H271171   5.451   0.112   2.993 -2.5299 -1.7812  3.2273
16586TIP3   OH271172   6.578   0.571  11.443 -0.2468 -0.2502 -0.3854
16586TIP3    H171173   6.539   0.484  11.431 -0.9787  0.0393 -0.0988
16586TIP3    H271174   6.583   0.582  11.538  0.7601 -0.3822 -0.4115
16587TIP3   OH271175   4.603   2.680   5.372 -0.0701  0.7323  0.9654
16587TIP3    H171176   4.685   2.640   5.342 -0.1629 -0.2457  1.9322
16587TIP3    H271177   4.542   2.606   5.380 -0.9279  1.3932  0.6390
16588TIP3   OH271178   6.741   0.910  16.350 -0.1225 -0.0094 -0.0089
16588TIP3    H171179   6.829   0.946  16.356 -0.0914 -0.3060  2.3600
16588TIP3    H271180   6.692   0.974  16.299  1.5552 -0.1204 -1.8905
16589TIP3   OH271181   5.153   0.260   6.242 -0.0354 -0.1488 -0.7048
16589TIP3    H171182   5.171   0.300   6.327 -1.2774  0.6792 -0.7920
16589TIP3    H271183   5.214   0.303   6.182  0.0152  0.1567 -0.4376
16590TIP3   OH271184   4.817   6.555   6.514 -1.0114  0.3946 -0.0438
16590TIP3    H171185   4.820   6.461   6.529 -1.4375  0.3206 -0.4183
16590TIP3    H271186   4.907   6.579   6.493 -1.0847 -0.0947 -0.9466
16591TIP3   OH271187   6.726   2.916   3.879 -0.2643 -0.3991 -0.0739
16591TIP3    H171188   6.718   2.900   3.785  0.8777  1.3541 -0.5256
16591TIP3    H271189   6.673   2.994   3.894 -0.3578 -0.6131  0.7324
16592TIP3   OH271190   3.835   4.060  14.920  0.3076 -0.0449  0.6487
16592TIP3    H171191   3.870   4.070  15.008  1.2653  1.9971  0.0896
16592TIP3    H271192   3.904   4.093  14.862 -1.3326  1.2938 -0.6708
16593TIP3   OH271193   6.361   3.184  16.860 -0.1533  0.0644  0.4439
16593TIP3    H171194   6.352   3.100  16.813 -1.0853  0.6078 -0.3812
16593TIP3    H271195   6.343   3.162  16.951  0.8604 -0.8623  0.4372
16594TIP3   OH271196   0.896   4.118   0.298  0.0139  0.1364  0.0503
16594TIP3    H171197   0.947   4.148   0.373  1.9968 -1.0356 -0.7676
16594TIP3    H271198   0.832   4.057   0.335 -0.1331  0.8333  0.9693
16595TIP3   OH271199   6.105   5.154  11.116 -0.1010 -0.8223  0.6126
16595TIP3    H171200   6.174   5.220  11.117 -1.5923  0.7977  0.5014
16595TIP3    H271201   6.053   5.175  11.038 -3.2021  0.7062  2.9172
16596TIP3   OH271202   1.162   3.409   5.102 -0.5174 -0.0575  0.1606
16596TIP3    H171203   1.138   3.500   5.119 -0.3800 -0.0250  0.1792
16596TIP3    H271204   1.133   3.361   5.179 -0.3287  0.0152  0.2785
16597TIP3   OH271205   1.647   2.326   6.689 -0.4096  0.2793  0.3685
16597TIP3    H171206   1.738   2.295   6.689 -1.1308 -2.4299 -3.2163
16597TIP3    H271207   1.655   2.422   6.688  2.2616  0.1938  1.8886
16598TIP3   OH271208   4.757   6.366   3.929 -0.0439 -0.3767  0.2406
16598TIP3    H171209   4.747   6.430   3.999  0.4358 -0.9747  0.8713
16598TIP3    H271210   4.842   6.387   3.889  0.3260 -0.8809  0.7396
16599TIP3   OH271211   1.795   6.761   1.972 -0.7181  0.8289  0.4969
16599TIP3    H171212   1.889   6.742   1.973 -0.8529 -0.3333 -2.0687
16599TIP3    H271213   1.776   6.791   2.061  2.1047  1.3144  1.0251
16600TIP3   OH271214   2.085   0.072   1.526 -0.1088  0.4140 -0.6779
16600TIP3    H171215   2.181   0.078   1.530 -0.1873  1.0646  0.7873
16600TIP3    H271216   2.057   0.067   1.617 -1.4363 -0.8950 -1.1068
16601TIP3   OH271217   0.519   0.062   5.174  0.6811 -0.5884 -0.4287
16601TIP3    H171218   0.426   0.083   5.178  0.4539 -1.7517  1.7572
16601TIP3    H271219   0.554   0.121   5.106 -1.2084  1.5030  0.2884
16602TIP3   OH271220   2.729   0.280   6.246 -0.0650 -0.8529  0.6154
16602TIP3    H171221   2.662   0.287   6.315 -1.7218 -4.0086 -0.4740
16602TIP3    H271222   2.684   0.308   6.167 -0.0472 -2.6325 -0.0645
16603TIP3   OH271223   5.666   4.752   2.028 -0.5754 -0.5202 -0.0245
16603TIP3    H171224   5.726   4.694   2.073  0.0993 -2.4990 -3.1597
16603TIP3    H271225   5.620   4.696   1.965 -0.0469  2.1700 -3.1363
16604TIP3   OH271226   2.932   1.768   2.334  0.7664  0.0505  0.0746
16604TIP3    H171227   3.003   1.827   2.311 -0.3400  1.9524  1.2064
16604TIP3    H271228   2.872   1.772   2.259  0.3095  1.0533  0.4739
16605TIP3   OH271229   0.660   5.560   4.605  0.1785  0.7418 -0.0061
16605TIP3    H171230   0.575   5.604   4.599  0.1594  0.5998 -0.8353
16605TIP3    H271231   0.638   5.469   4.626  0.1727  0.8738  0.6004
16606TIP3   OH271232   2.603   3.869  15.716  0.4592 -0.1358 -0.3031
16606TIP3    H171233   2.673   3.935  15.716  1.7682 -1.4482 -1.5265
16606TIP3    H271234   2.557   3.883  15.633 -1.2319  1.1489  0.7846
16607TIP3   OH271235   2.500   2.644   2.816 -0.4269 -0.2306  0.2246
16607TIP3    H171236   2.530   2.651   2.906  0.6062  1.5963 -0.2100
16607TIP3    H271237   2.409   2.675   2.818  0.2192  1.7944  0.3634
16608TIP3   OH271238   4.664   5.161  12.392 -0.1061  0.2353  0.0569
16608TIP3    H171239   4.641   5.214  12.316  1.8145  0.4632 -0.4074
16608TIP3    H271240   4.616   5.079  12.379 -1.5511  1.1016 -0.2231
16609TIP3   OH271241   0.158   0.009  12.708  0.0589 -0.1079 -0.7604
16609TIP3    H171242   0.128  -0.079  12.685 -0.0738 -0.3545  0.2868
16609TIP3    H271243   0.192   0.000  12.797  0.3785  0.8278 -0.7760
16610TIP3   OH271244   5.863   2.901   5.704 -0.2934  0.0045  0.0695
16610TIP3    H171245   5.926   2.840   5.665 -0.7490  0.1317 -0.9121
16610TIP3    H271246   5.866   2.883   5.798  1.5950  0.3687  0.1236
16611TIP3   OH271247   4.011   5.262   1.967 -0.0519  0.2913 -0.1051
16611TIP3    H171248   4.045   5.338   2.016  0.7436 -0.5831  0.7391
16611TIP3    H271249   4.037   5.186   2.019 -0.3655 -0.6032 -1.2130
16612TIP3   OH271250   1.398   1.988  16.658 -0.0725  0.0172 -0.1315
16612TIP3    H171251   1.359   2.055  16.714  1.2957  0.7281  0.0128
16612TIP3    H271252   1.492   2.006  16.661  0.1178 -0.5177 -1.9214
16613TIP3   OH271253   3.230   5.061   4.018  0.0895  0.3323  0.6155
16613TIP3    H171254   3.162   5.100   4.074 -1.4001 -1.3427  0.0659
16613TIP3    H271255   3.232   4.969   4.044  0.5110 -0.1274 -0.9704
16614TIP3   OH271256   1.526   1.641   0.804 -0.9157 -0.1733 -0.7080
16614TIP3    H171257   1.491   1.721   0.843 -0.7408 -0.9747  1.2176
16614TIP3    H271258   1.586   1.672   0.736  0.4842  1.4416  1.1296
16615TIP3   OH271259   6.130   4.544  13.075  0.4793  0.4407  0.0443
16615TIP3    H171260   6.211   4.539  13.024  0.1552  0.4215 -0.4794
16615TIP3    H271261   6.141   4.622  13.130  0.1353  1.5014 -1.3157
16616TIP3   OH271262   0.452   4.337   4.291  0.3739 -0.2189 -0.3995
16616TIP3    H171263   0.419   4.305   4.375  1.8072 -1.3433 -0.2304
16616TIP3    H271264   0.457   4.432   4.302 -1.3570 -0.1443  0.0581
16617TIP3   OH271265   4.155   5.771   0.443  0.2025  0.0099 -0.3196
16617TIP3    H171266   4.127   5.680   0.441  0.3563 -0.0567 -2.5512
16617TIP3    H271267   4.180   5.787   0.534 -1.0207 -1.7818  0.3824
16618TIP3   OH271268   0.618   1.365   1.881  0.5145 -0.1394 -0.0773
16618TIP3    H171269   0.540   1.369   1.937  1.0817  0.3611  0.6965
16618TIP3    H271270   0.642   1.456   1.866  1.9787 -0.2589  1.1987
16619TIP3   OH271271   0.074   1.558   0.757  0.1767 -0.2875 -0.3401
16619TIP3    H171272   0.085   1.638   0.809 -1.5651  0.3938 -0.9179
16619TIP3    H271273   0.044   1.493   0.820  1.2502 -0.4002  0.0703
16620TIP3   OH271274   0.908   3.997  16.028  0.1333 -0.1911  0.2761
16620TIP3    H171275   0.994   3.977  16.065  0.1338  1.4631  1.2699
16620TIP3    H271276   0.888   4.085  16.061 -1.7127 -0.3420 -0.3530
16621TIP3   OH271277   4.900   2.380  16.751  0.5052 -0.3660  0.5317
16621TIP3    H171278   4.832   2.382  16.684  1.1729  1.1469 -0.1528
16621TIP3    H271279   4.884   2.459  16.804  1.2097 -0.4583  0.8941
16622TIP3   OH271280   3.610   3.831   0.459  0.1603  0.3459 -0.5352
16622TIP3    H171281   3.634   3.772   0.531  1.1232  0.5135 -0.6972
16622TIP3    H271282   3.656   3.912   0.480  0.7872  0.2643 -1.5387
16623TIP3   OH271283   0.349   5.170  12.965 -0.2686 -0.1462 -0.1609
16623TIP3    H171284   0.434   5.171  12.920 -0.5001 -0.9353 -0.6249
16623TIP3    H271285   0.335   5.078  12.988 -1.1788 -0.0844 -0.4375
16624TIP3   OH271286   1.403   2.763   4.533  0.4924  0.0481  0.5729
16624TIP3    H171287   1.344   2.688   4.533 -1.9449  1.8379  0.8729
16624TIP3    H271288   1.402   2.794   4.624  0.5293  1.0797  0.2368
16625TIP3   OH271289   5.524   5.600   6.013  0.0645 -0.0849  0.2659
16625TIP3    H171290   5.499   5.660   5.943 -0.0419  0.0333  0.4047
16625TIP3    H271291   5.582   5.651   6.069  0.8608 -0.4481 -0.2122
16626TIP3   OH271292   1.268   5.178  15.091  0.7319  0.2150  0.2724
16626TIP3    H171293   1.283   5.253  15.149  0.2416  0.5943 -0.0824
16626TIP3    H271294   1.320   5.107  15.129  0.0909  0.3405  1.4166
16627TIP3   OH271295   3.242   5.049   5.491 -0.2180  0.7534  0.0644
16627TIP3    H171296   3.169   5.084   5.441 -0.4744 -0.3589 -0.3666
16627TIP3    H271297   3.285   4.988   5.431  2.1682  2.6971 -0.3440
16628TIP3   OH271298   3.900   5.293  15.070 -0.1002  0.3889  0.3824
16628TIP3    H171299   3.850   5.223  15.112  1.2258 -0.4214  0.6771
16628TIP3    H271300   3.871   5.292  14.979  0.3059 -0.9717  0.2377
16629TIP3   OH271301   3.920   1.435   5.010 -0.9439 -0.0886 -0.9360
16629TIP3    H171302   3.967   1.464   5.088 -1.9515 -1.8370  0.3934
16629TIP3    H271303   3.889   1.516   4.969  1.0042  0.9571 -0.4769
16630TIP3   OH271304   2.320   5.785   5.261  0.3810  0.1157  0.2809
16630TIP3    H171305   2.307   5.756   5.171 -0.1826  0.7614  0.1437
16630TIP3    H271306   2.384   5.724   5.297  0.7633 -0.0316 -0.6154
16631TIP3   OH271307   5.551   6.485  15.516 -0.2827  0.6449 -0.0428
16631TIP3    H171308   5.604   6.550  15.562 -0.1486  1.3982 -1.2124
16631TIP3    H271309   5.575   6.495  15.424 -2.0079  0.6025 -0.5354
16632TIP3   OH271310   4.190   4.260   3.993 -0.2058 -0.2004  0.0297
16632TIP3    H171311   4.259   4.217   3.945 -0.6844 -0.3960 -0.4915
16632TIP3    H271312   4.112   4.250   3.938 -0.9974 -1.2975  1.2774
16633TIP3   OH271313   0.154   6.747   1.246 -0.4083 -0.1647 -0.1795
16633TIP3    H171314   0.113   6.743   1.159 -2.4662  0.3255  0.6961
16633TIP3    H271315   0.144   6.658   1.281 -0.0558 -0.2283 -0.2393
16634TIP3   OH271316   3.951   6.652   3.851  1.3764 -0.6463 -0.1891
16634TIP3    H171317   3.912   6.711   3.915  1.2764 -0.8027 -0.1042
16634TIP3    H271318   3.910   6.567   3.869 -0.0991 -0.2891 -1.7368
16635TIP3   OH271319   2.783   6.162   4.972 -0.9105  0.2892  0.0101
16635TIP3    H171320   2.827   6.214   4.906  0.9625 -1.6605 -0.3740
16635TIP3    H271321   2.815   6.196   5.055 -1.2970  1.0724 -0.1569
16636TIP3   OH271322   1.144   5.316  14.253  0.1581 -0.4218 -0.1551
16636TIP3    H171323   1.116   5.276  14.335  0.1346  0.1576  0.1272
16636TIP3    H271324   1.075   5.379  14.232  0.6595  0.1600 -0.0838
16637TIP3   OH271325   4.887   6.540   1.935 -0.3691 -0.2825 -0.0845
16637TIP3    H171326   4.932   6.533   2.019  0.5771 -0.8422 -0.6143
16637TIP3    H271327   4.931   6.476   1.879 -0.8909  0.1710 -1.0460
16638TIP3   OH271328   1.293   6.033   5.942  0.0712  0.1212 -0.1046
16638TIP3    H171329   1.269   5.997   6.028 -1.6997  1.6195  0.1027
16638TIP3    H271330   1.388   6.020   5.936  0.2325 -0.0875  2.0551
16639TIP3   OH271331   1.590   4.142   2.000 -0.7170 -0.1213  0.2752
16639TIP3    H171332   1.522   4.138   2.067 -0.3677  0.7850  0.7035
16639TIP3    H271333   1.547   4.108   1.921 -1.6683  0.4255  0.5343
16640TIP3   OH271334   4.036   5.973   4.121  0.3933 -0.1779 -0.0838
16640TIP3    H171335   4.084   5.912   4.178 -0.3474  0.1427  0.9100
16640TIP3    H271336   3.967   6.008   4.177  0.4821  1.1810 -0.7987
16641TIP3   OH271337   1.086   5.479  16.504 -0.6747 -0.1417 -0.6392
16641TIP3    H171338   1.075   5.522  16.419 -0.2507 -0.8472 -1.0562
16641TIP3    H271339   1.178   5.495  16.528 -1.2930  1.8653  0.7114
16642TIP3   OH271340   4.292   3.748  14.070  0.1973 -0.0105 -0.3077
16642TIP3    H171341   4.320   3.839  14.060 -0.2123  0.0939 -0.5461
16642TIP3    H271342   4.346   3.713  14.141  0.3635  0.4138 -0.2248
16643TIP3   OH271343   1.873   6.508  12.223  0.0653 -0.5599 -0.1196
16643TIP3    H171344   1.947   6.448  12.214 -0.4269 -1.9877  3.5244
16643TIP3    H271345   1.813   6.463  12.283 -2.3809  1.8213 -0.5639
16644TIP3   OH271346   3.665   4.474   1.522 -0.3234  0.4786 -0.3263
16644TIP3    H171347   3.684   4.548   1.579 -0.8421  0.8245 -0.5999
16644TIP3    H271348   3.748   4.455   1.478  0.4777 -0.7207  1.6017
16645TIP3   OH271349   3.326   4.714  15.890 -0.2892  0.5066 -0.1659
16645TIP3    H171350   3.246   4.767  15.888 -2.5180 -2.2669  3.4553
16645TIP3    H271351   3.372   4.743  15.968 -0.2305 -1.0929  0.4128
16646TIP3   OH271352   1.831   5.171   2.628  0.2186  0.1286 -0.1875
16646TIP3    H171353   1.894   5.101   2.610  0.3331  0.0103  0.6339
16646TIP3    H271354   1.778   5.138   2.700  0.5988  1.0822  0.5580
16647TIP3   OH271355   4.915   4.714  13.094  0.0858  0.1798 -0.1671
16647TIP3    H171356   4.959   4.789  13.053 -0.8973  0.9643  0.1893
16647TIP3    H271357   4.863   4.752  13.165  0.9171 -1.0414  1.1449
16648TIP3   OH271358   4.436   4.692   3.723  0.2319  0.2092 -0.0066
16648TIP3    H171359   4.369   4.760   3.724  0.2360  0.2128  1.1506
16648TIP3    H271360   4.391   4.614   3.691  0.1511  0.6606 -1.0419
16649TIP3   OH271361   1.401   0.168  13.446  0.3421 -0.0551 -0.8593
16649TIP3    H171362   1.402   0.176  13.541 -0.5442 -0.1820 -0.8404
16649TIP3    H271363   1.310   0.178  13.421  0.5322 -0.2738 -1.6808
16650TIP3   OH271364   5.580   0.637   3.586  0.2135  0.1027  0.2427
16650TIP3    H171365   5.625   0.720   3.569 -0.2860  0.6938  1.6858
16650TIP3    H271366   5.641   0.570   3.554  1.4093  0.9465  0.6800
16651TIP3   OH271367   2.597   6.347  12.824  0.6466  0.5141 -0.1918
16651TIP3    H171368   2.554   6.264  12.800  0.2169 -0.5401  3.5162
16651TIP3    H271369   2.613   6.338  12.918  2.6266  3.8127 -0.0885
16652TIP3   OH271370   1.120   5.945   1.325 -0.4217 -0.0332  0.5067
16652TIP3    H171371   1.167   6.028   1.331 -0.3342 -0.0003 -0.4599
16652TIP3    H271372   1.028   5.970   1.317 -0.3053  0.0324 -0.8953
16653TIP3   OH271373   3.853   5.134   0.425 -0.0713  0.2971  0.0150
16653TIP3    H171374   3.869   5.204   0.361 -1.9765 -0.0332 -0.9027
16653TIP3    H271375   3.758   5.123   0.424  0.0069 -0.8584  1.7303
16654TIP3   OH271376   3.885   3.147   5.054 -0.3659  0.0062  0.0653
16654TIP3    H171377   3.929   3.231   5.061  0.9375 -0.5014 -1.3580
16654TIP3    H271378   3.905   3.102   5.136 -0.5656  0.8412  0.5766
16655TIP3   OH271379   2.888   2.765  15.450  0.3241  0.0546  0.1286
16655TIP3    H171380   2.844   2.702  15.393  1.1973  0.0296 -0.5355
16655TIP3    H271381   2.911   2.715  15.529 -0.9820  0.1180  0.5794
16656TIP3   OH271382   2.229   4.176   1.771  0.0955 -0.2849  0.3263
16656TIP3    H171383   2.170   4.139   1.837 -0.0005 -2.0054 -0.6628
16656TIP3    H271384   2.296   4.108   1.758  0.5874  0.3780 -0.7360
16657TIP3   OH271385   5.444   6.000   6.068  0.0000  0.3093 -0.1084
16657TIP3    H171386   5.470   6.092   6.060  1.0042  0.1221  0.8231
16657TIP3    H271387   5.363   5.994   6.018  0.5530  1.4283 -1.1812
16658TIP3   OH271388   1.761   3.972  13.989  0.1397 -0.5641 -0.1306
16658TIP3    H171389   1.854   3.977  14.011 -0.2152 -0.6126  1.4940
16658TIP3    H271390   1.716   3.967  14.073 -1.3581 -0.3534 -0.8744
16659TIP3   OH271391   5.054   2.915   4.991  0.1555  0.1498 -0.6118
16659TIP3    H171392   5.037   2.944   4.902 -0.9390  0.0949 -0.4277
16659TIP3    H271393   4.969   2.889   5.025  0.8934 -2.2820 -0.4152
16660TIP3   OH271394   1.956   5.407  14.830 -0.1479 -0.6830  0.6048
16660TIP3    H171395   1.928   5.349  14.759  0.9994 -0.9294  0.3496
16660TIP3    H271396   1.875   5.422  14.880 -0.9655 -0.5617 -0.6862
16661TIP3   OH271397   2.003   3.678   0.842 -0.2206  0.0856  0.4878
16661TIP3    H171398   1.981   3.624   0.767 -0.3313  0.3955  0.2935
16661TIP3    H271399   1.944   3.754   0.835 -0.8534 -0.3091  1.3771
16662TIP3   OH271400   4.950   6.561   3.119 -0.0755 -0.0051 -0.0193
16662TIP3    H171401   4.929   6.481   3.072  0.9481 -1.3724  1.6966
16662TIP3    H271402   4.925   6.632   3.060 -1.6772 -1.5629 -1.3115
16663TIP3   OH271403   4.674   1.157   4.642 -0.0071  0.1042 -0.3220
16663TIP3    H171404   4.667   1.120   4.554 -0.6539  0.4194 -0.4168
16663TIP3    H271405   4.695   1.083   4.698 -0.1034 -0.1938 -0.6765
16664TIP3   OH271406   2.093   4.268   0.923 -0.1015 -0.2558 -0.3362
16664TIP3    H171407   2.011   4.221   0.941  0.2426 -0.4099  0.8599
16664TIP3    H271408   2.147   4.204   0.876 -0.0052 -0.7403  0.4226
16665TIP3   OH271409   5.620   3.506   3.578  0.0862 -0.0246  0.0934
16665TIP3    H171410   5.598   3.536   3.666  0.2291 -2.5099  1.0727
16665TIP3    H271411   5.538   3.469   3.545  0.1409  0.5070 -0.6420
16666TIP3   OH271412   0.476   6.411  12.513  0.1809  0.4844  0.2180
16666TIP3    H171413   0.387   6.444  12.523 -0.6274 -0.8668 -1.7199
16666TIP3    H271414   0.522   6.479  12.465 -0.0598  0.8360  0.4838
16667TIP3   OH271415   5.668   1.374  16.122  0.4432  0.2252 -0.2765
16667TIP3    H171416   5.646   1.321  16.045  2.0757  1.4197 -1.6437
16667TIP3    H271417   5.600   1.442  16.124 -0.9316 -1.1185  0.7482
16668TIP3   OH271418   2.261   2.414   2.869  0.3680  0.0954 -0.2283
16668TIP3    H171419   2.261   2.402   2.774  0.0209 -1.0417 -0.0979
16668TIP3    H271420   2.347   2.384   2.898 -0.0517 -0.9499 -0.0345
16669TIP3   OH271421   0.046   3.468  13.213 -0.6862 -0.6077  0.2482
16669TIP3    H171422   0.005   3.381  13.219 -1.2192 -0.3115  1.2134
16669TIP3    H271423   0.136   3.450  13.186 -1.5876 -1.2317 -2.7140
16670TIP3   OH271424   1.402   2.519  12.648  0.6149  0.9164  0.5937
16670TIP3    H171425   1.380   2.593  12.591 -1.8826  0.7558  1.2525
16670TIP3    H271426   1.363   2.444  12.605 -0.3773  0.6261  1.9479
16671TIP3   OH271427   1.382   6.341   0.247  0.1036 -0.2956  0.1006
16671TIP3    H171428   1.303   6.315   0.200  0.9383 -0.3250 -1.3734
16671TIP3    H271429   1.353   6.406   0.310 -1.4671 -2.1043  1.3553
16672TIP3   OH271430   5.441   1.238   1.668  0.0393  0.0625  0.3719
16672TIP3    H171431   5.505   1.304   1.642  1.1923 -1.3775 -0.5949
16672TIP3    H271432   5.487   1.184   1.733 -0.2753 -0.8015 -0.1031
16673TIP3   OH271433   2.062   1.965  16.459  0.1413 -0.1440 -0.1048
16673TIP3    H171434   2.090   2.007  16.378 -1.6483  1.2801 -0.0579
16673TIP3    H271435   2.069   1.871  16.442  0.0597  0.1440 -1.8225
16674TIP3   OH271436   0.233   2.620   1.385 -0.2858  0.5453 -0.0570
16674TIP3    H171437   0.233   2.579   1.298 -1.1060  0.0696  0.1576
16674TIP3    H271438   0.148   2.664   1.391 -0.6059 -0.1673  0.8443
16675TIP3   OH271439   0.120   0.152   0.520 -0.1300 -0.1296  0.1403
16675TIP3    H171440   0.031   0.183   0.537  0.0390 -0.4649  1.7960
16675TIP3    H271441   0.121   0.063   0.556  1.1016  0.1568  0.8292
16676TIP3   OH271442   6.649   1.553  15.497  0.8278  0.6539 -0.3165
16676TIP3    H171443   6.722   1.518  15.548  1.0562 -0.2282 -1.2089
16676TIP3    H271444   6.688   1.578  15.413 -0.3126 -2.9799 -2.1651
16677TIP3   OH271445   5.609   2.427   1.205  0.1432  0.4926  0.2944
16677TIP3    H171446   5.676   2.472   1.153  0.5251 -0.7071 -0.2949
16677TIP3    H271447   5.632   2.446   1.296 -0.1042  2.0166  0.0647
16678TIP3   OH271448   4.184   5.840  14.368 -0.3307 -0.2055  0.2397
16678TIP3    H171449   4.205   5.932  14.387  0.0682 -0.8086  3.0358
16678TIP3    H271450   4.251   5.813  14.305  1.0965  0.7321  1.3002
16679TIP3   OH271451   4.105   0.956   4.919 -0.2365 -0.7516  0.0027
16679TIP3    H171452   4.044   1.006   4.974  0.0874  0.3384 -0.6018
16679TIP3    H271453   4.108   0.870   4.960 -1.3109 -0.4868  0.7015
16680TIP3   OH271454   2.055   0.952  12.483  0.2672  0.2434 -0.7625
16680TIP3    H171455   1.972   0.971  12.528 -0.7689  0.3363 -2.5984
16680TIP3    H271456   2.085   1.037  12.452 -0.1029 -0.0376 -1.9478
16681TIP3   OH271457   4.523   2.974   1.618  0.8349  0.4501 -0.3497
16681TIP3    H171458   4.469   3.016   1.684  2.4862  1.2053  0.5860
16681TIP3    H271459   4.471   2.977   1.538 -1.1929 -0.4504  0.8607
16682TIP3   OH271460   3.513   3.968  13.459 -0.3390 -0.0904  0.1544
16682TIP3    H171461   3.510   4.010  13.373  0.1734  2.9269  1.4672
16682TIP3    H271462   3.604   3.979  13.488 -0.8597  0.4455  1.7150
16683TIP3   OH271463   6.050   1.760   4.340  0.5139 -0.4628 -0.3659
16683TIP3    H171464   6.019   1.837   4.292  0.6862 -0.7212 -0.9045
16683TIP3    H271465   6.130   1.734   4.294  0.5106 -0.8979 -0.1263
16684TIP3   OH271466   6.484   2.341   6.058 -0.3623  0.1122  0.0422
16684TIP3    H171467   6.478   2.384   6.143 -0.9225 -0.6424  0.3884
16684TIP3    H271468   6.518   2.254   6.077 -2.8299 -0.9760 -0.1835
16685TIP3   OH271469   0.384   3.229  11.629 -0.2416  0.0376 -0.4432
16685TIP3    H171470   0.338   3.147  11.609  1.0961 -1.4212  1.9226
16685TIP3    H271471   0.474   3.201  11.646 -0.1196  1.6776  2.1890
16686TIP3   OH271472   4.730   2.153  13.594 -0.0173  0.2970  0.1397
16686TIP3    H171473   4.675   2.095  13.543 -0.2578  0.9354 -0.3443
16686TIP3    H271474   4.747   2.227  13.536  2.2859 -0.3818 -0.1461
16687TIP3   OH271475   2.296   5.004   3.310 -0.4558 -0.1985  0.0417
16687TIP3    H171476   2.247   5.040   3.237  0.7320 -0.2650 -0.8228
16687TIP3    H271477   2.230   4.985   3.377 -1.4276  0.9548 -0.5477
16688TIP3   OH271478   0.879   2.337   3.310  0.1378 -0.3292  0.0284
16688TIP3    H171479   0.965   2.377   3.298  0.0993 -0.6276 -1.3932
16688TIP3    H271480   0.816   2.408   3.294  0.0894 -0.6999 -1.6180
16689TIP3   OH271481   6.554   1.680  13.832  0.2146  0.5483 -0.2677
16689TIP3    H171482   6.526   1.638  13.913 -0.3075  1.0307 -0.1925
16689TIP3    H271483   6.527   1.771  13.842 -0.0311  0.5722 -1.0606
16690TIP3   OH271484   2.021   6.522   5.722  0.0988  0.0447 -0.1662
16690TIP3    H171485   2.019   6.447   5.663 -1.6380 -0.2997  0.2703
16690TIP3    H271486   2.114   6.535   5.741  0.7493  0.3393 -3.1263
16691TIP3   OH271487   1.706   2.891  11.732 -0.1859  0.7586  0.0117
16691TIP3    H171488   1.797   2.890  11.703  0.8914  3.1147  2.7553
16691TIP3    H271489   1.702   2.826  11.802 -1.2691 -0.9084 -1.5255
16692TIP3   OH271490   6.295   4.890  12.418 -0.3450 -0.3155 -0.3816
16692TIP3    H171491   6.365   4.868  12.357  0.2379 -0.1969  0.2310
16692TIP3    H271492   6.214   4.865  12.373  0.1812 -1.9187 -0.4723
16693TIP3   OH271493   4.619   5.049  15.190 -0.0413  0.7031 -0.2449
16693TIP3    H171494   4.626   4.956  15.166  0.3004  0.3555  1.0910
16693TIP3    H271495   4.527   5.071  15.176 -0.3797 -0.1688  0.5060
16694TIP3   OH271496   0.507   4.265   2.716  0.1940 -0.2202 -0.1417
16694TIP3    H171497   0.465   4.337   2.669  0.6436 -1.0303 -1.8858
16694TIP3    H271498   0.574   4.233   2.655  0.8828 -1.2754  1.1166
16695TIP3   OH271499   3.092   3.702  15.520 -0.0603  0.2175  0.7891
16695TIP3    H171500   3.047   3.650  15.454 -0.6960 -0.8365  2.0146
16695TIP3    H271501   3.179   3.664  15.525 -0.8457 -1.4975  2.4298
16696TIP3   OH271502   6.326   5.324  15.671 -0.2501  0.1036 -0.5892
16696TIP3    H171503   6.305   5.414  15.696 -0.1849 -0.1623  0.4708
16696TIP3    H271504   6.404   5.332  15.615  1.2088  0.5547  1.4057
16697TIP3   OH271505   6.527   0.523   2.442 -0.3925  0.2943  0.7175
16697TIP3    H171506   6.431   0.514   2.440 -0.2290 -1.6607 -0.8544
16697TIP3    H271507   6.548   0.570   2.362  0.0460 -0.5432  0.3288
16698TIP3   OH271508   2.179   3.147  11.233  0.7252 -0.1845 -0.4216
16698TIP3    H171509   2.236   3.117  11.163 -0.7049  1.3006 -2.3066
16698TIP3    H271510   2.229   3.215  11.278  0.7843  0.4988 -1.5027
16699TIP3   OH271511   5.531   0.740   4.070  0.0755 -0.3716 -0.1482
16699TIP3    H171512   5.507   0.702   3.986 -2.8750 -0.6427  0.6974
16699TIP3    H271513   5.449   0.742   4.120  1.6516 -0.0416  2.6634
16700TIP3   OH271514   1.424   2.253  15.666  0.1957  0.1178  0.1297
16700TIP3    H171515   1.335   2.286  15.682  0.5413  0.3841  1.6438
16700TIP3    H271516   1.417   2.158  15.681  0.0644  0.0630 -0.2639
16701TIP3   OH271517   3.763   1.335  13.326  0.1231 -0.2059 -0.1522
16701TIP3    H171518   3.698   1.397  13.294 -1.7265 -1.5149  0.8872
16701TIP3    H271519   3.740   1.321  13.417 -0.0610 -3.0214 -0.5461
16702TIP3   OH271520   6.347   5.953   6.092  0.8051 -0.6110  0.0205
16702TIP3    H171521   6.438   5.962   6.120  1.2056 -2.1459 -0.7009
16702TIP3    H271522   6.349   5.968   5.998 -0.0752  1.5432  0.2744
16703TIP3   OH271523   3.613   3.681  15.207  0.2824  1.2293  0.4734
16703TIP3    H171524   3.533   3.643  15.242  0.4631 -0.2040 -0.5654
16703TIP3    H271525   3.586   3.726  15.127  0.3706  1.5847  0.6416
16704TIP3   OH271526   5.305   1.773  11.399 -0.2312 -0.4634 -0.2831
16704TIP3    H171527   5.249   1.759  11.323 -0.3214  1.0060 -0.5143
16704TIP3    H271528   5.337   1.862  11.389  1.0340 -0.7988  0.5854
16705TIP3   OH271529   5.183   4.913  13.771 -0.1242  0.1025  0.2972
16705TIP3    H171530   5.226   4.895  13.855 -0.4756 -0.6528  0.3278
16705TIP3    H271531   5.128   4.990  13.787 -0.8963 -0.5774  1.0246
16706TIP3   OH271532   3.804   2.012  11.424  0.8637  0.0870 -0.0884
16706TIP3    H171533   3.717   2.040  11.395  1.1636 -0.3531 -1.5096
16706TIP3    H271534   3.805   2.029  11.518 -0.6810  0.3012 -0.0879
16707TIP3   OH271535   4.538   6.578   3.823  0.2849 -0.4422  0.3200
16707TIP3    H171536   4.607   6.519   3.792 -0.2901 -0.9026 -0.0924
16707TIP3    H271537   4.525   6.639   3.750  0.6282 -0.0206  0.6071
16708TIP3   OH271538   0.779   5.823   2.503  0.2226 -0.3629 -0.2870
16708TIP3    H171539   0.846   5.799   2.439 -0.7341 -0.5490 -1.2408
16708TIP3    H271540   0.809   5.783   2.585  0.3826 -1.9803 -1.0939
16709TIP3   OH271541   2.768   4.803   3.292  0.5710 -0.2827  0.2079
16709TIP3    H171542   2.839   4.830   3.350  0.1247  0.2507  0.5151
16709TIP3    H271543   2.751   4.880   3.237 -0.7292  0.1150  1.1085
16710TIP3   OH271544   0.792   4.417  16.568 -0.9742 -0.7291 -0.0786
16710TIP3    H171545   0.755   4.467  16.641 -0.0258  0.1668 -0.1853
16710TIP3    H271546   0.839   4.482  16.516  1.7011 -1.9134  0.6669
16711TIP3   OH271547   6.771   3.994  14.960  0.3504 -0.1985  0.3995
16711TIP3    H171548   6.845   3.965  14.908  0.8740  0.8760  0.5147
16711TIP3    H271549   6.724   4.055  14.904 -0.2610 -0.6059  0.4537
16712TIP3   OH271550   2.163   4.432   6.719  0.2642 -0.0642  0.6456
16712TIP3    H171551   2.174   4.357   6.777 -0.6227  1.1121  2.4447
16712TIP3    H271552   2.160   4.508   6.778  2.0288  1.5210 -1.1379
16713TIP3   OH271553   1.244   5.866  12.250  0.2831 -0.6668  0.2898
16713TIP3    H171554   1.295   5.823  12.182  0.2756  0.2383 -0.3064
16713TIP3    H271555   1.306   5.925  12.293 -0.4483  1.2641 -1.1613
16714TIP3   OH271556   3.447   2.990  12.925 -0.0347 -0.1501 -0.8122
16714TIP3    H171557   3.474   3.082  12.918 -0.2389 -0.1652 -1.8889
16714TIP3    H271558   3.519   2.948  12.971 -0.3588  0.7235  0.5666
16715TIP3   OH271559   1.971   5.840  14.085 -0.2677  0.2599 -0.3640
16715TIP3    H171560   1.918   5.760  14.088  0.2388 -0.0478  0.5317
16715TIP3    H271561   1.953   5.877  13.998 -2.6704  0.6506  0.2166
16716TIP3   OH271562   1.287   6.576  11.492 -0.2873 -0.1061 -0.3888
16716TIP3    H171563   1.251   6.646  11.548 -0.9538 -0.6873 -0.0829
16716TIP3    H271564   1.275   6.609  11.403 -0.3932  0.2708 -0.2411
16717TIP3   OH271565   6.007   3.662  13.214 -0.0421 -0.0558  0.2287
16717TIP3    H171566   6.071   3.611  13.263 -0.3663  0.5267  1.2809
16717TIP3    H271567   5.936   3.600  13.197  0.0666 -0.2611  0.5126
16718TIP3   OH271568   0.968   6.703   3.185 -0.0801  0.2867  0.3907
16718TIP3    H171569   0.933   6.725   3.099 -1.9563 -0.9783  0.7716
16718TIP3    H271570   0.902   6.736   3.247  0.3383 -0.4529  1.2498
16719TIP3   OH271571   3.997   4.187  13.054  0.5672  0.2269 -0.1407
16719TIP3    H171572   3.986   4.273  13.094  1.0049 -0.1263  0.7878
16719TIP3    H271573   4.083   4.158  13.084  0.9102 -0.0774 -1.3403
16720TIP3   OH271574   0.244   3.692  11.332 -0.1366  0.3731  0.4356
16720TIP3    H171575   0.266   3.605  11.299 -0.4023  0.3908  0.2100
16720TIP3    H271576   0.271   3.752  11.262 -2.5974  0.2818 -0.7198
16721TIP3   OH271577   2.622   1.748  14.060  0.4369  0.1072 -0.5985
16721TIP3    H171578   2.579   1.738  13.975 -1.8592  0.6802  0.4256
16721TIP3    H271579   2.585   1.827  14.097 -0.0499 -1.1054  1.7240
16722TIP3   OH271580   3.572   5.007   0.068 -0.7792  0.3699 -0.5451
16722TIP3    H171581   3.507   5.074   0.048 -1.1869  0.4111  0.7861
16722TIP3    H271582   3.567   4.945  -0.004 -3.3230 -0.3903  0.1893
16723TIP3   OH271583   1.979   4.212  15.618  0.0199  0.4667 -0.2473
16723TIP3    H171584   1.904   4.241  15.567 -0.3033 -0.1666 -0.1327
16723TIP3    H271585   1.964   4.120  15.635  0.1332  0.6473  0.9668
16724TIP3   OH271586   4.779   4.757  11.768 -0.1458 -0.0041 -0.0300
16724TIP3    H171587   4.748   4.767  11.677  0.4533  0.1620 -0.2217
16724TIP3    H271588   4.699   4.761  11.821 -0.3381  2.4163 -0.3502
16725TIP3   OH271589   0.507   0.711  15.807 -0.2433 -0.3460  0.2117
16725TIP3    H171590   0.457   0.773  15.755  0.7241  0.4045  0.1500
16725TIP3    H271591   0.494   0.740  15.898  0.7376  0.3701  0.1388
16726TIP3   OH271592   6.230   4.853   0.268  0.0845  0.7034 -0.3496
16726TIP3    H171593   6.275   4.880   0.189  0.7424 -0.2353 -0.3085
16726TIP3    H271594   6.201   4.935   0.309  0.1705  1.2122 -1.2942
16727TIP3   OH271595   1.060   0.965  15.130 -0.1674  0.3000  0.3097
16727TIP3    H171596   0.993   0.987  15.195  0.8518  1.2846  1.0625
16727TIP3    H271597   1.123   0.912  15.178  0.5259  0.9201  0.1091
16728TIP3   OH271598   4.041   5.471  12.868  0.2995 -0.4889 -0.3930
16728TIP3    H171599   4.130   5.486  12.835  0.6362 -1.6542 -0.0528
16728TIP3    H271600   4.009   5.396  12.818  0.2341 -1.2871  0.8029
16729TIP3   OH271601   4.318   0.275  12.512 -0.2549 -0.0613  0.0714
16729TIP3    H171602   4.306   0.224  12.432 -1.5010  0.1543  0.0958
16729TIP3    H271603   4.330   0.365  12.481 -2.4408  0.2999  0.1425
16730TIP3   OH271604   6.023   3.386   3.082 -0.0951 -0.2421  0.5045
16730TIP3    H171605   5.939   3.420   3.048  0.4623  0.0170 -0.6679
16730TIP3    H271606   6.014   3.291   3.075  0.3462 -0.1796 -1.2852
16731TIP3   OH271607   2.723   3.936   5.954  0.0164 -1.0022 -0.4041
16731TIP3    H171608   2.734   3.905   6.044  0.3918  0.0332 -0.0779
16731TIP3    H271609   2.798   3.994   5.939 -0.5956 -0.3571 -1.0359
16732TIP3   OH271610   0.691   3.425   0.646  0.2745 -0.2537  0.3050
16732TIP3    H171611   0.642   3.359   0.695  1.9430 -0.8662  1.2451
16732TIP3    H271612   0.675   3.506   0.694 -1.3835 -0.0178 -0.5668
16733TIP3   OH271613   5.804   4.189  13.461 -0.1602  0.8442  0.2065
16733TIP3    H171614   5.796   4.105  13.416  0.3794  1.2965 -0.7617
16733TIP3    H271615   5.792   4.254  13.392  0.2176  1.5540  0.8018
16734TIP3   OH271616   5.507   1.581   1.872 -0.2390  0.1690 -0.0750
16734TIP3    H171617   5.511   1.502   1.925 -1.2945  1.0412  1.3664
16734TIP3    H271618   5.546   1.649   1.927 -1.0703  1.0350 -0.5220
16735TIP3   OH271619   0.474   6.265   1.325  1.0777  0.0163  0.2200
16735TIP3    H171620   0.499   6.352   1.356 -2.7171  0.7463  1.8144
16735TIP3    H271621   0.442   6.279   1.236 -2.1656  1.0430  1.3696
16736TIP3   OH271622   6.005   3.267  11.430  0.5871  0.8511  0.8297
16736TIP3    H171623   6.036   3.262  11.520  1.7691 -1.2070  0.3737
16736TIP3    H271624   6.085   3.258  11.377 -0.2820  0.0965 -0.4129
16737TIP3   OH271625   4.705   1.639  13.968  0.0640  0.1911  0.6311
16737TIP3    H171626   4.635   1.610  14.026 -0.4094  0.4214  0.1856
16737TIP3    H271627   4.699   1.735  13.970 -0.2054  0.1974 -0.0815
16738TIP3   OH271628   0.056   2.682   5.005 -0.2670 -0.7269  1.0620
16738TIP3    H171629   0.097   2.633   5.076 -0.8478 -0.0903  1.8607
16738TIP3    H271630  -0.009   2.738   5.049 -0.6109 -0.2930  0.0346
16739TIP3   OH271631   2.610   4.427   1.915 -0.2628  0.1356  0.1471
16739TIP3    H171632   2.614   4.520   1.892  2.5592  0.7740  2.5912
16739TIP3    H271633   2.662   4.383   1.847  1.7638  0.9758  1.0624
16740TIP3   OH271634   3.559   6.484  11.598 -0.2616 -0.4511 -0.3266
16740TIP3    H171635   3.569   6.540  11.675  0.0354 -4.3594  2.8018
16740TIP3    H271636   3.464   6.473  11.589 -0.3280  0.6328 -1.0667
16741TIP3   OH271637   4.931   4.638  16.386  1.2425 -0.5098 -0.1351
16741TIP3    H171638   4.968   4.567  16.334  1.2462 -0.5103 -0.1315
16741TIP3    H271639   4.901   4.596  16.467  0.1758 -0.7056 -0.6153
16742TIP3   OH271640   0.281   0.513   3.596  0.2474  0.2738  0.1554
16742TIP3    H171641   0.262   0.602   3.567  0.9166  0.2045 -0.4985
16742TIP3    H271642   0.363   0.520   3.644 -0.2776  0.1932  1.1058
16743TIP3   OH271643   4.600   0.804   0.383 -0.4009  0.2066  0.2430
16743TIP3    H171644   4.515   0.775   0.350 -0.4314  0.7892 -0.2242
16743TIP3    H271645   4.628   0.735   0.443 -0.9176 -0.2897 -0.0735
16744TIP3   OH271646   5.884   2.132   4.084 -0.0988  0.2873 -0.2618
16744TIP3    H171647   5.901   2.224   4.067 -0.3209  0.2596 -0.6694
16744TIP3    H271648   5.949   2.106   4.149 -1.3117  1.2336  1.3833
16745TIP3   OH271649   2.345   2.821  13.274  0.1266  0.1065  0.1561
16745TIP3    H171650   2.436   2.842  13.294  0.8094 -1.2639 -1.2145
16745TIP3    H271651   2.330   2.736  13.316 -0.2736 -0.0122 -0.2106
16746TIP3   OH271652   4.139   5.434   5.719 -0.2380 -0.4273 -0.0241
16746TIP3    H171653   4.219   5.485   5.733 -0.0867 -0.1754 -1.6732
16746TIP3    H271654   4.169   5.347   5.693 -0.4069  0.3512 -3.1436
16747TIP3   OH271655   4.571   4.319  12.429  0.2883  0.5432 -0.6697
16747TIP3    H171656   4.596   4.256  12.497 -2.2063  0.3132  0.1464
16747TIP3    H271657   4.514   4.270  12.370 -0.7644  1.6861 -0.6714
16748TIP3   OH271658   6.309   0.667  16.394 -0.2753 -0.2723  0.0477
16748TIP3    H171659   6.364   0.603  16.439 -0.7721 -0.4195  0.4634
16748TIP3    H271660   6.369   0.715  16.337 -0.2845 -3.1444 -2.6984
16749TIP3   OH271661   4.177   3.899  12.405  0.0798 -0.1368  0.1307
16749TIP3    H171662   4.203   3.811  12.431 -1.2836  0.0088  2.1897
16749TIP3    H271663   4.245   3.956  12.441  0.4154 -0.2405 -0.3200
16750TIP3   OH271664   1.234   5.514  12.366  0.2933 -0.1005  0.4399
16750TIP3    H171665   1.294   5.559  12.425 -0.6527 -1.6816  2.7940
16750TIP3    H271666   1.147   5.546  12.391 -0.1638 -1.1558  0.2854
16751TIP3   OH271667   2.314   3.295   5.613 -0.1365  0.0725 -0.5813
16751TIP3    H171668   2.301   3.389   5.620 -0.3813  0.0590 -0.8416
16751TIP3    H271669   2.340   3.267   5.701  0.1354  0.4118 -0.5535
16752TIP3   OH271670   1.714   5.102   4.575  0.3110  0.4202 -0.3753
16752TIP3    H171671   1.723   5.109   4.670 -1.8558 -1.8916  0.1139
16752TIP3    H271672   1.771   5.171   4.540  1.4926  1.0801  2.5527
16753TIP3   OH271673   2.706   2.764  10.930  0.4184  0.5377  0.1608
16753TIP3    H171674   2.637   2.830  10.939  0.7203  1.0984 -1.3032
16753TIP3    H271675   2.658   2.681  10.928  0.0967  0.5954  2.8578
16754TIP3   OH271676   5.701   0.775  12.437 -0.5171  0.1527  0.3804
16754TIP3    H171677   5.668   0.688  12.412 -2.2960  1.2670 -1.4555
16754TIP3    H271678   5.623   0.826  12.456  0.5239  1.2581  2.0130
16755TIP3   OH271679   0.841   3.005   4.311 -0.0995  0.3723  0.2051
16755TIP3    H171680   0.782   2.987   4.237  0.9768  0.4817 -0.7077
16755TIP3    H271681   0.792   3.066   4.366 -2.3164 -2.2557  1.4172
16756TIP3   OH271682   1.444   5.675   3.506  0.5474  0.7303  0.3553
16756TIP3    H171683   1.435   5.618   3.430 -0.8929 -0.2569  1.2254
16756TIP3    H271684   1.369   5.654   3.561 -0.9067  4.3921  0.1325
16757TIP3   OH271685   6.601   6.038   6.152 -0.4611 -0.5837  0.1800
16757TIP3    H171686   6.613   6.123   6.109 -1.1635 -0.4669  0.1973
16757TIP3    H271687   6.592   6.060   6.245  1.4966 -0.8725  0.4660
16758TIP3   OH271688   1.922   0.457  11.363  0.9603  0.0856  0.0618
16758TIP3    H171689   1.842   0.447  11.311 -0.0118  1.1207  1.2747
16758TIP3    H271690   1.990   0.412  11.313 -0.4685 -1.1782 -0.8050
16759TIP3   OH271691   5.287   3.478   2.277  0.5539 -0.4875 -0.0063
16759TIP3    H171692   5.210   3.531   2.299  0.3081 -1.0930  0.6421
16759TIP3    H271693   5.251   3.404   2.229  0.4474 -1.7826  1.9397
16760TIP3   OH271694   3.809   2.453  10.963  0.2605  0.4331  0.3480
16760TIP3    H171695   3.841   2.531  10.918 -0.4583  0.5581  0.0426
16760TIP3    H271696   3.777   2.396  10.893  1.9523 -0.7078  0.4489
16761TIP3   OH271697   0.999   2.067  12.019 -0.2503  0.0600  0.6479
16761TIP3    H171698   1.053   2.033  12.090 -0.0572  1.4948  1.2199
16761TIP3    H271699   1.061   2.092  11.951 -0.2464  0.9045  0.9540
16762TIP3   OH271700   0.625   4.001  11.623  0.0992  0.7380 -0.0396
16762TIP3    H171701   0.674   3.947  11.685 -1.7892  0.0592  0.9238
16762TIP3    H271702   0.690   4.061  11.587  1.7632 -0.5689  0.6686
16763TIP3   OH271703   1.165   5.116   1.136  0.6913 -0.8119  0.4020
16763TIP3    H171704   1.181   5.069   1.054 -0.7982  0.4293 -0.6442
16763TIP3    H271705   1.212   5.199   1.125 -0.8100  0.0237  0.1121
16764TIP3   OH271706   3.159   5.183  14.869  0.3139 -0.0501  0.5072
16764TIP3    H171707   3.173   5.182  14.775 -0.9254 -0.1200  0.3100
16764TIP3    H271708   3.216   5.254  14.901 -1.2928  1.8747 -0.6573
16765TIP3   OH271709   2.871   0.204   1.642  1.0283  0.0104 -0.4113
16765TIP3    H171710   2.776   0.213   1.631  1.2439  1.3314 -1.4000
16765TIP3    H271711   2.889   0.112   1.623 -0.3904 -1.0616  2.6526
16766TIP3   OH271712   6.596   0.832   5.516 -0.2657  0.6947 -0.0453
16766TIP3    H171713   6.687   0.861   5.513 -0.3525  0.9454 -0.4457
16766TIP3    H271714   6.601   0.740   5.540  0.0754  0.7795  0.2233
16767TIP3   OH271715   2.035   2.275  16.906 -0.2367 -0.4350 -0.3540
16767TIP3    H171716   1.942   2.275  16.929  0.2177  0.5857  1.7831
16767TIP3    H271717   2.039   2.233  16.820 -2.6088 -0.8846 -0.3103
16768TIP3   OH271718   1.225   4.970   6.118 -0.3629 -0.6154 -0.6249
16768TIP3    H171719   1.317   4.963   6.143 -0.9038 -1.6361  1.2862
16768TIP3    H271720   1.188   4.885   6.139 -2.7256  1.1090  3.1793
16769TIP3   OH271721   1.327   2.521  11.594 -0.2825 -0.2069  0.5587
16769TIP3    H171722   1.354   2.501  11.504  0.4384  1.7746  0.2827
16769TIP3    H271723   1.232   2.532  11.588 -0.7083 -3.0605  0.6977
16770TIP3   OH271724   1.130   4.315   4.162 -0.4942  0.9470 -0.2837
16770TIP3    H171725   1.078   4.253   4.213  1.5732 -1.4487 -0.8925
16770TIP3    H271726   1.164   4.376   4.228  0.2990 -0.7486  0.9706
16771TIP3   OH271727   3.366   2.122   3.374 -0.4007 -0.0968 -0.0318
16771TIP3    H171728   3.327   2.209   3.373  0.1276  0.1445 -1.0786
16771TIP3    H271729   3.458   2.135   3.353 -0.6860 -1.0290 -2.1904
16772TIP3   OH271730   1.673   6.676  14.944 -0.3151 -0.0612  0.0244
16772TIP3    H171731   1.705   6.650  14.858 -1.2352 -3.1467  0.5131
16772TIP3    H271732   1.583   6.706  14.928 -0.3453 -0.2409 -0.1411
16773TIP3   OH271733   5.554   1.943   1.557 -0.1401  0.3586  0.1767
16773TIP3    H171734   5.514   1.941   1.644 -1.2943  0.9732 -0.3157
16773TIP3    H271735   5.530   1.859   1.517  2.3363 -0.9710  1.2266
16774TIP3   OH271736   3.192   0.689   4.913  0.1473 -0.0769 -0.2163
16774TIP3    H171737   3.109   0.736   4.903  0.1105  0.2142  1.2165
16774TIP3    H271738   3.229   0.685   4.825 -1.7450 -0.8965 -1.0153
16775TIP3   OH271739   0.578   4.580  11.667 -0.4864  0.2364  0.6802
16775TIP3    H171740   0.666   4.546  11.680 -0.4990  0.1837  0.6286
16775TIP3    H271741   0.521   4.504  11.682 -0.4810  0.0652 -0.1079
16776TIP3   OH271742   2.393   5.653  16.431  0.3007 -0.9012 -0.1459
16776TIP3    H171743   2.467   5.608  16.391 -1.1943 -3.3608 -0.3028
16776TIP3    H271744   2.347   5.585  16.481 -0.8530  0.9375  1.4579
16777TIP3   OH271745   1.898   5.651   2.478  0.1889  0.5434  0.1717
16777TIP3    H171746   1.928   5.742   2.470 -0.7854  0.8881  0.1833
16777TIP3    H271747   1.841   5.652   2.555 -0.3919  0.0957 -0.2377
16778TIP3   OH271748   0.220   0.212   5.269  0.0224 -0.5914  0.4862
16778TIP3    H171749   0.215   0.267   5.191 -0.0409 -0.2374  0.7384
16778TIP3    H271750   0.197   0.124   5.238  1.5830 -0.7808 -0.2210
16779TIP3   OH271751   2.035   4.833   3.776 -0.2884  0.4234 -0.1312
16779TIP3    H171752   2.117   4.784   3.767  0.4359  1.6601 -0.6387
16779TIP3    H271753   2.064   4.923   3.793 -1.4825  1.3797 -2.7233
16780TIP3   OH271754   2.382   0.311  11.383 -0.2060 -0.1411  0.7794
16780TIP3    H171755   2.417   0.378  11.443 -0.5537 -0.3187  1.1883
16780TIP3    H271756   2.323   0.259  11.438 -0.1247 -0.6338  0.4051
16781TIP3   OH271757   3.632   4.587   0.114 -0.5724 -0.1400 -0.5386
16781TIP3    H171758   3.576   4.510   0.102 -0.6971 -0.4859  1.8124
16781TIP3    H271759   3.721   4.553   0.107 -0.4920  0.4227 -4.3607
16782TIP3   OH271760   4.524   0.572  13.387  0.1050  0.2971 -0.1465
16782TIP3    H171761   4.437   0.537  13.409  0.1056  0.6017  0.3680
16782TIP3    H271762   4.575   0.495  13.361 -0.9716  0.3748 -2.7167
16783TIP3   OH271763   2.256   1.870  14.495 -0.0110 -0.2772 -0.1279
16783TIP3    H171764   2.275   1.848  14.586  0.6567 -1.2714 -0.4859
16783TIP3    H271765   2.220   1.789  14.458  1.2363 -0.4035 -1.1459
16784TIP3   OH271766   1.059   6.579   0.662 -0.4557 -0.6330  0.2117
16784TIP3    H171767   1.060   6.495   0.707 -0.6491 -1.0205 -0.4911
16784TIP3    H271768   1.106   6.639   0.720  1.3718 -1.6731 -0.1333
16785TIP3   OH271769   2.941   5.801  12.679  0.0387 -0.1770  0.0793
16785TIP3    H171770   2.943   5.808  12.583  0.3820  1.3431  0.1718
16785TIP3    H271771   2.882   5.728  12.696  1.6635 -1.9493 -1.3275
16786TIP3   OH271772   4.371   4.628   2.567 -0.1456  0.1909 -0.2406
16786TIP3    H171773   4.341   4.649   2.478 -2.6260  2.5109  0.9990
16786TIP3    H271774   4.307   4.565   2.600  0.6266 -0.4778  0.0194
16787TIP3   OH271775   6.745   1.392   3.009 -0.3438 -0.3528 -0.4131
16787TIP3    H171776   6.811   1.323   3.000  0.4919  0.4745 -0.7042
16787TIP3    H271777   6.666   1.355   2.967  0.0827 -1.1354 -0.5444
16788TIP3   OH271778   0.370   0.411   5.898  0.5120 -0.2396 -0.1672
16788TIP3    H171779   0.447   0.387   5.949  0.2582  1.7965  1.2888
16788TIP3    H271780   0.296   0.370   5.944  0.5789 -1.2673 -0.9311
16789TIP3   OH271781   4.523   6.557  15.070 -0.0279 -0.0220  0.1786
16789TIP3    H171782   4.539   6.576  15.162 -1.0598 -0.2304  0.4118
16789TIP3    H271783   4.444   6.504  15.070  1.8298 -3.0174 -0.5758
16790TIP3   OH271784   1.446   3.349   1.425  0.7430 -0.5509 -0.4173
16790TIP3    H171785   1.493   3.426   1.459  0.1442 -0.8431  1.1651
16790TIP3    H271786   1.461   3.281   1.491 -2.0457 -0.5781  0.3006
16791TIP3   OH271787   3.125   0.622   0.074 -0.8256  0.9036 -0.0726
16791TIP3    H171788   3.192   0.669   0.124  0.8579 -1.2256 -0.1887
16791TIP3    H271789   3.086   0.562   0.138  0.0191 -0.4962 -0.8377
16792TIP3   OH271790   0.641   3.474   6.186 -0.1488  0.6091  0.2853
16792TIP3    H171791   0.557   3.451   6.226 -0.3497  1.9017  0.6526
16792TIP3    H271792   0.653   3.409   6.116 -1.4600  0.4200  0.2151
16793TIP3   OH271793   4.039   4.041  16.822 -0.1218 -0.5921 -0.0571
16793TIP3    H171794   3.991   4.123  16.835 -0.6240 -0.9864  0.6359
16793TIP3    H271795   4.128   4.069  16.799 -0.5301  0.1445 -0.7976
16794TIP3   OH271796   4.031   3.791  17.258  0.0564  0.0209  0.3336
16794TIP3    H171797   3.996   3.781  17.170  0.2647 -0.8734  0.3490
16794TIP3    H271798   3.961   3.761  17.316  0.9825 -2.2731  0.3443
16795TIP3   OH271799   4.806   2.065  14.718 -0.5783  0.3695  0.4888
16795TIP3    H171800   4.804   2.158  14.739  0.7154  0.2263  1.3483
16795TIP3    H271801   4.872   2.028  14.776 -2.2640 -1.4152  1.4052
16796TIP3   OH271802   1.662   5.525  17.123  0.1439  0.1346  0.2398
16796TIP3    H171803   1.597   5.565  17.182  0.3078  0.3804  0.2563
16796TIP3    H271804   1.623   5.532  17.036  0.6853  1.4101  0.0845
16797TIP3   OH271805   3.493   1.849  11.598 -0.1067  0.1956 -0.4849
16797TIP3    H171806   3.461   1.934  11.626  0.1472  0.3348 -0.6111
16797TIP3    H271807   3.510   1.801  11.679 -2.7880 -0.7308 -0.3626
16798TIP3   OH271808   6.067   5.455  14.591 -0.6918 -0.0132 -0.1874
16798TIP3    H171809   6.047   5.361  14.590  1.0260 -0.4026 -0.3520
16798TIP3    H271810   5.986   5.497  14.561 -1.1572 -1.5061 -1.1270
16799TIP3   OH271811   4.845   5.407  16.911  0.1465  0.7903 -0.3958
16799TIP3    H171812   4.750   5.417  16.904  0.2685  1.6221 -0.9262
16799TIP3    H271813   4.875   5.399  16.820  0.4372 -1.0903 -0.1869
16800TIP3   OH271814   4.805   3.530  11.342  0.0866  0.3325 -0.0023
16800TIP3    H171815   4.867   3.468  11.302 -0.7804 -0.1499 -0.6407
16800TIP3    H271816   4.730   3.529  11.283 -1.0059  0.0312  1.3476
16801TIP3   OH271817   2.788   0.390  12.037  0.4773 -0.0420  0.4519
16801TIP3    H171818   2.802   0.309  11.989  0.3135 -0.1104  0.5197
16801TIP3    H271819   2.856   0.449  12.005 -0.6283  0.4583 -1.1209
16802TIP3   OH271820   4.107   4.541   6.062  0.1242  0.2447  0.1302
16802TIP3    H171821   4.156   4.468   6.099 -0.1840  0.2304  0.5203
16802TIP3    H271822   4.151   4.560   5.979  0.3007 -0.2789  0.1009
16803TIP3   OH271823   3.017   2.701  14.812 -0.4838  0.6631  0.2976
16803TIP3    H171824   3.026   2.777  14.754  2.2488  1.0379  1.0625
16803TIP3    H271825   3.089   2.643  14.786  0.4139  0.5361  2.8162
16804TIP3   OH271826   6.673   3.684  14.882  0.2656 -0.6041 -0.2456
16804TIP3    H171827   6.603   3.746  14.899 -0.6469 -2.0953  1.8319
16804TIP3    H271828   6.754   3.732  14.900 -0.3524  0.3663 -0.0177
16805TIP3   OH271829   1.728   5.246  14.419  0.5890  0.1457  0.0098
16805TIP3    H171830   1.642   5.276  14.446  0.1935 -1.0573  0.1289
16805TIP3    H271831   1.713   5.159  14.382  1.5087  0.5849 -1.5171
16806TIP3   OH271832   2.423   4.742  12.108 -0.2445 -0.2610 -0.8170
16806TIP3    H171833   2.357   4.780  12.165 -0.7675 -1.4246 -0.6040
16806TIP3    H271834   2.450   4.661  12.153  1.9956  0.6126 -0.4444
16807TIP3   OH271835   2.996   1.026   4.577 -0.4879 -0.0557 -0.4301
16807TIP3    H171836   2.987   1.017   4.672 -0.2170 -0.6223 -0.4578
16807TIP3    H271837   2.972   1.118   4.560 -1.3526 -0.1713  0.0813
16808TIP3   OH271838   0.763   0.306  13.484 -0.1402 -0.0125  0.3437
16808TIP3    H171839   0.781   0.330  13.393  0.5879 -3.9018 -0.7279
16808TIP3    H271840   0.706   0.376  13.516 -0.3996  1.5641 -3.0655
16809TIP3   OH271841   5.696   5.117  14.186  0.1217  0.2137 -0.6496
16809TIP3    H171842   5.788   5.141  14.199  0.7113 -1.4247 -1.5065
16809TIP3    H271843   5.675   5.061  14.261 -0.2049  0.6374 -0.4217
16810TIP3   OH271844   5.101   2.467  17.117  0.7710  0.3117 -0.3173
16810TIP3    H171845   5.114   2.445  17.025  0.0852  0.0287 -0.3509
16810TIP3    H271846   5.101   2.383  17.162 -2.1297  0.1262 -0.4785
16811TIP3   OH271847   4.321   6.708   6.638  0.6084 -0.0653  0.6299
16811TIP3    H171848   4.416   6.698   6.649  0.8160 -1.2870 -1.7267
16811TIP3    H271849   4.287   6.619   6.645 -0.2137  0.2145  0.2338
16812TIP3   OH271850   0.905   2.772  12.057  0.2411 -0.4031 -0.2950
16812TIP3    H171851   0.900   2.783  11.962 -0.6353  1.5129 -0.0620
16812TIP3    H271852   0.933   2.857  12.090 -2.0554 -0.2075  1.3549
16813TIP3   OH271853   0.121   0.746  13.049  0.5165  0.1323 -0.2287
16813TIP3    H171854   0.100   0.727  13.141  0.5066 -0.9240 -0.4373
16813TIP3    H271855   0.131   0.841  13.046  2.0116  0.0706  1.2014
16814TIP3   OH271856   2.547   1.109  16.927 -0.2841 -0.5390  0.0590
16814TIP3    H171857   2.524   1.191  16.971 -2.4010 -1.2352  0.3417
16814TIP3    H271858   2.626   1.079  16.972  0.4195  1.2017  0.0890
16815TIP3   OH271859   0.746   2.152  14.202  0.4902  0.2568 -0.1894
16815TIP3    H171860   0.707   2.172  14.287 -0.2613 -0.1039 -0.4422
16815TIP3    H271861   0.840   2.166  14.215  0.7836 -2.4380  1.4911
16816TIP3   OH271862   3.935   2.195   6.102  0.1369 -0.2554  0.2817
16816TIP3    H171863   3.918   2.243   6.183  0.7622  1.4400 -0.5298
16816TIP3    H271864   4.008   2.137   6.123 -0.2413 -0.4259  1.1443
16817TIP3   OH271865   2.309   5.473  14.662 -0.1522 -0.5610  0.4886
16817TIP3    H171866   2.271   5.560  14.677  0.5459 -0.4572  1.8197
16817TIP3    H271867   2.403   5.490  14.653 -0.1143 -1.0909 -0.1641
16818TIP3   OH271868   3.056   5.436  14.555 -0.0921 -0.7646  0.2869
16818TIP3    H171869   3.012   5.521  14.550  0.2217 -0.6589 -0.9524
16818TIP3    H271870   2.998   5.376  14.509  0.0525 -1.0551  0.4873
16819TIP3   OH271871   4.575   4.234   5.771 -0.0903 -0.2301 -0.5044
16819TIP3    H171872   4.482   4.251   5.785 -0.8042 -2.5170 -2.0124
16819TIP3    H271873   4.600   4.297   5.703 -1.0756 -0.9270 -1.5517
16820TIP3   OH271874   2.618   2.804  11.692  0.0790  0.0841 -0.0102
16820TIP3    H171875   2.655   2.868  11.631  2.3394 -0.6277  0.5059
16820TIP3    H271876   2.622   2.847  11.778  0.1505 -0.1729  0.1156
16821TIP3   OH271877   4.891   1.420  16.236 -0.3056  0.0841 -0.2327
16821TIP3    H171878   4.957   1.482  16.204  1.0365 -1.3729 -0.4167
16821TIP3    H271879   4.894   1.429  16.331  1.2771 -0.9849 -0.1338
16822TIP3   OH271880   1.180   3.402   1.788  0.2791  0.1932 -0.0898
16822TIP3    H171881   1.246   3.392   1.857  0.1027  0.6307  0.1504
16822TIP3    H271882   1.216   3.468   1.729  0.1195  0.3358 -0.0303
16823TIP3   OH271883   2.418   0.415  10.788  0.4125  0.1556  0.5513
16823TIP3    H171884   2.343   0.389  10.842  0.4135  0.4213  0.6799
16823TIP3    H271885   2.398   0.505  10.761  0.4524  0.0553  0.1815
16824TIP3   OH271886   0.820   5.870   3.498  0.0174  0.0641  0.6531
16824TIP3    H171887   0.853   5.892   3.411 -2.6683 -1.3441 -0.8380
16824TIP3    H271888   0.888   5.813   3.536  0.1681 -1.3470 -1.5741
16825TIP3   OH271889   4.857   0.687   1.412  0.2799  0.6382  0.3785
16825TIP3    H171890   4.815   0.711   1.329 -0.0872 -0.3157  0.2797
16825TIP3    H271891   4.946   0.662   1.388 -0.3352 -1.3433 -0.0012
16826TIP3   OH271892   6.366   4.656   5.776 -0.0168 -0.2095  0.3074
16826TIP3    H171893   6.289   4.600   5.786 -1.1142  0.8972 -1.3295
16826TIP3    H271894   6.355   4.724   5.843 -0.0692 -0.4779  0.5722
16827TIP3   OH271895   6.664   6.584   0.414 -0.1474 -0.5129 -0.1634
16827TIP3    H171896   6.675   6.678   0.395 -0.5407 -0.1995  1.0763
16827TIP3    H271897   6.701   6.540   0.337  1.6718  0.6212 -0.0136
16828TIP3   OH271898   5.089   6.193  12.641 -0.4381  0.0016  0.2323
16828TIP3    H171899   5.121   6.103  12.650  1.6103  0.7520  1.2111
16828TIP3    H271900   5.033   6.206  12.717 -0.1178 -0.2130  0.5086
16829TIP3   OH271901   5.309   5.327  13.151  0.6387  0.0387 -0.5568
16829TIP3    H171902   5.309   5.270  13.074 -0.7275 -1.1393  0.2692
16829TIP3    H271903   5.323   5.267  13.225 -2.1958  0.5080  0.4659
16830TIP3   OH271904   2.983   4.125  13.761 -0.3653  0.0851  0.0318
16830TIP3    H171905   3.035   4.132  13.682 -0.4528 -0.2908 -0.0662
16830TIP3    H271906   2.970   4.030  13.772 -3.7404  0.1815 -1.7735
16831TIP3   OH271907   4.375   3.650   1.744  0.3473  0.1811  0.1453
16831TIP3    H171908   4.284   3.638   1.718 -0.1151  0.5900  1.4929
16831TIP3    H271909   4.394   3.741   1.722 -0.2144  0.6907  1.6393
16832TIP3   OH271910   4.521   3.009   2.154 -0.2287 -0.2113 -0.0018
16832TIP3    H171911   4.518   2.935   2.214  0.1558 -0.4734 -0.3079
16832TIP3    H271912   4.609   3.007   2.117 -0.4844 -0.0894 -0.6271
16833TIP3   OH271913   1.780   4.840   4.165 -0.3085  0.0208 -0.5019
16833TIP3    H171914   1.700   4.874   4.205  0.2961  0.9599 -0.0559
16833TIP3    H271915   1.847   4.905   4.186  0.3937 -0.3234 -1.5906
16834TIP3   OH271916   2.564   0.293  12.199 -0.4808 -0.3493  0.0189
16834TIP3    H171917   2.538   0.315  12.289 -0.6092  0.7368 -0.2715
16834TIP3    H271918   2.649   0.336  12.188 -0.6953 -0.0650 -0.5458
16835TIP3   OH271919   5.496   5.325  15.050  0.4573 -0.1093  0.2953
16835TIP3    H171920   5.455   5.281  14.976  0.8453 -0.7379  0.4411
16835TIP3    H271921   5.583   5.349  15.019  0.8461 -0.9106  0.7149
16836TIP3   OH271922   6.064   4.245  16.698  0.1173  0.6486  0.1956
16836TIP3    H171923   6.031   4.217  16.612 -0.7668  2.3057 -0.0256
16836TIP3    H271924   6.158   4.227  16.694 -0.1628 -0.8257 -0.4844
16837TIP3   OH271925   3.965   6.534   6.142  0.4545  0.7849  0.3228
16837TIP3    H171926   3.880   6.528   6.185 -0.5161  0.0290 -1.5707
16837TIP3    H271927   3.946   6.523   6.049  2.6640  0.2488 -0.1393
16838TIP3   OH271928   5.011   2.024   4.718  0.1001  0.4565  0.0362
16838TIP3    H171929   5.047   1.939   4.694  0.1209  0.8851 -1.6441
16838TIP3    H271930   5.081   2.067   4.767 -0.2750 -0.8283  1.8045
16839TIP3   OH271931   2.384   1.555  11.365 -0.4528  0.5096  0.1616
16839TIP3    H171932   2.319   1.618  11.395 -0.5353  0.9750 -0.9728
16839TIP3    H271933   2.369   1.547  11.271  0.2933 -0.3495  0.0998
16840TIP3   OH271934   6.437   2.612   5.946  0.2426 -0.4758 -0.2401
16840TIP3    H171935   6.441   2.658   6.030  0.1108 -2.8779  1.1674
16840TIP3    H271936   6.521   2.566   5.940  0.2474 -0.3386 -1.4307
16841TIP3   OH271937   3.278   6.745  14.632 -0.0383 -0.0320  0.0078
16841TIP3    H171938   3.323   6.671  14.673 -0.6366 -0.2707  0.2502
16841TIP3    H271939   3.347   6.808  14.613  0.2903  0.0133  1.2249
16842TIP3   OH271940   6.104   4.895  10.853  0.2709 -0.2532 -0.4764
16842TIP3    H171941   6.143   4.902  10.766  2.6180 -1.9695  0.3315
16842TIP3    H271942   6.167   4.939  10.911  1.0384 -2.8779  0.8459
16843TIP3   OH271943   5.853   5.379   5.143  0.4277 -0.6235 -0.0238
16843TIP3    H171944   5.853   5.341   5.055 -1.0999 -2.0306  0.5405
16843TIP3    H271945   5.853   5.304   5.201 -2.8922  0.1030  1.1533
16844TIP3   OH271946   3.878   1.968   4.643 -0.2492 -0.0910  0.1368
16844TIP3    H171947   3.801   1.917   4.621  0.8692 -2.2006  0.8173
16844TIP3    H271948   3.917   1.992   4.559 -1.2762  0.4463 -0.1967
16845TIP3   OH271949   1.297   3.665   2.654  0.3394 -0.6905 -0.0972
16845TIP3    H171950   1.354   3.592   2.630  0.9796 -0.0571 -0.5419
16845TIP3    H271951   1.358   3.734   2.682 -0.2844 -0.5899  1.1010
16846TIP3   OH271952   4.996   4.601  13.816  0.0115 -0.0028 -0.2108
16846TIP3    H171953   4.933   4.666  13.785  0.8574  0.6084 -0.6875
16846TIP3    H271954   5.076   4.651  13.834  0.4098 -0.7848  0.2339
16847TIP3   OH271955   5.390   5.650  12.388 -0.2030  0.2334 -0.6199
16847TIP3    H171956   5.406   5.629  12.296 -0.7983  1.1038 -0.9415
16847TIP3    H271957   5.297   5.631  12.400  0.3160 -1.9235  0.4077
16848TIP3   OH271958   5.634   5.823   1.499  0.0200 -0.1691  0.5772
16848TIP3    H171959   5.716   5.862   1.531  1.6819 -2.5772 -0.4112
16848TIP3    H271960   5.622   5.860   1.412  0.8496 -0.8051  0.1780
16849TIP3   OH271961   3.776   1.337  16.928 -0.3964 -0.2447  0.6266
16849TIP3    H171962   3.812   1.353  17.015 -0.6239  1.3024  0.4698
16849TIP3    H271963   3.681   1.344  16.939 -0.4262 -0.0223  0.2681
16850TIP3   OH271964   5.523   1.879  14.768 -0.0983  0.0175  0.6408
16850TIP3    H171965   5.479   1.943  14.713  2.8523  0.3356 -1.5631
16850TIP3    H271966   5.517   1.915  14.857  0.6153  2.9287 -0.3828
16851TIP3   OH271967   5.199   2.666   0.504  0.0781 -0.0166  0.6407
16851TIP3    H171968   5.286   2.705   0.501  0.6449 -1.0672  2.2038
16851TIP3    H271969   5.182   2.638   0.414  1.4203  0.0902  0.3399
16852TIP3   OH271970   2.488   2.594   3.475  0.6003  0.2349  0.2049
16852TIP3    H171971   2.393   2.594   3.460  0.7042 -0.9846 -0.5771
16852TIP3    H271972   2.524   2.641   3.400  0.5105  2.9985  1.7410
16853TIP3   OH271973   0.614   1.064  17.213 -0.3066 -0.2291 -0.2817
16853TIP3    H171974   0.673   1.136  17.192 -1.4871  1.0325  0.5501
16853TIP3    H271975   0.529   1.091  17.179 -0.8620 -1.0445  0.4105
16854TIP3   OH271976   2.601   0.302   0.512  0.1721  0.0588 -0.3092
16854TIP3    H171977   2.511   0.277   0.490  0.9234 -2.3358 -0.9289
16854TIP3    H271978   2.616   0.264   0.599 -0.6257  3.9166  1.7614
16855TIP3   OH271979   2.613   5.325   5.394  0.4235 -0.0488  0.3582
16855TIP3    H171980   2.525   5.289   5.398 -0.1859  1.1142 -1.6304
16855TIP3    H271981   2.649   5.310   5.482 -2.4120  1.1057  1.8471
16856TIP3   OH271982   5.812   4.017  13.708  0.6513 -0.5237 -0.1317
16856TIP3    H171983   5.731   3.991  13.752  0.6154 -1.4203 -0.7009
16856TIP3    H271984   5.783   4.061  13.628  0.7243  0.6933  0.4790
16857TIP3   OH271985   3.815   1.732   5.006  0.2475 -0.1831 -0.1215
16857TIP3    H171986   3.833   1.748   5.099 -0.1147  1.5853 -0.3144
16857TIP3    H271987   3.898   1.749   4.962  0.3298 -0.6677 -0.1494
16858TIP3   OH271988   4.584   2.108   0.583  0.4967 -0.0428  0.2736
16858TIP3    H171989   4.554   2.151   0.663  1.5861 -0.3226  0.8561
16858TIP3    H271990   4.548   2.020   0.588 -0.6775  0.3784 -0.2985
16859TIP3   OH271991   5.897   5.148  16.494 -0.5396 -0.0776 -0.0547
16859TIP3    H171992   5.958   5.144  16.420  0.2507 -2.3480  0.6443
16859TIP3    H271993   5.818   5.104  16.461 -0.4862 -0.3568  0.1924
16860TIP3   OH271994   3.979   0.664  11.572  0.3731  0.2390 -0.3650
16860TIP3    H171995   3.948   0.736  11.625 -0.4013 -1.5914  1.8222
16860TIP3    H271996   4.013   0.705  11.492 -0.8825  2.8773  0.3752
16861TIP3   OH271997   3.203   4.244  12.971 -0.9626  0.2177  0.1408
16861TIP3    H171998   3.262   4.259  13.045  0.2176 -0.5663 -0.6067
16861TIP3    H271999   3.246   4.176  12.919 -2.5460 -0.4020 -0.4310
16862TIP3   OH272000   3.198   5.400   1.829  0.7903  0.4997 -0.3792
16862TIP3    H172001   3.284   5.360   1.817  0.8702  0.2306  0.9275
16862TIP3    H272002   3.216   5.480   1.879  0.3799  0.9306 -0.9176
16863TIP3   OH272003   3.728   0.715  16.608  0.0542  0.2615  0.0965
16863TIP3    H172004   3.779   0.772  16.666 -0.0730  0.6817 -0.2014
16863TIP3    H272005   3.795   0.668  16.558  0.1576  1.1074 -0.5800
16864TIP3   OH272006   4.299   5.804  14.751  0.2457 -0.3457 -0.8215
16864TIP3    H172007   4.390   5.778  14.737  1.5984  1.4910  3.1271
16864TIP3    H272008   4.290   5.888  14.707  0.2584 -0.7526 -1.6221
16865TIP3   OH272009   3.980   2.003   4.916 -0.2236 -0.1604 -0.0238
16865TIP3    H172010   3.912   2.069   4.931  2.9009  3.0443  1.4858
16865TIP3    H272011   3.984   1.994   4.821 -1.2212  1.3246 -0.2456
16866TIP3   OH272012   5.516   4.686  16.417 -0.4155 -0.3556 -0.1717
16866TIP3    H172013   5.492   4.769  16.378  0.9920 -0.0438 -0.4258
16866TIP3    H272014   5.507   4.700  16.511 -0.5472 -0.0363 -0.2299
16867TIP3   OH272015   6.289   6.548   0.999 -0.3429  0.0860  0.6733
16867TIP3    H172016   6.318   6.624   0.948  1.9241 -0.6388  0.7941
16867TIP3    H272017   6.247   6.586   1.076  2.7327  1.3523  1.8872
16868TIP3   OH272018   0.333   0.980   1.321 -1.0458 -0.6966 -0.2529
16868TIP3    H172019   0.278   1.011   1.249 -0.2919  0.5287 -0.3242
16868TIP3    H272020   0.411   0.945   1.278  0.3760  1.9425 -0.0514
16869TIP3   OH272021   0.925   6.712  15.249 -0.2337 -0.4576  0.1862
16869TIP3    H172022   0.845   6.708  15.196  0.1393  1.7161 -0.6398
16869TIP3    H272023   0.984   6.650  15.209 -0.7706 -0.5205 -0.5333
16870TIP3   OH272024   1.234   6.040   2.462 -0.0985 -0.0527  0.2544
16870TIP3    H172025   1.283   5.982   2.521 -0.7775 -0.4565  0.4361
16870TIP3    H272026   1.265   6.017   2.375 -0.9883 -1.3430  0.2439
16871TIP3   OH272027   4.999   0.985   5.378 -0.2111 -0.5794 -0.7136
16871TIP3    H172028   4.946   1.064   5.366  0.5115  0.0586  0.2394
16871TIP3    H272029   4.955   0.937   5.448 -0.1298 -0.5708 -0.6568
16872TIP3   OH272030   0.567   3.944  12.527  0.1558  0.6018 -0.2623
16872TIP3    H172031   0.509   3.903  12.591 -0.0504  2.1063  0.5447
16872TIP3    H272032   0.542   3.904  12.444 -2.2807  1.4502 -0.0041
16873TIP3   OH272033   0.693   5.371   1.089  0.6600 -0.5474  0.5325
16873TIP3    H172034   0.718   5.378   0.996  1.2035  0.7619  0.7558
16873TIP3    H272035   0.598   5.365   1.088  0.6983 -1.4170 -0.1367
16874TIP3   OH272036   6.600   0.774  14.837 -0.1602  0.1544  0.0606
16874TIP3    H172037   6.621   0.868  14.842  0.1749  0.2565 -2.1422
16874TIP3    H272038   6.655   0.734  14.903  1.4541  1.2853 -0.5226
16875TIP3   OH272039   1.352   3.535  11.289  0.2782  0.5755  0.0326
16875TIP3    H172040   1.426   3.592  11.308  0.2929  0.2372  1.0691
16875TIP3    H272041   1.387   3.470  11.228  0.1348  1.9264 -1.5435
16876TIP3   OH272042   3.631   2.666   2.542 -0.4587  0.0126  0.1584
16876TIP3    H172043   3.689   2.742   2.546 -2.0593  1.2695  0.8548
16876TIP3    H272044   3.582   2.669   2.624  0.3158 -2.5581  0.8055
16877TIP3   OH272045   4.123   6.461   3.357  0.7072  0.3912  0.4104
16877TIP3    H172046   4.116   6.553   3.332 -3.1529  0.2573  0.3977
16877TIP3    H272047   4.123   6.414   3.273 -0.1010  0.3396  0.4279
16878TIP3   OH272048   6.384   1.417   2.912  0.6673  0.2759  0.0884
16878TIP3    H172049   6.395   1.392   3.004  2.6324 -2.4926 -0.8011
16878TIP3    H272050   6.335   1.345   2.873 -2.4206  2.5456 -0.6662
16879TIP3   OH272051   1.785   1.076  14.373  0.0130 -0.6925  0.3469
16879TIP3    H172052   1.880   1.078  14.370  0.0948  3.3650 -2.3213
16879TIP3    H272053   1.762   1.115  14.457  0.9159  1.7519 -0.4469
16880TIP3   OH272054   0.821   1.330  11.876  0.6058  0.1511  0.3130
16880TIP3    H172055   0.828   1.425  11.865 -2.8820  0.4262 -0.6480
16880TIP3    H272056   0.837   1.295  11.788 -1.9117  0.2585 -0.2624
16881TIP3   OH272057   0.364   3.071  13.941  0.0113 -0.2268 -0.2897
16881TIP3    H172058   0.357   3.001  14.006 -0.9067 -0.6552 -0.8284
16881TIP3    H272059   0.364   3.152  13.993 -1.2153 -0.5385  0.2195
16882TIP3   OH272060   5.954   0.176   6.433 -0.5517  0.4035 -0.0897
16882TIP3    H172061   5.890   0.130   6.488  0.0243 -0.6489 -0.2702
16882TIP3    H272062   5.986   0.109   6.373  0.3314  1.0418 -0.3524
16883TIP3   OH272063   2.805   6.401   6.607 -0.6847 -0.4338  0.8267
16883TIP3    H172064   2.820   6.494   6.622  1.4339 -0.2380 -1.6444
16883TIP3    H272065   2.727   6.380   6.657 -1.0754  2.5947  1.6708
16884TIP3   OH272066   5.392   4.602  14.563  0.3142  0.1151  0.4104
16884TIP3    H172067   5.332   4.647  14.503 -1.7390 -0.8694  1.6117
16884TIP3    H272068   5.342   4.526  14.594  1.9485 -0.3489  2.0561
16885TIP3   OH272069   3.119   4.985   3.030 -0.2597  0.6194  0.0460
16885TIP3    H172070   3.129   5.018   3.119  1.0870  0.5300 -0.0451
16885TIP3    H272071   3.194   4.926   3.018 -0.9834 -0.1416 -0.8043
16886TIP3   OH272072   2.803   6.224   4.158  0.5082  0.4449  0.2461
16886TIP3    H172073   2.878   6.168   4.139 -0.4016 -0.1148 -2.0724
16886TIP3    H272074   2.731   6.163   4.176  0.3513  0.9482  1.3736
16887TIP3   OH272075   2.320   4.143   4.182 -0.4010  0.6514  0.2430
16887TIP3    H172076   2.374   4.221   4.169 -0.7784  0.9180  0.2532
16887TIP3    H272077   2.233   4.169   4.149 -0.7624  0.5427  1.0996
16888TIP3   OH272078   2.284   4.823  12.931  0.4206  0.1359 -0.3445
16888TIP3    H172079   2.334   4.877  12.871  0.1114 -2.2390 -2.9615
16888TIP3    H272080   2.198   4.815  12.889 -0.0791 -0.9793  0.8320
16889TIP3   OH272081   4.517   1.723   4.378  0.5355  0.0022 -0.1373
16889TIP3    H172082   4.553   1.794   4.325  0.5859 -0.3557 -0.5850
16889TIP3    H272083   4.435   1.699   4.335  0.6510 -0.3897 -0.1422
16890TIP3   OH272084   5.039   2.282  14.647 -0.8572 -0.5640 -0.1886
16890TIP3    H172085   5.060   2.237  14.565  4.2249  1.1779 -0.1900
16890TIP3    H272086   5.094   2.239  14.712 -1.6609  0.7656  1.4198
16891TIP3   OH272087   2.119   1.088  14.131  0.1488 -0.7027 -0.4163
16891TIP3    H172088   2.209   1.105  14.158 -0.2215  1.8997 -0.5592
16891TIP3    H272089   2.066   1.136  14.195 -0.9977 -0.0307 -1.8319
16892TIP3   OH272090   6.364   0.660   5.106  0.0045  0.0122  0.0832
16892TIP3    H172091   6.271   0.664   5.084  0.1310  2.6422 -0.3367
16892TIP3    H272092   6.366   0.633   5.198 -1.0710 -1.3307 -0.2569
16893TIP3   OH272093   4.378   1.724  11.608 -0.1216 -0.1632  0.1594
16893TIP3    H172094   4.318   1.666  11.655  1.9479 -0.6271  2.4535
16893TIP3    H272095   4.367   1.810  11.650 -1.0105  0.4218 -1.1981
16894TIP3   OH272096   2.165   6.503  17.157  0.1740 -0.2595  0.2546
16894TIP3    H172097   2.095   6.516  17.222 -0.4812  0.6293 -0.5957
16894TIP3    H272098   2.240   6.474  17.208 -0.2134  0.7771  1.4728
16895TIP3   OH272099   3.892   4.064  15.481 -0.5204  0.0879  0.4258
16895TIP3    H172100   3.879   4.157  15.462 -0.2030  0.3455  1.3871
16895TIP3    H272101   3.910   4.062  15.575 -2.9572 -1.1867  0.9391
16896TIP3   OH272102   3.428   0.627  12.175 -0.4799  0.0057  0.2374
16896TIP3    H172103   3.521   0.641  12.159 -0.1281 -1.3703  0.9230
16896TIP3    H272104   3.391   0.715  12.182  0.8018  0.5686  0.1742
16897TIP3   OH272105   2.902   2.791   1.528 -0.6504 -0.3541  0.4009
16897TIP3    H172106   2.840   2.818   1.460  1.3343  1.5486 -0.7673
16897TIP3    H272107   2.983   2.775   1.481  1.0437  1.8461  2.3362
16898TIP3   OH272108   3.151   3.297  11.710  0.2877  0.7688  0.4172
16898TIP3    H172109   3.199   3.365  11.759  2.4042 -0.9734  0.9154
16898TIP3    H272110   3.218   3.255  11.656 -1.7490  1.9251 -3.4022
16899TIP3   OH272111   4.285   6.503   1.549 -0.1677  0.3396  0.6270
16899TIP3    H172112   4.296   6.437   1.480 -1.9866  0.4461  0.2038
16899TIP3    H272113   4.373   6.513   1.585  0.5493 -0.8033 -0.6778
16900TIP3   OH272114   3.502   0.431  17.199  0.7975 -0.3952  0.1785
16900TIP3    H172115   3.431   0.368  17.200  1.4921 -1.2058  2.2562
16900TIP3    H272116   3.467   0.506  17.150 -1.5230 -0.7063  1.2492
16901TIP3   OH272117   6.006   6.330  12.425  0.2516  0.3902  0.3254
16901TIP3    H172118   5.928   6.379  12.400 -0.8446 -0.6589  1.5967
16901TIP3    H272119   6.024   6.274  12.349 -0.8207 -0.0780  0.4025
16902TIP3   OH272120   1.041   0.360   5.654 -0.2856  0.3336 -0.5881
16902TIP3    H172121   1.011   0.421   5.721  4.0478  2.7111 -0.4247
16902TIP3    H272122   1.042   0.275   5.698  0.7012  1.5053  1.8919
16903TIP3   OH272123   5.514   6.064  15.649 -0.7824 -0.8516 -0.4975
16903TIP3    H172124   5.479   5.999  15.588 -1.0702  0.3926 -1.7077
16903TIP3    H272125   5.447   6.132  15.653 -0.1356 -0.2381  0.1041
16904TIP3   OH272126   0.477   2.990   2.383  0.0246 -0.0618  0.3703
16904TIP3    H172127   0.458   3.063   2.325  2.2968 -0.3403 -0.8685
16904TIP3    H272128   0.545   3.023   2.441 -0.8373 -0.4037  1.6113
16905TIP3   OH272129   0.100   4.118   5.753  0.2975 -0.5120  0.4737
16905TIP3    H172130   0.178   4.101   5.805  0.5026  3.4603  1.8237
16905TIP3    H272131   0.032   4.136   5.818 -1.7195 -3.2649 -0.6772
16906TIP3   OH272132   2.031   3.888  10.936 -0.0445  0.6075  0.0092
16906TIP3    H172133   1.980   3.839  10.871 -1.3069  1.8487  0.0210
16906TIP3    H272134   2.015   3.980  10.916  1.0923  1.0336  0.9038
16907TIP3   OH272135   3.169   1.700   1.500 -0.1138 -0.3529 -0.4721
16907TIP3    H172136   3.146   1.608   1.506  0.7894 -0.5686 -0.0896
16907TIP3    H272137   3.195   1.712   1.408 -2.4425  0.0997 -1.1461
16908TIP3   OH272138   3.196   0.949   4.345 -0.3798 -0.5724 -0.0472
16908TIP3    H172139   3.134   0.962   4.416 -0.2859 -1.9327  0.3044
16908TIP3    H272140   3.256   0.882   4.377 -0.8719 -1.8756 -1.7274
16909TIP3   OH272141   5.174   6.208  14.874  0.4937 -0.3288  0.1653
16909TIP3    H172142   5.164   6.271  14.804  0.2375 -1.8033 -1.1935
16909TIP3    H272143   5.092   6.212  14.923  0.2004 -0.1292 -0.3474
16910TIP3   OH272144   3.871   6.200  12.201 -0.0205  0.0814  0.0329
16910TIP3    H172145   3.843   6.166  12.116  1.9431  0.1950 -0.7078
16910TIP3    H272146   3.850   6.130  12.263 -2.2004  0.3092 -0.3696
16911TIP3   OH272147   1.965   5.338  13.545  0.5437 -0.0677 -0.2992
16911TIP3    H172148   2.025   5.320  13.618  1.0121  1.0508 -0.3864
16911TIP3    H272149   1.897   5.393  13.583  0.0983 -0.5244 -0.4269
16912TIP3   OH272150   2.251   5.523   2.752 -0.3470 -0.1003  0.1533
16912TIP3    H172151   2.232   5.438   2.792 -2.4158  0.1678 -0.1360
16912TIP3    H272152   2.215   5.515   2.663  0.9304  0.5406 -0.4417
16913TIP3   OH272153   4.323   2.893  12.650 -0.4190  0.0057 -0.6963
16913TIP3    H172154   4.267   2.821  12.680 -2.7782  1.9383 -0.0985
16913TIP3    H272155   4.359   2.931  12.731  0.5524 -0.2821 -0.9814
16914TIP3   OH272156   4.405   4.081   3.311  0.1269 -0.3725  0.8428
16914TIP3    H172157   4.360   4.155   3.271 -1.3378 -1.3986  0.4700
16914TIP3    H272158   4.398   4.011   3.246  1.4232 -0.8634  1.2028
16915TIP3   OH272159   6.198   5.963   4.396 -0.0862 -0.1605  0.1526
16915TIP3    H172160   6.229   5.887   4.347  0.5515 -0.2878  0.7410
16915TIP3    H272161   6.271   5.986   4.454 -1.1314 -0.5491  1.6854
16916TIP3   OH272162   3.375   0.554  14.323  0.3361 -0.4089  0.2870
16916TIP3    H172163   3.400   0.641  14.292 -2.2244  0.0393 -0.7291
16916TIP3    H272164   3.429   0.540  14.401  0.9900  1.9755  0.3316
16917TIP3   OH272165   4.465   3.254  15.441  0.1933  0.2816 -0.2577
16917TIP3    H172166   4.536   3.296  15.491  0.0370  0.1674  0.0632
16917TIP3    H272167   4.387   3.268  15.494  0.0975 -0.2042 -0.2682
16918TIP3   OH272168   6.345   6.371   4.705 -0.2541  0.3705 -0.0870
16918TIP3    H172169   6.341   6.386   4.610  2.8228  1.0007 -0.2130
16918TIP3    H272170   6.343   6.459   4.743  0.4139  0.2185  0.3096
16919TIP3   OH272171   4.261   2.039   5.553  0.5478 -0.5533 -0.5440
16919TIP3    H172172   4.311   2.000   5.625 -0.4880 -3.2182 -1.1304
16919TIP3    H272173   4.275   2.133   5.562  1.2968 -0.8421  2.4900
16920TIP3   OH272174   1.909   0.514   2.428 -0.5120 -0.2046 -0.2106
16920TIP3    H172175   1.836   0.469   2.385 -1.0710  1.4011 -1.0186
16920TIP3    H272176   1.978   0.517   2.361 -1.2276  1.9177 -0.9122
16921TIP3   OH272177   1.397   3.622   1.926 -0.1111 -0.2058 -0.7479
16921TIP3    H172178   1.423   3.710   1.954 -0.1113  0.1261 -1.7388
16921TIP3    H272179   1.347   3.636   1.846  0.3042 -1.1466 -1.1855
16922TIP3   OH272180   0.207   0.334  16.699 -0.1818  0.1526  0.2965
16922TIP3    H172181   0.126   0.371  16.735  1.4478  1.5330  2.7515
16922TIP3    H272182   0.182   0.308  16.610 -3.2331  0.8150  0.8221
16923TIP3   OH272183   1.215   6.098   0.967 -0.8556  0.0469 -0.4549
16923TIP3    H172184   1.269   6.109   1.045 -1.2554  0.6974 -0.2642
16923TIP3    H272185   1.131   6.139   0.989 -0.9080  0.4139 -1.2890
16924TIP3   OH272186   1.055   3.824   4.801  0.1172  0.4907  0.5481
16924TIP3    H172187   0.973   3.815   4.752 -0.3703 -1.4393  1.6019
16924TIP3    H272188   1.118   3.856   4.736 -0.9604 -0.0451 -0.8337
16925TIP3   OH272189   2.492   1.625   5.880  0.3850 -0.1832  0.0025
16925TIP3    H172190   2.443   1.703   5.854 -3.1529 -2.1669  0.0560
16925TIP3    H272191   2.559   1.614   5.813 -0.8320  1.3609 -1.5380
16926TIP3   OH272192   0.113   4.021  15.872  0.5653  0.0648 -0.3910
16926TIP3    H172193   0.076   4.108  15.860 -2.7778 -1.2732 -0.7192
16926TIP3    H272194   0.148   4.021  15.961 -0.2341  1.4538 -0.0584
16927TIP3   OH272195   1.251   0.306   2.214 -0.2456 -0.4728  0.3263
16927TIP3    H172196   1.346   0.299   2.224 -0.2821 -1.1367  0.2358
16927TIP3    H272197   1.239   0.372   2.146  0.1614 -0.6834  0.0471
16928TIP3   OH272198   1.516   6.457  17.130  0.3561 -0.7279 -0.7843
16928TIP3    H172199   1.508   6.362  17.141 -2.1119 -0.3861  1.4472
16928TIP3    H272200   1.535   6.490  17.218  1.2250  0.8722 -1.5279
16929TIP3   OH272201   1.796   0.533  12.108 -0.5100  0.0449 -0.6353
16929TIP3    H172202   1.780   0.605  12.169  0.5804  0.3671 -0.7046
16929TIP3    H272203   1.830   0.575  12.029  0.5558 -0.5579 -0.5228
16930TIP3   OH272204   4.231   3.653  12.546 -0.2301 -0.0512  0.1944
16930TIP3    H172205   4.157   3.609  12.505 -0.6986 -0.2033  1.1898
16930TIP3    H272206   4.228   3.626  12.637  1.1634 -0.2063  0.2190
16931TIP3   OH272207   6.578   3.993  13.206  0.0281 -0.1661  0.0642
16931TIP3    H172208   6.588   4.088  13.196  1.6658 -0.4728 -1.6282
16931TIP3    H272209   6.587   3.978  13.300 -0.9566  1.4150  0.4391
16932TIP3   OH272210   6.134   4.896  11.177 -0.4041 -0.0216  0.2922
16932TIP3    H172211   6.149   4.988  11.157 -0.9235  0.4681  1.9803
16932TIP3    H272212   6.222   4.861  11.196 -0.2460  0.2134 -0.0072
16933TIP3   OH272213   0.268   3.159  16.052 -0.4724  0.6305  0.3463
16933TIP3    H172214   0.318   3.124  16.126 -0.4287  0.8733  0.4338
16933TIP3    H272215   0.191   3.199  16.092 -1.8086 -1.5204  0.0760
16934TIP3   OH272216   1.725   4.699   0.337 -0.5093  0.4812 -0.1232
16934TIP3    H172217   1.635   4.730   0.331 -1.1626 -1.2149  0.2075
16934TIP3    H272218   1.744   4.663   0.250 -0.5712 -0.2061  0.1434
16935TIP3   OH272219   4.707   5.495  13.941  0.5355 -0.2726  0.2252
16935TIP3    H172220   4.660   5.526  13.863  0.9959 -0.1295 -0.0002
16935TIP3    H272221   4.782   5.553  13.949 -1.0530  1.6585  2.5310
16936TIP3   OH272222   5.959   2.611   3.432  0.7447  0.0580 -0.2059
16936TIP3    H172223   5.931   2.569   3.351 -0.2572 -0.7419  0.5292
16936TIP3    H272224   6.053   2.594   3.437  0.7413 -0.2273 -0.9907
16937TIP3   OH272225   0.720   5.421   0.823 -0.2435 -0.1302  0.3284
16937TIP3    H172226   0.778   5.400   0.749  0.2916  1.9373  0.0976
16937TIP3    H272227   0.637   5.446   0.781 -0.6671 -1.1024  0.5626
16938TIP3   OH272228   4.491   1.348   5.416 -0.8314  0.6011 -0.0569
16938TIP3    H172229   4.578   1.384   5.397 -0.2213 -0.6006  0.3722
16938TIP3    H272230   4.453   1.330   5.330 -0.0822 -0.1938 -0.2251
16939TIP3   OH272231   0.572   2.314  11.139  0.0061 -0.0836 -0.0649
16939TIP3    H172232   0.557   2.402  11.172  1.2935 -0.1307  0.7138
16939TIP3    H272233   0.557   2.257  11.214 -0.2598 -0.4781 -0.4149
16940TIP3   OH272234   0.636   1.947   5.993  0.2550 -0.2082  0.2926
16940TIP3    H172235   0.661   1.872   5.939 -1.3234 -0.2327 -0.4658
16940TIP3    H272236   0.590   1.909   6.067 -0.4989 -0.0093 -0.0654
16941TIP3   OH272237   4.672   2.715   2.149  0.1933 -0.0241 -0.2239
16941TIP3    H172238   4.668   2.709   2.053  2.2211 -1.2977 -0.2773
16941TIP3    H272239   4.708   2.631   2.177 -1.0988  0.0223  1.7557
16942TIP3   OH272240   6.576   1.284   1.284 -0.6981  0.4967 -0.2635
16942TIP3    H172241   6.583   1.195   1.250  0.5255  0.8538 -1.0036
16942TIP3    H272242   6.488   1.312   1.260 -0.7616 -0.1854 -0.8559
16943TIP3   OH272243   6.730   6.762  13.978  0.3728 -0.2616  0.1242
16943TIP3    H172244   6.653   6.754  13.922 -1.0293  0.7161  1.8125
16943TIP3    H272245   6.763   6.673  13.986 -0.4843 -0.6821 -0.7446
16944TIP3   OH272246   0.254   5.666   2.291  0.3478 -0.4820  0.0376
16944TIP3    H172247   0.330   5.676   2.348  1.3031 -0.3890 -1.1985
16944TIP3    H272248   0.236   5.572   2.290  0.6427 -0.5390  0.1053
16945TIP3   OH272249   3.457   1.483  14.597  0.1097 -0.1253 -0.1582
16945TIP3    H172250   3.487   1.448  14.512  0.3921 -0.3481  0.0299
16945TIP3    H272251   3.535   1.483  14.652 -0.2191 -0.6429  0.3205
16946TIP3   OH272252   0.338   1.001   5.462  0.1796  0.0036  0.3109
16946TIP3    H172253   0.425   0.980   5.427  0.4375  0.9151  0.3666
16946TIP3    H272254   0.353   1.076   5.519 -0.8080  0.9097 -0.5741
16947TIP3   OH272255   6.460   3.814  15.246  0.3570 -0.0765  0.2792
16947TIP3    H172256   6.554   3.826  15.232 -0.1215  3.5101 -0.7137
16947TIP3    H272257   6.435   3.884  15.306 -1.6553 -1.3127  0.9981
16948TIP3   OH272258   5.046   1.529  16.919 -1.1663  0.2517 -0.3828
16948TIP3    H172259   5.045   1.533  16.823 -0.8173 -3.5255 -0.7194
16948TIP3    H272260   5.134   1.559  16.943 -0.7950  0.0084 -1.3807
16949TIP3   OH272261   6.680   3.247   0.869  0.0933  0.4841 -0.3343
16949TIP3    H172262   6.623   3.321   0.887  0.8659  1.5422 -1.9740
16949TIP3    H272263   6.716   3.223   0.955 -1.4641  0.8974  0.4650
16950TIP3   OH272264   3.739   5.989   3.188 -0.0680  0.1451 -0.8273
16950TIP3    H172265   3.756   5.912   3.242 -0.4933 -0.4420 -1.5225
16950TIP3    H272266   3.752   5.959   3.098  2.5332  1.5860 -1.0450
16951TIP3   OH272267   2.223   6.680  16.701  0.0288  0.2419 -0.9578
16951TIP3    H172268   2.318   6.689  16.686 -0.0381  0.8828 -1.0376
16951TIP3    H272269   2.202   6.751  16.761 -0.3600 -0.0633 -0.7313
16952TIP3   OH272270   0.837   5.268   2.508  0.0712 -0.5156 -0.6123
16952TIP3    H172271   0.895   5.214   2.562  1.2833  1.0504 -0.2643
16952TIP3    H272272   0.758   5.280   2.560  1.0472  0.6063  0.6994
16953TIP3   OH272273   6.717   5.093  15.620  0.5765  0.2808  0.5935
16953TIP3    H172274   6.670   5.175  15.637  1.5689  0.9515  0.2559
16953TIP3    H272275   6.666   5.050  15.551 -0.5956  0.0376  1.5778
16954TIP3   OH272276   3.341   1.471  10.909  0.5520  0.2309 -0.0093
16954TIP3    H172277   3.343   1.519  10.991  2.7071  0.2017 -0.0059
16954TIP3    H272278   3.343   1.379  10.935 -0.3554  0.1833 -0.0808
16955TIP3   OH272279   2.349   5.988  15.667  0.2332  0.2231 -0.4602
16955TIP3    H172280   2.281   6.012  15.604 -0.1430 -0.7881 -0.4541
16955TIP3    H272281   2.364   6.068  15.718 -0.2646  0.7247 -1.0936
16956TIP3   OH272282   1.159   2.399   5.686 -0.0497 -0.1738  0.4933
16956TIP3    H172283   1.245   2.366   5.713  0.1922 -0.8766 -1.0356
16956TIP3    H272284   1.102   2.322   5.691  0.2263 -0.5852 -1.8690
16957TIP3   OH272285   2.559   2.496  11.843 -0.4811 -0.0908 -0.1971
16957TIP3    H172286   2.631   2.550  11.808  0.1345  0.4394  1.7920
16957TIP3    H272287   2.497   2.559  11.879 -0.3699 -0.6414  0.9998
16958TIP3   OH272288   2.645   2.230  14.274  0.6311 -0.1792  0.3461
16958TIP3    H172289   2.704   2.297  14.310  0.3196  0.4851 -0.3511
16958TIP3    H272290   2.674   2.148  14.314  1.9399  0.1573  0.1217
16959TIP3   OH272291   6.192   4.861   4.251  0.4048 -0.6231  0.7320
16959TIP3    H172292   6.270   4.838   4.300  0.7119 -1.1892 -0.0005
16959TIP3    H272293   6.123   4.806   4.288  0.8118 -1.6587 -0.0019
16960TIP3   OH272294   4.670   3.978   0.143 -0.0549  0.2314 -0.3674
16960TIP3    H172295   4.619   3.928   0.207  1.4387  0.0149  0.7139
16960TIP3    H272296   4.607   4.038   0.104 -0.8521  1.1014  2.0473
16961TIP3   OH272297   1.148   3.941   2.279  0.4903  0.5609 -0.3953
16961TIP3    H172298   1.170   3.881   2.208  0.5619  0.7880 -0.5661
16961TIP3    H272299   1.123   3.884   2.352 -0.5258  0.3334 -0.9048
16962TIP3   OH272300   0.760   5.441  13.568  0.4296  0.2727  0.0950
16962TIP3    H172301   0.716   5.441  13.653  1.4655 -2.0125  0.7329
16962TIP3    H272302   0.693   5.411  13.506  0.1939  0.0383  0.4624
16963TIP3   OH272303   6.199   0.841  12.746 -0.0350 -0.3628 -0.2164
16963TIP3    H172304   6.122   0.799  12.785  0.8909 -2.6474 -0.7010
16963TIP3    H272305   6.177   0.850  12.653  0.4736 -1.6426 -0.4898
16964TIP3   OH272306   4.310   1.277  15.876  0.1917 -0.1104 -0.0782
16964TIP3    H172307   4.363   1.338  15.927  1.9429 -0.5050 -1.3566
16964TIP3    H272308   4.220   1.298  15.900  0.8293  1.7577  0.8426
16965TIP3   OH272309   5.437   6.504   2.015 -0.2863 -1.0507  0.3104
16965TIP3    H172310   5.390   6.533   2.094 -0.3184 -2.3992  0.8207
16965TIP3    H272311   5.375   6.519   1.944 -0.6455 -0.7541  0.6790
16966TIP3   OH272312   3.730   1.379   0.663 -0.2764 -0.1572 -0.3006
16966TIP3    H172313   3.707   1.441   0.594  0.6619  0.1083 -0.3807
16966TIP3    H272314   3.646   1.338   0.687 -0.6560 -0.0465 -1.3869
16967TIP3   OH272315   4.975   5.584   4.411  0.4901  0.3197  0.4960
16967TIP3    H172316   4.887   5.563   4.441 -0.2140 -1.2582 -2.3353
16967TIP3    H272317   4.967   5.673   4.376  0.2522  0.5024  1.0006
16968TIP3   OH272318   1.464   2.505  14.323  0.2997  0.5796 -0.4348
16968TIP3    H172319   1.371   2.483  14.316  0.4123 -1.0426  1.9735
16968TIP3    H272320   1.508   2.444  14.263 -0.0508 -0.1282  0.0150
16969TIP3   OH272321   5.429   2.325  17.221 -0.0760  0.2185 -0.1686
16969TIP3    H172322   5.390   2.318  17.308  1.0786 -2.3919  0.2348
16969TIP3    H272323   5.360   2.296  17.161 -0.6667  1.4266 -0.1132
16970TIP3   OH272324   2.840   1.758   5.647  0.4750 -0.1022  0.0704
16970TIP3    H172325   2.799   1.702   5.581  0.4380  1.0563 -0.9476
16970TIP3    H272326   2.885   1.698   5.705 -1.7073 -1.3552  0.5824
16971TIP3   OH272327   1.875   3.183   2.118 -0.6485  0.7549 -0.0359
16971TIP3    H172328   1.906   3.271   2.094  0.3890  0.5521  0.4976
16971TIP3    H272329   1.953   3.128   2.113 -1.3750 -0.2484 -0.8046
16972TIP3   OH272330   0.809   1.993   4.604  0.4056 -0.2202 -0.4068
16972TIP3    H172331   0.724   1.962   4.634  0.3611  0.3394  0.0606
16972TIP3    H272332   0.807   1.981   4.509 -0.8640  1.3798 -0.6271
16973TIP3   OH272333   2.132   6.371   0.362  0.0731  0.0297  0.2053
16973TIP3    H172334   2.173   6.374   0.448 -0.9881 -0.5040  0.7499
16973TIP3    H272335   2.042   6.399   0.378 -0.4160 -1.0676 -0.5430
16974TIP3   OH272336   4.264   3.273  15.618  0.3084 -0.3323  0.0008
16974TIP3    H172337   4.189   3.288  15.561  0.6354  0.3261 -0.2676
16974TIP3    H272338   4.257   3.341  15.686  0.2173 -0.7743  0.4363
16975TIP3   OH272339   6.500   5.865  12.329 -0.1385  0.5275  0.2309
16975TIP3    H172340   6.525   5.957  12.335 -1.2535  0.7956  1.1497
16975TIP3    H272341   6.510   5.843  12.236  2.1882  0.9484  0.3370
16976TIP3   OH272342   6.596   5.488   1.405 -0.0654 -0.4501 -0.1723
16976TIP3    H172343   6.682   5.490   1.364 -0.4692 -0.4534 -1.0543
16976TIP3    H272344   6.535   5.481   1.332 -0.7781 -1.3277  0.4743
16977TIP3   OH272345   2.133   2.464   4.199 -0.5698 -0.3652  0.1581
16977TIP3    H172346   2.091   2.474   4.284  0.5897 -1.4433  0.9009
16977TIP3    H272347   2.066   2.490   4.136 -1.6312 -0.0420  1.3726
16978TIP3   OH272348   1.570   3.351  12.157 -0.8671 -0.1142 -0.7853
16978TIP3    H172349   1.596   3.327  12.068 -0.3143 -0.5392 -0.5196
16978TIP3    H272350   1.582   3.446  12.160  0.3078 -0.2454 -0.8004
16979TIP3   OH272351   6.532   1.969  10.986 -0.2813  0.2017 -0.2184
16979TIP3    H172352   6.455   1.992  11.038 -0.4550 -1.2022  0.1913
16979TIP3    H272353   6.498   1.952  10.898 -0.1496  1.4140 -0.5294
16980TIP3   OH272354   4.562   1.754  15.757  0.4280  0.8739  0.1317
16980TIP3    H172355   4.506   1.823  15.721  0.5553  1.3264  0.7920
16980TIP3    H272356   4.535   1.675  15.711 -2.0028  0.7102  1.6605
16981TIP3   OH272357   1.982   4.177  16.663  0.5084 -0.0785  0.6497
16981TIP3    H172358   1.894   4.210  16.679  0.9203  0.7724  1.1692
16981TIP3    H272359   2.027   4.248  16.618  0.6303 -0.8944 -0.5705
16982TIP3   OH272360   0.262   5.109  15.683 -0.0571 -0.0332 -0.2920
16982TIP3    H172361   0.309   5.101  15.600  0.6100  1.7360 -0.1260
16982TIP3    H272362   0.326   5.147  15.743 -1.1816  0.7783  0.4328
16983TIP3   OH272363   4.702   1.535   1.920  0.3939 -0.3642  0.1265
16983TIP3    H172364   4.648   1.555   1.997 -1.4816 -4.2276  0.0662
16983TIP3    H272365   4.668   1.594   1.852 -1.3029 -0.1921  1.0521
16984TIP3   OH272366   3.107   0.115  15.851  0.2671  0.3442  0.3578
16984TIP3    H172367   3.202   0.124  15.845  0.5245 -2.0270  0.0650
16984TIP3    H272368   3.080   0.091  15.762 -0.7800  2.0969  0.1623
16985TIP3   OH272369   6.659   1.733   5.368  0.1783  0.4562  0.2543
16985TIP3    H172370   6.723   1.706   5.302 -0.5417  0.8661 -0.6358
16985TIP3    H272371   6.712   1.757   5.444  0.9964 -0.5591  0.0267
16986TIP3   OH272372   0.657   1.115   2.749  0.5382  0.7231 -0.1363
16986TIP3    H172373   0.655   1.092   2.842 -2.3951 -0.1203 -0.3141
16986TIP3    H272374   0.586   1.179   2.738  2.2599  2.5359 -1.4520
16987TIP3   OH272375   6.117   5.515   2.528  0.7048 -0.2120 -0.0910
16987TIP3    H172376   6.212   5.504   2.525  0.7543 -0.6169  1.6706
16987TIP3    H272377   6.083   5.444   2.474  1.3757 -1.5774  1.2150
16988TIP3   OH272378   5.534   0.833   0.597 -0.0500  0.4820 -0.8401
16988TIP3    H172379   5.553   0.769   0.666 -1.7286 -1.0030 -1.6723
16988TIP3    H272380   5.612   0.832   0.542 -0.1593 -1.1126 -1.0068
16989TIP3   OH272381   0.651   2.648   1.258  0.1452  0.4327 -0.0729
16989TIP3    H172382   0.732   2.601   1.280  0.9330  2.2085  1.0397
16989TIP3    H272383   0.623   2.688   1.340 -2.1648 -0.5110 -0.3350
16990TIP3   OH272384   0.124   2.693   4.594 -0.3070  0.3233  0.0528
16990TIP3    H172385   0.203   2.742   4.617 -1.2713  1.1936  1.7040
16990TIP3    H272386   0.136   2.607   4.635  0.8555 -0.4577 -1.8314
16991TIP3   OH272387   4.218   1.128   0.176 -0.2791 -0.2760  0.1587
16991TIP3    H172388   4.282   1.126   0.105  0.6154  0.3413  0.9185
16991TIP3    H272389   4.187   1.038   0.183  1.6709 -0.9580  0.7738
16992TIP3   OH272390   3.624   2.393  17.154 -0.2952 -0.8313 -0.3395
16992TIP3    H172391   3.570   2.414  17.231  1.6098  0.2156  0.7965
16992TIP3    H272392   3.656   2.305  17.171  1.7122  0.1166  1.1264
16993TIP3   OH272393   3.774   1.659  13.328  0.3893  0.0683 -0.3801
16993TIP3    H172394   3.769   1.666  13.423  0.7444  1.2364 -0.4363
16993TIP3    H272395   3.823   1.736  13.300  0.7464 -0.5333 -1.4720
16994TIP3   OH272396   3.784   1.931  17.214  0.1829 -0.7851 -0.3970
16994TIP3    H172397   3.784   1.950  17.308  3.1184 -0.5726 -0.3585
16994TIP3    H272398   3.761   1.838  17.209  1.0829 -1.0936  0.6556
16995TIP3   OH272399   5.192   3.710  14.426  0.0471 -0.3171 -0.1008
16995TIP3    H172400   5.205   3.695  14.332 -1.8949 -1.6781 -0.2296
16995TIP3    H272401   5.241   3.640  14.469  0.5593  0.0281 -0.1227
16996TIP3   OH272402   5.504   4.757  12.969 -0.4203  0.5345 -0.3266
16996TIP3    H172403   5.539   4.688  13.026  0.4142  0.3120 -1.0704
16996TIP3    H272404   5.554   4.748  12.888 -2.1312  0.2899 -1.4191
16997TIP3   OH272405   6.544   3.948   3.531 -0.2796 -0.1163 -0.4789
16997TIP3    H172406   6.622   3.986   3.490 -1.0869  0.4448 -1.5397
16997TIP3    H272407   6.579   3.889   3.598  1.0950  3.6450  2.4717
16998TIP3   OH272408   1.591   0.506   3.421 -0.2063 -0.0364 -0.2150
16998TIP3    H172409   1.585   0.578   3.484 -0.1159 -0.8254  0.7186
16998TIP3    H272410   1.675   0.464   3.440 -0.3219 -0.4744 -0.6463
16999TIP3   OH272411   4.605   4.422  14.742 -0.1120  0.2122  0.1517
16999TIP3    H172412   4.651   4.474  14.676 -1.4843  2.5792  0.9345
16999TIP3    H272413   4.591   4.337  14.701  2.6614  0.2446 -1.0269
17000TIP3   OH272414   2.488   2.872  14.876  0.3864  0.5002  0.3496
17000TIP3    H172415   2.453   2.941  14.819  0.5631  1.7304  1.6524
17000TIP3    H272416   2.564   2.913  14.919  0.6697 -0.6068  0.9300
17001TIP3   OH272417   3.479   0.012   3.612 -0.0867  0.0923  0.0683
17001TIP3    H172418   3.515   0.047   3.530 -2.5054  0.4063 -0.9463
17001TIP3    H272419   3.553  -0.032   3.654  1.1030 -0.6755 -2.6060
17002TIP3   OH272420   3.394   3.098   3.750  0.2781 -0.1097 -0.8867
17002TIP3    H172421   3.397   3.113   3.655  0.5300 -2.7170 -1.3822
17002TIP3    H272422   3.338   3.021   3.760  1.5120 -0.8369  0.9222
17003TIP3   OH272423   3.652   1.281   3.895  0.6235 -0.3067 -0.1270
17003TIP3    H172424   3.740   1.294   3.931  1.3363  1.6803 -2.3353
17003TIP3    H272425   3.667   1.242   3.809 -0.6453  0.2169 -0.6100
17004TIP3   OH272426   0.527   1.178   5.684 -0.5531 -0.2770  0.1011
17004TIP3    H172427   0.444   1.211   5.719  0.2673  0.6858  1.2151
17004TIP3    H272428   0.593   1.207   5.747  0.5636 -1.6185 -0.4079
17005TIP3   OH272429   4.619   4.688  16.768  0.2535 -0.3359  0.0566
17005TIP3    H172430   4.622   4.606  16.817 -0.9543 -1.3625 -1.5392
17005TIP3    H272431   4.534   4.688  16.724 -0.7816  2.7980  1.6965
17006TIP3   OH272432   5.414   0.985   6.311 -0.3351 -0.4192  0.3031
17006TIP3    H172433   5.451   1.072   6.325 -1.0946  0.3859 -2.1164
17006TIP3    H272434   5.472   0.926   6.359  0.3987  1.3555  1.7345
17007TIP3   OH272435   4.864   4.471  12.106  0.2224 -0.1602 -0.0779
17007TIP3    H172436   4.854   4.399  12.168  1.5936  1.2946  1.9582
17007TIP3    H272437   4.788   4.527  12.123  0.7681  0.4025  0.5377
17008TIP3   OH272438   1.183   0.880  13.416 -0.7324  0.2253  0.7196
17008TIP3    H172439   1.161   0.826  13.340  1.1000  1.4858 -0.8277
17008TIP3    H272440   1.128   0.958  13.408  0.9329  1.3456 -0.6337
17009TIP3   OH272441   4.291   4.527  16.253 -0.0144 -0.4180  0.1446
17009TIP3    H172442   4.289   4.556  16.162  1.4820 -0.9112 -0.0692
17009TIP3    H272443   4.365   4.572  16.291 -0.4352 -0.4625  1.0483
17010TIP3   OH272444   2.726   3.718   0.758  0.4221  0.3634  0.3065
17010TIP3    H172445   2.682   3.661   0.822  0.9987 -0.3071  0.1234
17010TIP3    H272446   2.769   3.657   0.698  0.0148  0.9851 -0.6463
17011TIP3   OH272447   5.946   1.435   1.023  0.0308 -0.1214 -0.1184
17011TIP3    H172448   5.944   1.413   0.930  1.1652 -1.9329  0.2326
17011TIP3    H272449   5.866   1.398   1.059  1.1107 -2.3596  0.1492
17012TIP3   OH272450   1.618   6.345   3.986  0.5252  0.2783  0.3569
17012TIP3    H172451   1.674   6.289   3.932 -0.6550 -0.8816  0.2776
17012TIP3    H272452   1.610   6.298   4.069  0.9960  1.2541  0.9770
17013TIP3   OH272453   2.854   6.313  14.859  0.0547  0.4362  0.1267
17013TIP3    H172454   2.877   6.221  14.874  1.4652  0.6643 -0.4526
17013TIP3    H272455   2.855   6.353  14.946 -1.2694 -0.2236  0.4677
17014TIP3   OH272456   1.949   1.912  14.487 -0.0901  0.3753 -0.8412
17014TIP3    H172457   2.014   1.858  14.442  2.1597  0.1253  2.3455
17014TIP3    H272458   1.999   1.987  14.520 -1.3283  0.1734  1.7651
17015TIP3   OH272459   0.151   5.343   3.060 -0.3269 -0.1316 -0.3994
17015TIP3    H172460   0.185   5.275   3.118  0.1156 -0.3956 -0.9595
17015TIP3    H272461   0.103   5.402   3.118  1.1262  0.2946  0.4283
17016TIP3   OH272462   3.146   2.433   2.334 -0.4436 -0.1064  0.2114
17016TIP3    H172463   3.071   2.464   2.284 -1.9963 -0.2930  2.2917
17016TIP3    H272464   3.207   2.507   2.336 -2.1557  1.3472  1.4390
17017TIP3   OH272465   0.144   0.184   3.468  0.7967 -0.4454 -0.2458
17017TIP3    H172466   0.200   0.256   3.438  0.9210 -0.6995 -0.6184
17017TIP3    H272467   0.079   0.227   3.524  2.2929 -0.3156  1.5030
17018TIP3   OH272468   6.250   2.507  14.707 -0.5420  0.2277 -0.3858
17018TIP3    H172469   6.184   2.444  14.678  0.3956 -1.5499  1.0901
17018TIP3    H272470   6.282   2.471  14.791  1.1571  1.8527 -0.2702
17019TIP3   OH272471   4.959   3.301   1.384  0.1493 -1.1250 -0.3290
17019TIP3    H172472   4.984   3.245   1.310  0.0039 -1.7526  0.0852
17019TIP3    H272473   4.874   3.337   1.359 -0.0553 -1.5990 -0.3340
17020TIP3   OH272474   4.042   2.107  13.747 -0.2781 -0.2310 -0.7967
17020TIP3    H172475   4.076   2.122  13.835  1.6284 -1.1660 -1.3253
17020TIP3    H272476   4.099   2.158  13.690 -1.9593  0.9836 -1.4865
17021TIP3   OH272477   6.381   3.246  16.363 -0.1773  0.6261  0.1342
17021TIP3    H172478   6.381   3.159  16.323 -1.6011  0.1094  1.1778
17021TIP3    H272479   6.444   3.240  16.435  2.1882  1.4800 -1.7407
17022TIP3   OH272480   4.290   0.222  15.198  0.3211 -0.1891 -0.1585
17022TIP3    H172481   4.201   0.212  15.232  0.0186 -0.8883 -1.0967
17022TIP3    H272482   4.324   0.133  15.193  0.8931  0.0305 -0.2815
17023TIP3   OH272483   0.989   6.722   3.613  0.3270  0.2895  0.1813
17023TIP3    H172484   1.042   6.721   3.534 -0.7482 -1.1788 -0.5772
17023TIP3    H272485   1.029   6.657   3.671 -0.5341 -0.7575 -0.3576
17024TIP3   OH272486   2.946   3.871   0.835  0.2324  0.0377  0.1744
17024TIP3    H172487   2.960   3.938   0.768  0.5255  1.8025  1.9119
17024TIP3    H272488   2.883   3.811   0.796  2.0931 -0.3425 -2.5602
17025TIP3   OH272489   0.982   2.337  13.290 -0.0501 -0.0780  0.1945
17025TIP3    H172490   0.895   2.330  13.251 -0.6378  1.0545  1.2425
17025TIP3    H272491   0.981   2.278  13.365 -0.4301  0.9778  1.0509
17026TIP3   OH272492   4.563   5.557  13.699 -0.0105 -0.1000 -0.3412
17026TIP3    H172493   4.469   5.571  13.708 -0.5086 -2.9672 -0.1293
17026TIP3    H272494   4.590   5.619  13.632 -1.9565  1.0442 -0.1547
17027TIP3   OH272495   1.529   1.547   4.833 -0.0117  0.1158  0.2207
17027TIP3    H172496   1.554   1.613   4.768 -1.1647 -2.1195 -2.6768
17027TIP3    H272497   1.452   1.585   4.876  2.1869  2.7197  2.2819
17028TIP3   OH272498   3.200   4.823   0.972 -0.4061  0.7862 -0.0821
17028TIP3    H172499   3.236   4.846   0.886 -1.5765  0.5337 -0.6574
17028TIP3    H272500   3.246   4.742   0.996  0.2366  1.0884 -0.2660
17029TIP3   OH272501   3.932   1.705  15.359 -0.3943 -0.3433  0.2682
17029TIP3    H172502   4.001   1.704  15.425  0.8230  2.8463 -0.7544
17029TIP3    H272503   3.961   1.644  15.292  0.5954 -0.2961  0.6455
17030TIP3   OH272504   6.515   5.707  11.836  0.0463 -0.0361 -0.2461
17030TIP3    H172505   6.551   5.656  11.763  1.4654  0.9151 -0.2455
17030TIP3    H272506   6.473   5.783  11.794 -0.1844 -0.0935 -0.1235
17031TIP3   OH272507   1.736   4.298   6.950  0.5700 -0.1886  0.5832
17031TIP3    H172508   1.745   4.203   6.941  0.1849 -0.0867 -1.2103
17031TIP3    H272509   1.646   4.316   6.923  0.9093  0.7605  0.0589
17032TIP3   OH272510   3.391   6.360   0.384 -0.1120  0.5778  0.4661
17032TIP3    H172511   3.418   6.317   0.466  1.2830  0.3873 -0.0527
17032TIP3    H272512   3.367   6.448   0.411  0.9442  0.7206  1.0315
17033TIP3   OH272513   4.118   0.891   0.213 -0.0236  0.1346 -0.3677
17033TIP3    H172514   4.094   0.809   0.170  1.2296 -0.0630 -0.7389
17033TIP3    H272515   4.042   0.914   0.266 -1.1038 -0.3032 -1.6804
17034TIP3   OH272516   0.524   6.701   1.784  0.0903 -0.1887  0.6001
17034TIP3    H172517   0.573   6.759   1.843  0.2959 -0.7030  0.9422
17034TIP3    H272518   0.561   6.614   1.799  0.8954 -0.1772 -1.0922
17035TIP3   OH272519   1.439   0.645   2.999  0.3288 -0.0521  0.2065
17035TIP3    H172520   1.477   0.612   2.918  0.8468 -1.6342  1.0754
17035TIP3    H272521   1.452   0.740   2.994 -1.2450  0.1296 -2.3603
17036TIP3   OH272522   1.952   2.698   5.010  0.6505 -0.0312 -0.0624
17036TIP3    H172523   1.876   2.691   5.068 -0.5555 -0.7571 -1.6277
17036TIP3    H272524   1.961   2.792   4.993 -0.5525  0.0115 -0.6096
17037TIP3   OH272525   1.176   1.338   4.839 -0.0388  0.2786  0.3979
17037TIP3    H172526   1.182   1.278   4.912 -2.4556 -0.1712  0.3279
17037TIP3    H272527   1.223   1.417   4.867 -1.3818  0.3323  2.6921
17038TIP3   OH272528   1.615   4.021  15.764 -0.3847 -0.9200  0.1086
17038TIP3    H172529   1.645   4.021  15.854  1.8652 -1.1772 -0.5827
17038TIP3    H272530   1.568   4.104  15.754 -0.1731 -0.6424  1.3540
17039TIP3   OH272531   5.596   6.210  13.529 -0.2035  0.2083 -0.0475
17039TIP3    H172532   5.679   6.213  13.483 -0.3621  3.2019 -0.3711
17039TIP3    H272533   5.588   6.120  13.561  2.6589 -0.4014 -0.8336
17040TIP3   OH272534   3.403   1.493  12.882 -0.2159 -0.2079 -0.3779
17040TIP3    H172535   3.430   1.405  12.910  1.6490  0.3636 -0.2549
17040TIP3    H272536   3.441   1.502  12.794  0.0154  0.6548 -0.1931
17041TIP3   OH272537   1.175   1.954   1.615  0.2824  0.2647  0.1516
17041TIP3    H172538   1.173   2.034   1.668  1.4828  0.4552 -0.0618
17041TIP3    H272539   1.083   1.933   1.600 -0.0588  0.9039  1.2548
17042TIP3   OH272540   6.358   1.003   0.606  0.0873  0.1955  0.2410
17042TIP3    H172541   6.446   0.967   0.597  0.5822  0.5786  2.9102
17042TIP3    H272542   6.302   0.944   0.554  1.5667 -1.4437  0.4475
17043TIP3   OH272543   1.229   3.082   4.992 -0.2040  0.0336 -0.2086
17043TIP3    H172544   1.246   3.025   5.067  0.7282  0.1283 -0.3367
17043TIP3    H272545   1.233   3.171   5.028  1.1041  0.1235 -0.4943
17044TIP3   OH272546   0.131   5.718   1.479  0.7339  0.1613  0.7668
17044TIP3    H172547   0.220   5.749   1.494  1.2245 -1.3201  1.1021
17044TIP3    H272548   0.104   5.680   1.562  0.6000 -1.3111  0.0767
17045TIP3   OH272549   2.776   2.519   0.645 -0.5278 -0.4167 -0.3996
17045TIP3    H172550   2.777   2.480   0.732  2.4386  1.1205  0.3829
17045TIP3    H272551   2.847   2.474   0.598 -0.8212  0.1195 -1.3795
17046TIP3   OH272552   1.682   1.564   1.796  0.1175 -0.2068 -0.1974
17046TIP3    H172553   1.604   1.527   1.836 -1.1318  0.3378 -1.9682
17046TIP3    H272554   1.706   1.638   1.852  0.1300 -1.1233  1.0379
17047TIP3   OH272555   4.544   5.740  14.678  0.3093  0.1141  0.4179
17047TIP3    H172556   4.610   5.755  14.610 -0.5772 -2.0380 -1.0372
17047TIP3    H272557   4.592   5.751  14.760  2.0052  0.4923 -0.5734
17048TIP3   OH272558   5.754   4.620   2.520  0.4412 -0.4302 -0.2931
17048TIP3    H172559   5.704   4.654   2.446 -1.7354  0.1235  1.2964
17048TIP3    H272560   5.755   4.526   2.508  0.6590 -0.3109 -1.3152
17049TIP3   OH272561   6.595   6.454   4.104 -0.0646 -0.6004  0.2787
17049TIP3    H172562   6.636   6.409   4.178 -1.6021 -1.4477  0.6649
17049TIP3    H272563   6.519   6.400   4.083 -1.0738  0.9859 -0.2970
17050TIP3   OH272564   2.366   4.583  13.071 -0.3775 -0.0597 -0.0330
17050TIP3    H172565   2.327   4.661  13.033  0.4626  0.0234 -0.7596
17050TIP3    H272566   2.460   4.596  13.062 -0.2319 -1.7775 -1.5080
17051TIP3   OH272567   0.053   1.548  14.016 -0.1004 -0.6795 -0.2865
17051TIP3    H172568   0.022   1.462  14.045  1.6617 -1.3037 -0.1576
17051TIP3    H272569   0.044   1.547  13.921  0.5802 -1.3058 -0.3527
17052TIP3   OH272570   5.733   0.239  15.309  0.0404  0.5983 -0.4868
17052TIP3    H172571   5.699   0.227  15.220  0.9591 -0.1919 -0.7408
17052TIP3    H272572   5.828   0.231  15.301  0.0760 -0.8252  0.7503
17053TIP3   OH272573   4.354   6.001   2.565  0.1370  0.2460 -0.1929
17053TIP3    H172574   4.344   6.073   2.502  1.8764  1.3256  0.6718
17053TIP3    H272575   4.285   6.016   2.630 -0.5289  0.1775 -0.8784
17054TIP3   OH272576   1.006   2.643   5.739 -0.4742 -0.0039 -0.0261
17054TIP3    H172577   1.087   2.596   5.762 -0.6413 -0.8572 -1.0873
17054TIP3    H272578   1.024   2.679   5.652 -0.6817  1.1709  0.3966
17055TIP3   OH272579   6.144   3.709   1.443 -0.6030 -0.0953 -0.2178
17055TIP3    H172580   6.209   3.777   1.423  0.1735 -0.7985 -0.1415
17055TIP3    H272581   6.187   3.654   1.508 -1.0706 -0.8863 -0.5660
17056TIP3   OH272582   1.036   6.025   2.801  0.5332  0.1431 -0.5101
17056TIP3    H172583   1.032   6.078   2.881  0.1809  1.6206 -1.4682
17056TIP3    H272584   1.098   5.956   2.821 -0.6487 -0.4097  1.5440
17057TIP3   OH272585   5.736   3.783  12.954  0.3415 -0.1577  0.7208
17057TIP3    H172586   5.823   3.809  12.983  2.4721 -1.1232 -3.8825
17057TIP3    H272587   5.705   3.857  12.901 -0.3169 -0.9204  0.0058
17058TIP3   OH272588   3.596   5.947  16.949 -0.5964 -0.1292 -0.1184
17058TIP3    H172589   3.579   5.854  16.963 -1.6496 -0.0170 -0.5202
17058TIP3    H272590   3.520   5.977  16.899 -0.6120  1.1002  0.6101
17059TIP3   OH272591   3.277   4.530  10.974  0.2233  0.0411 -0.3860
17059TIP3    H172592   3.184   4.520  10.994  0.0788 -0.0451 -1.0940
17059TIP3    H272593   3.280   4.577  10.891  0.8060 -0.0802 -0.4421
17060TIP3   OH272594   0.568   5.226  11.850 -0.3387  0.0805 -0.3612
17060TIP3    H172595   0.490   5.186  11.813 -0.0042 -0.0215 -0.9746
17060TIP3    H272596   0.543   5.317  11.867 -0.4446  0.1770 -1.0214
17061TIP3   OH272597   5.178   6.437  15.795 -0.5103  0.1805  0.2452
17061TIP3    H172598   5.090   6.407  15.820  0.3659 -1.4678  1.6486
17061TIP3    H272599   5.230   6.422  15.874  0.7609  2.5028 -0.0747
17062TIP3   OH272600   6.670   0.129   3.948 -0.4991  0.6524 -0.2986
17062TIP3    H172601   6.633   0.046   3.978  1.8753  0.0420  1.2197
17062TIP3    H272602   6.594   0.185   3.932 -2.0908 -0.8968  1.3510
17063TIP3   OH272603   2.540   5.627  12.382  0.2789  0.2211  0.0223
17063TIP3    H172604   2.582   5.584  12.457  0.7300 -1.2039 -1.0066
17063TIP3    H272605   2.468   5.569  12.359 -0.2605  0.9890 -0.2577
17064TIP3   OH272606   3.584   6.672   0.528  0.0851 -0.1525  0.2899
17064TIP3    H172607   3.652   6.738   0.521  0.5779 -0.7981 -1.5895
17064TIP3    H272608   3.505   6.721   0.552  0.8982  0.7743  1.1805
17065TIP3   OH272609   6.138   5.356  16.717 -0.5380  0.1568 -0.4558
17065TIP3    H172610   6.091   5.287  16.764  0.1344 -1.4073 -1.9816
17065TIP3    H272611   6.230   5.343  16.740 -0.2424 -0.4006 -1.8776
17066TIP3   OH272612   5.291   2.935  11.337 -0.6760  0.5513 -0.2301
17066TIP3    H172613   5.208   2.888  11.327 -0.1826 -0.6408  1.0051
17066TIP3    H272614   5.340   2.916  11.256  0.1980 -2.5663  0.9090
17067TIP3   OH272615   0.275   0.605  13.423 -0.4576 -0.5791  0.3471
17067TIP3    H172616   0.191   0.648  13.410  0.7478  2.3424  1.4589
17067TIP3    H272617   0.334   0.648  13.362  0.3432 -2.5045 -0.3312
17068TIP3   OH272618   6.319   6.541  11.983  0.1516 -0.1266 -0.4301
17068TIP3    H172619   6.299   6.461  11.935 -1.4800 -1.1418  1.7725
17068TIP3    H272620   6.239   6.593  11.978  0.7058  0.7365 -0.5963
17069TIP3   OH272621   4.033   1.095  15.895 -0.2801  0.8025  0.1328
17069TIP3    H172622   3.941   1.071  15.905 -0.0279  0.1519  1.0513
17069TIP3    H272623   4.073   1.072  15.979  0.5868  1.7070 -0.0130
17070TIP3   OH272624   6.183   2.387   1.889 -0.0937  0.2400 -0.3518
17070TIP3    H172625   6.195   2.394   1.984  1.7000 -3.5665 -0.1136
17070TIP3    H272626   6.094   2.353   1.879 -0.2103  0.4412 -0.0224
17071TIP3   OH272627   0.613   5.741  15.599 -0.1170 -0.6235 -0.4235
17071TIP3    H172628   0.662   5.663  15.627  0.6200 -0.2197 -0.5568
17071TIP3    H272629   0.678   5.793  15.551 -0.7387 -0.1728 -0.7808
17072TIP3   OH272630   4.690   2.634  15.373 -0.0024 -0.0845 -0.7529
17072TIP3    H172631   4.606   2.593  15.348  0.7615 -0.7288 -2.4072
17072TIP3    H272632   4.694   2.714  15.321  0.4292 -0.0773 -0.7126
17073TIP3   OH272633   2.484   1.875  17.117 -0.1983 -0.6174 -0.5626
17073TIP3    H172634   2.576   1.898  17.133 -0.0914 -1.2280 -0.2545
17073TIP3    H272635   2.460   1.925  17.040 -0.0642  0.7197  0.2306
17074TIP3   OH272636   4.658   1.599   3.296  0.0921  0.0018 -0.1599
17074TIP3    H172637   4.608   1.677   3.321  2.3870  0.9618  1.8210
17074TIP3    H272638   4.603   1.526   3.325 -1.3239  0.8901 -0.4803
17075TIP3   OH272639   2.091   4.357   5.849  0.6717 -0.7679  0.6015
17075TIP3    H172640   2.070   4.333   5.939  0.9888 -0.6465  0.7094
17075TIP3    H272641   2.049   4.442   5.837  1.1599 -0.4841  0.8455
17076TIP3   OH272642   1.260   1.163   1.438 -0.2072  0.5665 -0.5546
17076TIP3    H172643   1.267   1.086   1.495 -0.3262  0.8362 -0.1740
17076TIP3    H272644   1.310   1.139   1.359 -0.2814  0.0837 -0.4587
17077TIP3   OH272645   1.090   6.375   4.874 -0.5213  0.4705  0.0506
17077TIP3    H172646   1.183   6.358   4.863 -0.1830  0.3705  2.5223
17077TIP3    H272647   1.049   6.288   4.866  0.0079 -0.0197  2.0856
17078TIP3   OH272648   0.894   3.318   2.217  0.3926  0.2810  0.2350
17078TIP3    H172649   0.948   3.348   2.290 -1.0020  2.5872  0.4478
17078TIP3    H272650   0.818   3.278   2.258  0.2130  0.4027  0.0229
17079TIP3   OH272651   5.532   2.905   2.040  0.0917  0.2853 -0.5090
17079TIP3    H172652   5.604   2.916   1.979 -0.2414  0.6293 -0.8509
17079TIP3    H272653   5.484   2.988   2.036  0.8270  0.8323  1.2292
17080TIP3   OH272654   0.410   1.141  15.917  0.1493 -0.6907 -0.8005
17080TIP3    H172655   0.325   1.107  15.887 -0.7069 -0.5957  1.3226
17080TIP3    H272656   0.434   1.207  15.852 -0.7479 -1.6282 -2.1425
17081TIP3   OH272657   5.457   6.216  14.862 -0.0146 -0.3224 -0.0388
17081TIP3    H172658   5.467   6.175  14.776 -0.0198  0.6531 -0.5094
17081TIP3    H272659   5.363   6.236  14.868  0.0346 -0.1310  0.0798
17082TIP3   OH272660   5.897   4.244   4.886  0.3848 -0.1236 -0.1317
17082TIP3    H172661   5.821   4.193   4.913 -0.5878  0.9059 -0.8698
17082TIP3    H272662   5.954   4.245   4.963 -1.7742  1.7402  1.5705
17083TIP3   OH272663   3.682   1.525  14.730 -0.1006 -0.4856  0.4243
17083TIP3    H172664   3.751   1.467  14.761  1.2044  1.3665  1.1432
17083TIP3    H272665   3.725   1.609  14.717 -1.8647  0.2954 -0.8461
17084TIP3   OH272666   3.327   0.196  11.295  0.1455  0.6051  0.3289
17084TIP3    H172667   3.266   0.239  11.356 -0.7055  0.2385 -0.2331
17084TIP3    H272668   3.408   0.245  11.303 -0.4176  1.5116  0.6302
17085TIP3   OH272669   3.020   0.898   2.259  0.0281  0.3521 -0.5386
17085TIP3    H172670   3.034   0.811   2.222  1.6330  0.8105 -1.0865
17085TIP3    H272671   2.988   0.951   2.186 -1.5050  0.1294 -0.0757
17086TIP3   OH272672   1.516   1.094  12.015 -0.2571 -0.0270 -0.4424
17086TIP3    H172673   1.564   1.123  11.938 -2.2363 -1.8769 -2.4876
17086TIP3    H272674   1.583   1.056  12.072  0.9952 -0.7794 -2.3200
17087TIP3   OH272675   0.867   4.850  11.018 -0.8030 -0.2132 -0.5784
17087TIP3    H172676   0.882   4.873  10.926  1.3433 -0.5588 -0.3640
17087TIP3    H272677   0.953   4.823  11.050 -1.7586 -1.2852  1.2140
17088TIP3   OH272678   0.420   6.255  12.944  0.1278 -0.2350  0.1673
17088TIP3    H172679   0.344   6.229  12.997 -0.6801  1.8486  0.1080
17088TIP3    H272680   0.489   6.273  13.007  0.6565 -2.2273  0.2191
17089TIP3   OH272681   6.316   5.162  16.184  0.3329 -0.0489  0.3175
17089TIP3    H172682   6.260   5.231  16.219  1.1086  0.1701  1.1658
17089TIP3    H272683   6.330   5.187  16.093  0.6161  0.9219  0.6154
17090TIP3   OH272684   0.837   2.739   5.116 -0.3016 -0.0736  0.1768
17090TIP3    H172685   0.797   2.822   5.091 -0.1890 -0.2829 -0.7615
17090TIP3    H272686   0.911   2.763   5.171  0.4683  0.5352 -1.0817
17091TIP3   OH272687   5.434   1.343  11.722 -0.3991 -0.9906  0.1598
17091TIP3    H172688   5.468   1.432  11.733 -3.6204  0.3797  0.4868
17091TIP3    H272689   5.511   1.288  11.714  1.8580  1.4647  2.7562
17092TIP3   OH272690   1.122   0.021  15.700  0.3894 -0.4612 -0.4250
17092TIP3    H172691   1.201  -0.034  15.700  0.9452  0.2571 -2.2946
17092TIP3    H272692   1.067  -0.018  15.632 -2.0954 -2.4758  2.4287
17093TIP3   OH272693   1.289   5.546   4.078 -0.0321 -0.1035  0.6329
17093TIP3    H172694   1.278   5.621   4.019 -0.5937  0.0053  0.8676
17093TIP3    H272695   1.281   5.583   4.166  0.3005 -0.3440  0.7685
17094TIP3   OH272696   1.257   0.307  13.094  0.0344 -0.0784  0.7070
17094TIP3    H172697   1.321   0.353  13.040 -0.2103  2.3540  2.3590
17094TIP3    H272698   1.299   0.298  13.180 -1.3874  0.5816  1.5140
17095TIP3   OH272699   1.870   6.353  14.758 -0.1077 -0.5846  0.0113
17095TIP3    H172700   1.803   6.367  14.825  0.1490 -1.0277  0.3641
17095TIP3    H272701   1.937   6.300  14.801  0.8657  0.5216 -0.0912
17096TIP3   OH272702   5.183   6.754   1.941  0.4283  0.5353 -0.4306
17096TIP3    H172703   5.214   6.664   1.928 -0.9721 -0.1363  0.6353
17096TIP3    H272704   5.087   6.747   1.940  0.2975  2.0139 -0.3054
17097TIP3   OH272705   1.367   0.676   3.819  0.2365  0.2380 -0.2434
17097TIP3    H172706   1.413   0.681   3.903 -0.0875 -0.6849  0.0109
17097TIP3    H272707   1.298   0.611   3.834  1.1909 -1.1780 -1.6903
17098TIP3   OH272708   4.804   6.142  12.482  0.3860  0.7829 -0.2566
17098TIP3    H172709   4.871   6.088  12.439 -0.2091  0.2972 -0.5946
17098TIP3    H272710   4.726   6.086  12.484  0.2873  0.9401  1.1140
17099TIP3   OH272711   0.772   1.612  11.902 -0.1171  0.2109 -0.1564
17099TIP3    H172712   0.833   1.685  11.894 -0.6759  0.6687 -0.3414
17099TIP3    H272713   0.716   1.620  11.824  1.1889 -1.7214 -1.3890
17100TIP3   OH272714   1.422   4.251  11.773  0.2046  0.2048 -0.7202
17100TIP3    H172715   1.357   4.236  11.704  1.3389  2.2113 -2.3444
17100TIP3    H272716   1.457   4.164  11.792 -0.9702 -0.5443 -1.8329
17101TIP3   OH272717   6.021   2.784  11.784  0.0970 -0.9775 -0.4878
17101TIP3    H172718   5.960   2.858  11.788  0.1880 -0.9552  1.1066
17101TIP3    H272719   5.967   2.709  11.809  0.2777 -1.2753 -0.9849
17102TIP3   OH272720   3.811   4.433   5.255  0.1419 -0.1107 -0.5013
17102TIP3    H172721   3.852   4.448   5.169  2.2365  0.8133  0.5739
17102TIP3    H272722   3.793   4.521   5.289 -1.8271 -0.4954 -0.4832
17103TIP3   OH272723   3.015   0.241   5.347  0.1581 -0.1396  0.5873
17103TIP3    H172724   2.976   0.316   5.302 -0.3261 -0.5420  0.3229
17103TIP3    H272725   2.957   0.226   5.422  0.8893  0.4486  1.2894
17104TIP3   OH272726   2.238   2.787   3.958  0.2778 -0.0124 -0.0618
17104TIP3    H172727   2.168   2.843   3.925 -0.2167 -1.2658 -1.2264
17104TIP3    H272728   2.307   2.793   3.893  0.9859  0.6682  0.7339
17105TIP3   OH272729   1.456   4.075   1.413 -0.8228 -0.3826  0.6171
17105TIP3    H172730   1.506   4.052   1.491 -0.0572  0.9783  0.5724
17105TIP3    H272731   1.447   4.170   1.419 -2.3843 -0.4697 -0.0029
17106TIP3   OH272732   6.756   1.969  11.867 -0.0925 -0.2712  0.3539
17106TIP3    H172733   6.821   1.968  11.937 -0.1827  0.2706  0.4496
17106TIP3    H272734   6.677   2.004  11.907  0.3755  1.8579 -0.4355
17107TIP3   OH272735   3.758   3.866  14.139 -0.3078 -0.3294 -0.1297
17107TIP3    H172736   3.813   3.789  14.154  0.6028  0.4872  0.8935
17107TIP3    H272737   3.686   3.855  14.200  0.7030  0.4291  1.2536
17108TIP3   OH272738   2.613   5.960  15.528 -0.3326  0.6051 -0.1648
17108TIP3    H172739   2.646   5.975  15.617  1.7966  0.8068 -0.9196
17108TIP3    H272740   2.636   5.869  15.509  2.3595  1.4716 -1.6342
17109TIP3   OH272741   4.083   1.716   5.658  0.1322  0.0724  0.5467
17109TIP3    H172742   4.094   1.683   5.569  0.4116 -1.3180  1.0783
17109TIP3    H272743   3.990   1.735   5.666 -0.1422 -1.1287  0.3891
17110TIP3   OH272744   2.605   5.533   2.137  0.0916 -0.0699 -0.2798
17110TIP3    H172745   2.560   5.512   2.219 -0.4434 -2.0228 -1.0153
17110TIP3    H272746   2.623   5.627   2.142  0.9324 -0.3123  2.4685
17111TIP3   OH272747   2.741   5.289   4.693  0.2718  0.2888  0.4652
17111TIP3    H172748   2.689   5.335   4.758 -0.2125  1.0353 -0.4240
17111TIP3    H272749   2.811   5.350   4.670 -0.1995  0.4830 -0.5053
17112TIP3   OH272750   0.321   1.796  13.804  0.2720 -0.2733 -0.0786
17112TIP3    H172751   0.333   1.890  13.819  0.3500 -0.2026 -0.5549
17112TIP3    H272752   0.237   1.790  13.759 -0.3749 -0.5574  1.1223
17113TIP3   OH272753   6.265   2.123  11.411 -0.2526  0.4465 -0.0064
17113TIP3    H172754   6.286   2.113  11.318  0.2873  0.7387  0.0736
17113TIP3    H272755   6.198   2.057  11.428  1.3583 -1.2920 -0.0583
17114TIP3   OH272756   5.024   5.143   3.328  0.1543  0.2519  0.0183
17114TIP3    H172757   4.990   5.084   3.260 -1.7550 -0.0255  1.1555
17114TIP3    H272758   4.967   5.219   3.324 -1.2771 -0.5746  2.5232
17115TIP3   OH272759   5.217   3.082  11.563  0.0660 -0.0026  0.5846
17115TIP3    H172760   5.279   3.013  11.539  0.9050  1.4013 -1.5730
17115TIP3    H272761   5.138   3.062  11.513  0.5703  0.9655 -0.6397
17116TIP3   OH272762   0.809   4.122   3.972  0.0823 -0.4155 -0.4424
17116TIP3    H172763   0.734   4.104   3.915 -1.6941 -3.0987  2.4037
17116TIP3    H272764   0.769   4.143   4.057  2.6132  1.0456  0.4922
17117TIP3   OH272765   3.934   4.221   2.109  0.4344 -0.0093 -0.5152
17117TIP3    H172766   3.884   4.140   2.123 -1.1033  0.4260 -2.7866
17117TIP3    H272767   3.894   4.285   2.167  0.8496 -0.5662  0.4009
17118TIP3   OH272768   3.165   1.956   4.616 -0.1824 -0.1835  0.1540
17118TIP3    H172769   3.198   1.915   4.695  0.0095 -2.3026 -0.9486
17118TIP3    H272770   3.075   1.925   4.608 -0.2349  0.0853 -0.4051
17119TIP3   OH272771   4.581   0.762  14.302 -0.3699  0.5537 -0.4436
17119TIP3    H172772   4.492   0.770  14.337 -0.1918 -0.0782  0.1773
17119TIP3    H272773   4.572   0.707  14.225 -0.2231 -1.4815  0.9213
17120TIP3   OH272774   3.140   6.200   1.462  0.3625  0.1325  0.1871
17120TIP3    H172775   3.232   6.218   1.480  0.8327  0.9815 -2.6828
17120TIP3    H272776   3.094   6.278   1.494  0.7155  0.1128  0.7642
17121TIP3   OH272777   1.184   4.598   0.232  0.1886 -0.2580  0.0527
17121TIP3    H172778   1.104   4.637   0.196 -0.5135 -1.3445  0.3781
17121TIP3    H272779   1.228   4.560   0.156  1.0722  1.4216 -0.3294
17122TIP3   OH272780   6.671   0.667   3.023 -0.3065 -0.0171 -0.2704
17122TIP3    H172781   6.591   0.633   2.982 -0.2182 -0.7282  0.1338
17122TIP3    H272782   6.734   0.596   3.014  0.4971  0.7760 -1.1799
17123TIP3   OH272783   4.179   4.794  14.288  0.0384  0.2030  0.2467
17123TIP3    H172784   4.267   4.815  14.256 -0.0170  0.2167  0.1021
17123TIP3    H272785   4.191   4.717  14.343  0.2260  0.5360  0.6768
17124TIP3   OH272786   6.443   2.800  13.875 -0.1365 -0.1335  0.2435
17124TIP3    H172787   6.348   2.806  13.886 -0.0482 -0.7743  1.6386
17124TIP3    H272788   6.458   2.710  13.846 -0.0153  0.2830 -1.0384
17125TIP3   OH272789   0.526   6.580   2.130  0.2594 -0.2055  0.0706
17125TIP3    H172790   0.447   6.630   2.147  0.1027 -0.1516 -0.7867
17125TIP3    H272791   0.577   6.635   2.070  0.5078 -0.6538 -0.1391
17126TIP3   OH272792   3.689   1.182   2.242 -0.5644 -0.3321  0.1098
17126TIP3    H172793   3.731   1.097   2.255 -1.6653 -0.5682  2.8020
17126TIP3    H272794   3.638   1.196   2.322  0.2991  3.2988  0.1997
17127TIP3   OH272795   2.140   5.365   3.785 -0.4573  0.5258  0.4512
17127TIP3    H172796   2.130   5.345   3.878 -0.2577  0.8137  0.5347
17127TIP3    H272797   2.216   5.313   3.758  0.5512  1.7446  0.8510
17128TIP3   OH272798   2.860   2.605   5.051  0.2287  0.3222 -0.0298
17128TIP3    H172799   2.790   2.670   5.066 -0.2485 -0.6338  2.2630
17128TIP3    H272800   2.817   2.536   5.000 -0.6035 -0.2993  1.4349
17129TIP3   OH272801   3.892   6.017   6.502 -0.0750 -0.8166  0.2324
17129TIP3    H172802   3.872   6.041   6.593  0.9686  1.0580  0.0096
17129TIP3    H272803   3.816   6.048   6.452  0.1227 -0.2771  0.2623
17130TIP3   OH272804   4.570   3.764   3.462 -0.0084  0.1549 -0.1909
17130TIP3    H172805   4.661   3.779   3.436 -1.0676  3.7266 -2.6623
17130TIP3    H272806   4.540   3.694   3.404  0.6880  0.2798 -0.7198
17131TIP3   OH272807   5.690   0.021  16.104 -0.2802 -0.1279 -0.2665
17131TIP3    H172808   5.610  -0.005  16.057  1.0789  0.3565 -3.0632
17131TIP3    H272809   5.757   0.025  16.036  1.8056  0.9924  1.7307
17132TIP3   OH272810   4.874   5.648   5.349  0.4828  0.0650 -0.4123
17132TIP3    H172811   4.802   5.603   5.394  0.7922  0.8897  0.9584
17132TIP3    H272812   4.834   5.727   5.312  0.8185  1.0372  1.1892
17133TIP3   OH272813   3.736   5.065  12.573  0.0215  0.0618 -0.3183
17133TIP3    H172814   3.652   5.109  12.586  0.2448  0.3815  0.0464
17133TIP3    H272815   3.776   5.112  12.500  0.6089  0.9838  0.5905
17134TIP3   OH272816   6.372   6.025  16.344 -0.3875  0.3699  0.1294
17134TIP3    H172817   6.368   6.082  16.420  0.1407 -0.2945  0.6700
17134TIP3    H272818   6.462   5.991  16.344 -0.5923 -0.1942 -0.3745
17135TIP3   OH272819   3.068   6.547   1.697  0.5633  0.4094 -0.1832
17135TIP3    H172820   3.145   6.601   1.679  0.6219  0.5184  0.3647
17135TIP3    H272821   3.003   6.609   1.731  0.3815  0.2513 -0.2443
17136TIP3   OH272822   1.735   4.476  10.963  0.5978  0.6896  0.3377
17136TIP3    H172823   1.820   4.432  10.957 -0.1461 -0.9711  1.0798
17136TIP3    H272824   1.730   4.507  11.053  0.6926  1.3900  0.1032
17137TIP3   OH272825   5.145   2.199  17.240 -0.1149  0.0541 -0.6298
17137TIP3    H172826   5.105   2.116  17.217  0.1120  0.0237 -0.9245
17137TIP3    H272827   5.183   2.185  17.327  1.9601 -0.8935 -1.6173
17138TIP3   OH272828   1.648   0.847  14.560  0.2863  0.0782  0.5934
17138TIP3    H172829   1.735   0.806  14.556 -0.5424 -1.9073  1.5752
17138TIP3    H272830   1.608   0.825  14.476  0.2489 -0.1440  0.6697
17139TIP3   OH272831   5.072   3.497  14.687 -0.6627  0.3532 -0.3299
17139TIP3    H172832   5.014   3.526  14.757 -1.5914  0.5871 -1.1755
17139TIP3    H272833   5.130   3.572  14.671 -1.0599  0.6395 -0.4403
17140TIP3   OH272834   4.391   6.745  15.247  0.5188 -0.4002  0.2650
17140TIP3    H172835   4.387   6.662  15.294 -2.8703 -1.4212 -1.4790
17140TIP3    H272836   4.470   6.788  15.280  1.7452 -3.7360  2.1305
17141TIP3   OH272837   2.762   1.697   3.195  0.0614 -0.0641  0.0834
17141TIP3    H172838   2.674   1.660   3.181  0.3154 -1.0302  0.8919
17141TIP3    H272839   2.811   1.671   3.117 -0.1356 -0.2950  0.0336
17142TIP3   OH272840   0.368   2.686  14.423  0.2188 -0.1353 -0.1396
17142TIP3    H172841   0.288   2.684  14.475  0.0275 -1.0891 -0.4404
17142TIP3    H272842   0.365   2.605  14.371  2.0383 -0.9100  0.8364
17143TIP3   OH272843   1.162   6.497  17.002 -0.0684 -0.0765 -0.4776
17143TIP3    H172844   1.166   6.417  16.950 -1.1867 -1.0897  0.9174
17143TIP3    H272845   1.102   6.476  17.073  1.3956  1.2510  1.2314
17144TIP3   OH272846   2.102   3.176   2.965  0.6485  0.4586 -0.4023
17144TIP3    H172847   2.077   3.130   2.884 -0.0384  1.9350 -1.0742
17144TIP3    H272848   2.021   3.182   3.015  0.8412  0.4997 -0.0931
17145TIP3   OH272849   3.817   5.663   2.094 -0.1525 -0.3983 -0.0011
17145TIP3    H172850   3.836   5.584   2.044 -0.4432  0.2075 -1.0993
17145TIP3    H272851   3.886   5.725   2.068  2.3384 -1.3466  3.5458
17146TIP3   OH272852   6.170   6.525   2.940 -0.2021 -0.1606  0.6840
17146TIP3    H172853   6.245   6.572   2.904  0.2547  0.4975  2.3706
17146TIP3    H272854   6.159   6.450   2.882  3.7184 -2.0283  1.9673
17147TIP3   OH272855   5.266   5.718  13.977 -0.1563 -0.3621 -0.7031
17147TIP3    H172856   5.241   5.804  13.944  0.4963  0.8804  1.8125
17147TIP3    H272857   5.296   5.734  14.066  0.6622 -3.1189 -0.3897
17148TIP3   OH272858   3.660   5.755  12.425  0.0723  0.5109  0.3400
17148TIP3    H172859   3.728   5.786  12.485  0.6327 -1.2395  0.6728
17148TIP3    H272860   3.589   5.726  12.481  0.6656 -1.2904  0.2429
17149TIP3   OH272861   5.498   4.679   5.646 -0.3713  0.6072 -0.1334
17149TIP3    H172862   5.533   4.757   5.603  1.0667 -0.2341 -0.5910
17149TIP3    H272863   5.539   4.606   5.598  1.2518 -0.3832  2.5340
17150TIP3   OH272864   1.406   5.255  14.235  0.4556  0.1227 -0.5821
17150TIP3    H172865   1.420   5.266  14.329  0.1397 -0.9666 -0.3905
17150TIP3    H272866   1.315   5.280  14.220 -0.5670 -2.8848  0.0183
17151TIP3   OH272867   2.549   4.836  14.701  0.3721  0.3004 -0.6581
17151TIP3    H172868   2.637   4.870  14.715 -0.1317  1.0363  0.9393
17151TIP3    H272869   2.562   4.746  14.671  1.6613  0.4951 -0.7414
17152TIP3   OH272870   0.100   5.653   4.328  0.0767 -0.0067  0.2084
17152TIP3    H172871   0.101   5.558   4.316 -1.3771 -0.0992  0.6694
17152TIP3    H272872   0.028   5.669   4.389 -0.1488  1.4545 -0.4034
17153TIP3   OH272873   4.505   2.149  12.061  0.0691  0.4537 -0.7999
17153TIP3    H172874   4.483   2.111  11.976 -5.2824 -0.1489  0.4494
17153TIP3    H272875   4.538   2.075  12.112 -0.3380 -0.0948 -1.3125
17154TIP3   OH272876   1.457   2.965   3.556 -0.3166  0.3913  0.0757
17154TIP3    H172877   1.406   2.903   3.607 -1.9000  0.0984 -1.7366
17154TIP3    H272878   1.535   2.981   3.608 -1.0051 -1.2429  1.7088
17155TIP3   OH272879   0.989   3.546  11.504 -0.1503 -0.0857 -0.4435
17155TIP3    H172880   1.019   3.591  11.425  1.3349  0.8702  0.6117
17155TIP3    H272881   0.972   3.615  11.567 -1.7440 -0.8150 -0.0229
17156TIP3   OH272882   5.754   5.239   0.673 -0.1839 -0.0318 -0.1589
17156TIP3    H172883   5.713   5.307   0.725 -0.8114 -0.7487  0.2985
17156TIP3    H272884   5.832   5.281   0.636 -0.6445  0.9743 -0.0215
17157TIP3   OH272885   5.433   6.685   2.958 -0.0406  0.1410 -0.8319
17157TIP3    H172886   5.400   6.665   3.045  2.2600 -1.1085 -0.1502
17157TIP3    H272887   5.359   6.726   2.913 -1.5895 -0.0406  1.3694
17158TIP3   OH272888   0.425   1.108  11.913  0.5176  0.3993  0.1187
17158TIP3    H172889   0.415   1.080  11.822 -0.9623 -0.6709  0.5705
17158TIP3    H272890   0.426   1.203  11.908  0.3355  0.3619 -1.0122
17159TIP3   OH272891   3.834   3.350   4.867 -0.2194  0.2764 -1.0380
17159TIP3    H172892   3.881   3.268   4.877 -0.9565 -0.0740 -0.3502
17159TIP3    H272893   3.885   3.413   4.918  0.2443  0.2145 -1.4158
17160TIP3   OH272894   5.424   0.133  14.944  0.2189  0.2000  0.4044
17160TIP3    H172895   5.421   0.080  15.024  2.1240  2.3674  2.0523
17160TIP3    H272896   5.514   0.165  14.940  0.1341  0.3552 -2.5534
17161TIP3   OH272897   2.182   1.628  15.230  0.0063  0.0343 -0.5993
17161TIP3    H172898   2.091   1.649  15.210  0.1515  2.1769  0.6818
17161TIP3    H272899   2.179   1.541  15.271 -1.4942  0.2157 -0.2939
17162TIP3   OH272900   1.825   0.035   2.718 -0.0868  0.2350 -0.5074
17162TIP3    H172901   1.750   0.021   2.660 -2.0379 -0.7856  2.1109
17162TIP3    H272902   1.859  -0.053   2.736 -0.4407  0.3882  1.0261
17163TIP3   OH272903   0.019   0.445   1.810 -0.0075 -0.4649 -0.7655
17163TIP3    H172904   0.066   0.433   1.893 -3.6001 -0.8433  1.4271
17163TIP3    H272905   0.026   0.538   1.791 -0.4859 -0.0518  0.9223
17164TIP3   OH272906   2.320   1.557  14.996  0.2259  0.2534  0.5064
17164TIP3    H172907   2.268   1.512  14.930  1.0924  0.8530 -0.6049
17164TIP3    H272908   2.254   1.596  15.054 -0.5465 -0.3504  0.0642
17165TIP3   OH272909   5.826   3.008   4.378  0.3105  0.1003  0.0695
17165TIP3    H172910   5.817   3.037   4.287 -1.6200  0.6130  0.3705
17165TIP3    H272911   5.831   3.089   4.429 -2.7060  0.0410  0.7022
17166TIP3   OH272912   0.448   5.959  14.153 -0.8083 -0.2887  0.1321
17166TIP3    H172913   0.369   5.959  14.207 -0.9836 -1.5671 -0.0915
17166TIP3    H272914   0.504   6.026  14.193 -0.7779 -1.4231  2.1399
17167TIP3   OH272915   1.655   3.278   3.536 -0.2101 -1.1705  0.2350
17167TIP3    H172916   1.728   3.307   3.590 -1.1664  1.2965  0.3005
17167TIP3    H272917   1.583   3.266   3.597 -1.0084  0.6193 -0.2910
17168TIP3   OH272918   5.670   1.619   3.811 -0.1220 -1.0277  0.1905
17168TIP3    H172919   5.751   1.652   3.772 -0.1216  0.9598  1.6954
17168TIP3    H272920   5.601   1.646   3.750  0.0912  0.0593  0.4016
17169TIP3   OH272921   0.345   2.805  11.134  0.0395 -0.8526 -0.9760
17169TIP3    H172922   0.439   2.815  11.119 -0.0445  0.1334 -0.9485
17169TIP3    H272923   0.306   2.821  11.049 -0.2510  1.6275 -0.4533
17170TIP3   OH272924   5.680   3.959  12.746 -0.1922 -0.0283 -0.1654
17170TIP3    H172925   5.639   4.046  12.744 -1.2798 -0.4828  0.9605
17170TIP3    H272926   5.759   3.969  12.694 -0.0961  1.7522  0.2379
17171TIP3   OH272927   2.665   0.804   1.156  0.2169  0.9742 -0.4079
17171TIP3    H172928   2.713   0.724   1.177  1.3352  1.5081 -0.8619
17171TIP3    H272929   2.663   0.806   1.060 -1.3560  0.6060 -0.4147
17172TIP3   OH272930   3.342   4.680   5.249  0.2309  0.3220 -0.9278
17172TIP3    H172931   3.292   4.603   5.276  0.7763  0.1181 -0.4895
17172TIP3    H272932   3.403   4.648   5.182  1.9326 -0.0948  0.7411
17173TIP3   OH272933   5.057   3.837   5.117  0.0294 -0.0159  0.3548
17173TIP3    H172934   5.082   3.750   5.085  2.2673  0.2141  1.3298
17173TIP3    H272935   5.003   3.820   5.193  2.0836 -0.6451  1.7589
17174TIP3   OH272936   4.244   0.131   1.904  0.2730 -0.0134  0.7645
17174TIP3    H172937   4.273   0.168   1.988  2.6485 -1.8938  0.8678
17174TIP3    H272938   4.182   0.063   1.929 -0.1049  0.3715  0.8904
17175TIP3   OH272939   2.192   5.717  14.694 -0.3247  0.5125 -0.1393
17175TIP3    H172940   2.281   5.738  14.722  0.0895 -0.5667 -0.5726
17175TIP3    H272941   2.147   5.691  14.774 -0.1724  0.7976  0.0405
17176TIP3   OH272942   5.366   6.159   4.972 -0.2945 -0.0624 -0.3476
17176TIP3    H172943   5.308   6.200   5.037  0.1274  0.1095 -0.0783
17176TIP3    H272944   5.320   6.079   4.947 -0.6036  0.0202 -0.0590
17177TIP3   OH272945   0.243   6.044   1.991 -0.1544  0.1187  0.4445
17177TIP3    H172946   0.222   6.028   2.083  0.1989  2.3983  0.9927
17177TIP3    H272947   0.280   5.962   1.960  1.7138 -0.1093  2.9419
17178TIP3   OH272948   6.101   3.130   4.515  0.1310  0.6157 -0.4799
17178TIP3    H172949   6.019   3.167   4.483 -0.3932  0.2944  0.4554
17178TIP3    H272950   6.148   3.205   4.552  0.7352  0.9879 -1.9332
17179TIP3   OH272951   6.524   2.706  10.603  0.2047  0.9009  0.1137
17179TIP3    H172952   6.508   2.629  10.658  1.4289 -0.0447 -0.8131
17179TIP3    H272953   6.437   2.737  10.579 -0.3018 -0.8295 -0.3550
17180TIP3   OH272954   3.924   3.798  15.493 -0.3474 -0.4321  0.5408
17180TIP3    H172955   4.015   3.793  15.523 -0.4080 -1.1849  0.6364
17180TIP3    H272956   3.917   3.883  15.449  0.6539 -0.7441 -0.2764
17181TIP3   OH272957   5.151   3.535   3.569 -0.0911  0.2270  0.3277
17181TIP3    H172958   5.132   3.442   3.554  0.8211  0.0023  0.4719
17181TIP3    H272959   5.209   3.535   3.645  2.3967  0.6575 -1.4421
17182TIP3   OH272960   6.362   5.115  12.591  0.0350  0.0010  0.3969
17182TIP3    H172961   6.331   5.043  12.536  1.6892 -0.3215 -0.1669
17182TIP3    H272962   6.338   5.194  12.543  1.6373 -0.2774 -0.9552
17183TIP3   OH272963   0.641   1.037   3.650  0.6021 -0.4147  0.1105
17183TIP3    H172964   0.572   1.039   3.584 -0.4695  0.9683  1.2068
17183TIP3    H272965   0.688   0.956   3.633 -1.8056 -1.8563 -0.1405
17184TIP3   OH272966   2.666   5.173   6.681  0.3746 -0.1745 -0.0078
17184TIP3    H172967   2.670   5.263   6.714  0.1803 -1.3142  3.5924
17184TIP3    H272968   2.573   5.155   6.671  0.3969 -0.1028 -0.3506
17185TIP3   OH272969   4.496   5.806   2.897 -0.1670 -0.1244  0.1386
17185TIP3    H172970   4.456   5.887   2.927  0.2153  0.0605  0.1588
17185TIP3    H272971   4.503   5.752   2.976 -0.8194 -0.3478  0.0439
17186TIP3   OH272972   1.358   2.690  12.411  0.6639 -0.0393  0.0033
17186TIP3    H172973   1.342   2.782  12.392 -1.0829 -0.0906  0.9909
17186TIP3    H272974   1.272   2.649  12.403  1.1369 -1.2869  1.0506
17187TIP3   OH272975   6.209   3.733  11.272  0.4231 -0.2447 -0.0177
17187TIP3    H172976   6.296   3.692  11.272  0.5048 -0.0721 -0.0971
17187TIP3    H272977   6.197   3.762  11.362  0.9458  0.7782 -0.2616
17188TIP3   OH272978   4.682   5.314   3.620 -0.0677  0.1405 -0.1706
17188TIP3    H172979   4.720   5.399   3.595  0.2222 -0.2812 -1.2336
17188TIP3    H272980   4.745   5.276   3.681  1.7543 -0.9215 -2.5537
17189TIP3   OH272981   1.114   1.411  11.435  0.2578 -0.0596  0.6409
17189TIP3    H172982   1.101   1.461  11.355 -0.2426  2.0148  1.9316
17189TIP3    H272983   1.081   1.323  11.414 -0.2008  0.5243 -1.2839
17190TIP3   OH272984   0.101   2.333  14.832 -0.5392  0.7141  0.3123
17190TIP3    H172985   0.097   2.426  14.856  1.0817  0.6800  0.8074
17190TIP3    H272986   0.186   2.323  14.790 -1.6143 -0.1072 -1.8040
17191TIP3   OH272987   5.550   1.555  15.012 -0.0547  0.5183  0.3606
17191TIP3    H172988   5.540   1.607  15.092 -1.2886 -0.8268  1.1256
17191TIP3    H272989   5.602   1.479  15.040  0.5231  0.6187 -0.4170
17192TIP3   OH272990   6.444   2.256   1.835  0.1747 -0.0005  0.0045
17192TIP3    H172991   6.397   2.289   1.758  1.0311  1.0887 -0.0692
17192TIP3    H272992   6.477   2.334   1.879  2.5364 -0.7238 -0.3444
17193TIP3   OH272993   6.118   6.361  10.472 -0.1306 -0.3007 -0.4436
17193TIP3    H172994   6.048   6.300  10.448  0.1861  0.1060 -2.5459
17193TIP3    H272995   6.192   6.304  10.494 -0.5094 -0.6986 -0.1715
17194TIP3   OH272996   5.772   5.951  16.505 -0.0538  0.4379  0.0862
17194TIP3    H172997   5.701   5.990  16.557 -1.2656 -0.4440 -0.8249
17194TIP3    H272998   5.796   5.872  16.553 -1.2906 -0.4676 -0.7259
17195TIP3   OH272999   4.569   3.286  13.366  0.1468  0.5322  0.4667
17195TIP3    H173000   4.486   3.330  13.388 -0.3776  0.1792 -0.6999
17195TIP3    H273001   4.635   3.332  13.418 -0.5441  1.9924  0.1173
17196TIP3   OH273002   3.174   2.791  12.755  0.0214 -0.1856  0.0775
17196TIP3    H173003   3.142   2.748  12.833  0.2138  2.5884  1.8308
17196TIP3    H273004   3.269   2.792  12.765  0.1258 -0.6870 -0.7298
17197TIP3   OH273005   5.158   1.538  13.601  0.2660  0.1559 -0.2509
17197TIP3    H173006   5.087   1.507  13.545  0.6068  0.6185 -0.9414
17197TIP3    H273007   5.114   1.592  13.667  0.1687  2.4407 -2.0714
17198TIP3   OH273008   1.450   0.027  12.478 -0.6824  0.2479 -0.5717
17198TIP3    H173009   1.502  -0.014  12.409  1.4249  1.6199  0.0751
17198TIP3    H273010   1.365   0.044  12.438  0.2305  0.3401 -2.6121
17199TIP3   OH273011   6.569   6.411  12.392  0.4429 -0.3930 -0.2633
17199TIP3    H173012   6.555   6.462  12.313  3.0969  2.0849  0.6875
17199TIP3    H273013   6.509   6.450  12.456  0.2225 -0.6163 -0.3287
17200TIP3   OH273014   5.712   0.271  11.760  0.3453 -0.1042 -0.2815
17200TIP3    H173015   5.801   0.304  11.763  0.7021 -0.9590 -0.9308
17200TIP3    H273016   5.679   0.298  11.674  0.1435 -0.1835 -0.2310
17201TIP3   OH273017   0.806   2.632  17.015 -0.0861 -0.0390 -0.0356
17201TIP3    H173018   0.764   2.669  16.937  0.1709 -1.2358 -0.7660
17201TIP3    H273019   0.739   2.574  17.052 -0.7865  1.7130  1.5667
17202TIP3   OH273020   4.118   0.512  12.329 -0.6423  0.2625  0.1024
17202TIP3    H173021   4.212   0.519  12.349 -0.5604  0.1797 -0.2472
17202TIP3    H273022   4.114   0.509  12.233 -0.9704 -0.2017  0.1260
17203TIP3   OH273023   5.390   3.250   5.476 -0.2809  0.0536 -0.4518
17203TIP3    H173024   5.413   3.197   5.400 -1.3988 -1.3417  0.1360
17203TIP3    H273025   5.471   3.296   5.499  0.4641 -0.6644 -1.5652
17204TIP3   OH273026   1.590   1.648  12.111  0.0800  0.0480  0.0379
17204TIP3    H173027   1.564   1.556  12.105 -0.1337  0.2005 -2.5522
17204TIP3    H273028   1.583   1.669  12.204  0.2918 -2.5830  0.7259
17205TIP3   OH273029   1.834   5.249  12.711 -0.4956  1.1023  0.1810
17205TIP3    H173030   1.900   5.205  12.766 -0.6459  2.2368  1.3124
17205TIP3    H273031   1.822   5.335  12.752 -2.7366  0.9092  0.0765
17206TIP3   OH273032   4.652   3.736  13.941  0.2382 -0.3588  0.5574
17206TIP3    H173033   4.704   3.761  14.017 -0.4527  1.4987  0.4642
17206TIP3    H273034   4.623   3.819  13.903  1.3321 -1.1624 -2.3050
17207TIP3   OH273035   5.212   3.370   3.132 -0.5948  0.0089  0.6454
17207TIP3    H173036   5.147   3.377   3.203 -0.7041 -1.1333  0.6819
17207TIP3    H273037   5.190   3.287   3.089 -0.0911  0.3594 -0.2933
17208TIP3   OH273038   2.653   5.193  14.134  0.9312 -0.2328  0.1932
17208TIP3    H173039   2.721   5.160  14.076  1.6879  1.2186  0.1865
17208TIP3    H273040   2.618   5.270  14.088  1.3856  0.8045  1.5052
17209TIP3   OH273041   1.106   4.718   5.903 -0.2976 -0.0603 -1.0013
17209TIP3    H173042   1.031   4.777   5.895 -1.5558 -1.4321  0.2072
17209TIP3    H273043   1.137   4.706   5.813 -1.0439  1.1236 -1.4393
17210TIP3   OH273044   4.301   2.297  15.320  0.3956  0.4519  0.4848
17210TIP3    H173045   4.264   2.217  15.358  1.0792 -0.5953 -0.9502
17210TIP3    H273046   4.328   2.271  15.232  2.3166  1.7953  0.6140
17211TIP3   OH273047   1.913   3.605  15.961 -0.2638 -0.1068 -0.1833
17211TIP3    H173048   1.867   3.685  15.985  1.0419 -0.0438  2.4048
17211TIP3    H273049   2.000   3.634  15.933 -0.9489 -0.3992 -2.9180
17212TIP3   OH273050   4.208   4.746   2.101  0.0429  0.2730 -0.5289
17212TIP3    H173051   4.217   4.658   2.064  2.7446  0.4468 -0.5180
17212TIP3    H273052   4.189   4.801   2.025 -0.1875 -0.1356 -0.7731
17213TIP3   OH273053   0.252   3.348  14.026 -0.3138  0.4595 -0.1873
17213TIP3    H173054   0.339   3.387  14.019  0.2112 -0.9117 -2.2132
17213TIP3    H273055   0.195   3.421  14.051  1.1002  1.8152 -0.7432
17214TIP3   OH273056   2.504   1.262   3.377 -0.2597 -0.0409 -0.0448
17214TIP3    H173057   2.440   1.216   3.431 -1.1904  0.3030 -0.8363
17214TIP3    H273058   2.482   1.240   3.287  1.6310 -1.0684 -0.3162
17215TIP3   OH273059   2.452   3.587  15.637  0.0139 -0.5248  0.1724
17215TIP3    H173060   2.419   3.603  15.726 -1.3406  0.8040 -0.5351
17215TIP3    H273061   2.494   3.501  15.643  0.0767 -0.4087  2.1212
17216TIP3   OH273062   1.694   4.288  14.272 -0.0964 -0.6165 -1.0265
17216TIP3    H173063   1.764   4.254  14.327 -0.6427 -1.0773 -0.6099
17216TIP3    H273064   1.616   4.286  14.327 -0.3301  0.4231 -1.3008
17217TIP3   OH273065   5.779   5.643  13.255 -0.3273  0.3366  0.4441
17217TIP3    H173066   5.744   5.573  13.310 -2.1301 -0.3294 -1.4252
17217TIP3    H273067   5.865   5.662  13.293  0.0040 -2.4878  1.3741
17218TIP3   OH273068   5.937   3.291   0.478  0.0947  0.0561  0.1247
17218TIP3    H173069   5.885   3.220   0.441 -0.2654 -0.5390  1.6810
17218TIP3    H273070   6.022   3.251   0.499 -0.6439 -0.4383  2.5421
17219TIP3   OH273071   2.502   5.650   1.453 -0.3136 -0.4383  0.0103
17219TIP3    H173072   2.422   5.621   1.497  0.2890 -0.9092  0.7954
17219TIP3    H273073   2.505   5.745   1.469  0.6782 -0.8033  2.3150
17220TIP3   OH273074   6.563   2.367  15.000  0.7475  0.0095  0.3811
17220TIP3    H173075   6.468   2.354  14.993  0.5457  1.3392  0.4815
17220TIP3    H273076   6.600   2.305  14.937 -0.4045  2.7665 -3.3825
17221TIP3   OH273077   5.175   5.824   4.687 -0.5965 -0.3077 -0.3074
17221TIP3    H173078   5.258   5.800   4.728 -0.4973  0.5142 -0.0127
17221TIP3    H273079   5.200   5.876   4.611 -0.7888 -1.5616 -1.2638
17222TIP3   OH273080   3.298   6.699   0.856  0.1505  0.5824 -0.6050
17222TIP3    H173081   3.233   6.633   0.879 -0.7544  1.3704 -0.8499
17222TIP3    H273082   3.297   6.702   0.760  1.4651 -0.2854 -0.6691
17223TIP3   OH273083   1.880   3.398  12.981  0.5874 -0.0795  0.2492
17223TIP3    H173084   1.800   3.354  13.008  0.0296  0.6180 -0.2125
17223TIP3    H273085   1.924   3.420  13.063 -0.4331  0.8453  0.5728
17224TIP3   OH273086   3.540   6.368  14.925  0.4411  0.1781  0.3004
17224TIP3    H173087   3.535   6.426  14.850  1.7699 -1.5507 -1.2258
17224TIP3    H273088   3.565   6.425  14.998  2.5802  1.4321 -1.3034
17225TIP3   OH273089   4.884   2.012  11.968  0.0422  1.0311  0.5397
17225TIP3    H173090   4.882   2.057  12.052  0.5458  1.9544  0.0735
17225TIP3    H273091   4.977   2.000  11.949 -0.0376 -1.4448  1.2582
17226TIP3   OH273092   6.400   5.447  13.129 -0.2008  0.3972  0.0768
17226TIP3    H173093   6.425   5.375  13.072 -1.8855  0.5555 -0.9261
17226TIP3    H273094   6.376   5.518  13.070 -0.5593  1.0774  1.0092
17227TIP3   OH273095   0.196   1.062  12.244  0.5118  0.1823 -0.0292
17227TIP3    H173096   0.173   1.104  12.161 -1.7233  1.6701  1.2421
17227TIP3    H273097   0.177   1.128  12.311  0.9482 -1.4232  1.7845
17228TIP3   OH273098   3.022   4.024  11.380  0.2737  0.1347  0.1354
17228TIP3    H173099   2.972   4.018  11.299 -1.3269  1.3021  0.9697
17228TIP3    H273100   3.050   4.116  11.384  2.6538 -0.5212 -0.3708
17229TIP3   OH273101   4.931   4.801  15.293 -0.1352  0.2909  0.5105
17229TIP3    H173102   4.877   4.833  15.221 -0.0757  1.0379  0.7877
17229TIP3    H273103   5.005   4.863  15.298  2.2077 -2.0961 -1.5332
17230TIP3   OH273104   1.945   6.601   2.792 -0.0118 -0.3995  0.2879
17230TIP3    H173105   1.942   6.512   2.759  1.5863  0.0579 -1.2234
17230TIP3    H273106   2.033   6.610   2.829 -0.3097  0.4151  0.8369
17231TIP3   OH273107   1.382   0.158   1.278 -0.9505  0.0414 -0.2276
17231TIP3    H173108   1.398   0.248   1.251 -2.6299  0.4641  0.0451
17231TIP3    H273109   1.293   0.159   1.313  0.8277 -0.4560  5.1825
17232TIP3   OH273110   4.655   4.778  11.501  0.8320  0.5519 -0.1402
17232TIP3    H173111   4.561   4.767  11.488  0.6173 -0.2329  1.7397
17232TIP3    H273112   4.666   4.869  11.525  0.1183  0.0321  2.4385
17233TIP3   OH273113   2.393   2.386   5.690 -0.4550  0.0001  0.1908
17233TIP3    H173114   2.432   2.325   5.627 -0.5804 -0.7718  0.8407
17233TIP3    H273115   2.444   2.466   5.681  0.9719 -0.8236  0.6608
17234TIP3   OH273116   0.959   3.442  15.480 -0.4445 -0.1907  0.2954
17234TIP3    H173117   0.886   3.463  15.422 -0.5554  0.3545  0.6256
17234TIP3    H273118   1.026   3.507  15.460  0.4381 -1.4113 -0.8477
17235TIP3   OH273119   3.306   3.242  15.669  0.2690  0.3425  0.4469
17235TIP3    H173120   3.288   3.198  15.586 -0.4834 -1.0915  1.3399
17235TIP3    H273121   3.234   3.305  15.679  0.8445  1.1645 -0.3854
17236TIP3   OH273122   5.364   4.256   5.302  0.3464 -0.1177  0.4088
17236TIP3    H173123   5.294   4.211   5.349  0.4456 -0.0248  0.6504
17236TIP3    H273124   5.417   4.186   5.265  0.7621 -0.2167  1.1701
17237TIP3   OH273125   6.488   2.166  16.914  0.0863  0.0439 -0.0572
17237TIP3    H173126   6.459   2.077  16.937  2.5610 -0.9055 -0.2332
17237TIP3    H273127   6.422   2.223  16.953 -2.5777 -1.8615 -1.4312
17238TIP3   OH273128   3.899   6.367   0.880  0.3452 -0.0634 -0.4593
17238TIP3    H173129   3.968   6.303   0.896 -1.5769 -1.9229  1.0551
17238TIP3    H273130   3.866   6.345   0.793 -0.9438 -1.9483  0.4113
17239TIP3   OH273131   0.891   2.911  13.321 -0.0047 -0.6057 -0.1133
17239TIP3    H173132   0.946   2.984  13.349 -0.3952  0.1789 -1.2781
17239TIP3    H273133   0.952   2.850  13.279  0.0009  0.4520 -1.7747
17240TIP3   OH273134   0.682   0.927  12.744 -0.1228 -0.3507 -0.1827
17240TIP3    H173135   0.646   0.840  12.726 -1.4400  0.2412 -0.4877
17240TIP3    H273136   0.773   0.910  12.769 -0.5118 -1.8580  0.3156
17241TIP3   OH273137   1.106   0.767  14.912 -0.3270  0.2609 -0.1745
17241TIP3    H173138   1.100   0.850  14.959  3.8281  1.1822 -0.8833
17241TIP3    H273139   1.196   0.764  14.880 -0.2781 -4.4806 -0.3175
17242TIP3   OH273140   4.035   0.207   1.076 -0.0151 -0.0886 -0.0603
17242TIP3    H173141   3.962   0.177   1.022 -0.6220  2.8617 -1.0583
17242TIP3    H273142   4.008   0.186   1.166 -1.5312 -0.1522 -0.4997
17243TIP3   OH273143   1.499   1.899  14.486  0.0769  0.0107 -0.1294
17243TIP3    H173144   1.549   1.882  14.406 -0.3106 -0.2563 -0.3180
17243TIP3    H273145   1.543   1.846  14.553 -0.5792 -1.0440 -0.5196
17244TIP3   OH273146   0.047   6.449  12.360  0.2640 -0.7319  0.4003
17244TIP3    H173147  -0.048   6.446  12.373  0.0217 -2.2546 -1.2847
17244TIP3    H273148   0.077   6.363  12.388  0.6592 -1.4308 -1.9171
17245TIP3   OH273149   1.896   2.124  15.372  0.1037 -0.7525  0.3902
17245TIP3    H173150   1.804   2.137  15.350  0.2255 -0.3463  0.1033
17245TIP3    H273151   1.914   2.033  15.348  0.2902 -0.2661 -1.4616
17246TIP3   OH273152   5.244   5.580  10.864 -0.0184  0.1764 -0.1503
17246TIP3    H173153   5.241   5.626  10.780  1.5130  2.0768  0.7560
17246TIP3    H273154   5.232   5.649  10.929  1.0124 -0.9137  1.2535
17247TIP3   OH273155   2.878   3.208   2.476  0.4264  0.3042  0.2973
17247TIP3    H173156   2.883   3.300   2.450 -2.0240  0.3047 -0.4395
17247TIP3    H273157   2.812   3.170   2.418  0.3413 -1.5782  1.5269
17248TIP3   OH273158   6.055   5.218  12.705  0.3214  0.0164  0.2210
17248TIP3    H173159   6.030   5.129  12.681  0.5823  0.2178 -0.8669
17248TIP3    H273160   6.139   5.208  12.750  1.0768 -0.1904 -1.1771
17249TIP3   OH273161   3.748   3.064  13.554 -0.3317 -0.1765  0.5001
17249TIP3    H173162   3.683   3.001  13.584 -0.4435 -0.9903 -1.3077
17249TIP3    H273163   3.765   3.039  13.463  2.3027  0.1913  0.8254
17250TIP3   OH273164   5.547   5.831  15.071  0.0279 -0.0867  0.3952
17250TIP3    H173165   5.593   5.898  15.020  3.0917 -1.3115  1.2920
17250TIP3    H273166   5.465   5.816  15.024  0.5645  2.1727 -1.4338
17251TIP3   OH273167   5.615   6.366   3.402 -0.2454 -0.1591 -0.5148
17251TIP3    H173168   5.704   6.371   3.436 -0.1644  0.2095 -0.7799
17251TIP3    H273169   5.607   6.441   3.343 -1.0882  0.4568  0.3492
17252TIP3   OH273170   5.498   5.031  11.313  0.3395  0.1386 -0.3326
17252TIP3    H173171   5.475   5.090  11.241 -1.3352 -0.2380 -0.1363
17252TIP3    H273172   5.414   4.998  11.345  0.9925  0.6171  2.0894
17253TIP3   OH273173   1.569   1.635  12.972 -0.0784 -1.1328 -0.1615
17253TIP3    H173174   1.537   1.684  12.896  0.8592 -0.8817 -0.4067
17253TIP3    H273175   1.512   1.558  12.976 -2.5759  0.6423  1.1398
17254TIP3   OH273176   5.882   4.625  16.459  0.4329 -0.3613 -0.0200
17254TIP3    H173177   5.904   4.557  16.523  1.6035  0.1201  0.1246
17254TIP3    H273178   5.829   4.687  16.508 -0.8699 -1.2771 -0.2209
17255TIP3   OH273179   1.570   4.965  11.803  0.3138 -0.2079 -0.1648
17255TIP3    H173180   1.583   4.888  11.748  0.9196 -2.1652  2.5182
17255TIP3    H273181   1.576   4.932  11.893 -0.9539  2.7240  1.1397
17256TIP3   OH273182   5.888   3.568  11.676  0.2019  0.0779  0.3654
17256TIP3    H173183   5.938   3.528  11.747  1.0229  1.5001  0.6267
17256TIP3    H273184   5.937   3.545  11.597 -0.5833 -1.3051  0.2426
17257TIP3   OH273185   0.318   5.285   4.813  0.4024 -0.1679  0.1604
17257TIP3    H173186   0.274   5.363   4.780 -0.1524 -0.3159  0.5270
17257TIP3    H273187   0.269   5.211   4.776 -0.0890 -0.3344  1.0897
17258TIP3   OH273188   5.069   4.050   1.830  0.7078  0.1433 -0.6336
17258TIP3    H173189   5.024   3.995   1.894  1.8567  0.8880  0.8732
17258TIP3    H273190   5.024   4.134   1.835  0.8243  0.2138 -0.7772
17259TIP3   OH273191   6.136   0.926   4.880 -0.0684 -0.1021  0.0756
17259TIP3    H173192   6.188   0.869   4.937 -0.4541 -0.2520  0.2805
17259TIP3    H273193   6.109   0.870   4.808 -1.3226 -0.4709  0.8009
17260TIP3   OH273194   1.394   6.325  11.485  0.4447 -0.0081  0.6376
17260TIP3    H173195   1.356   6.412  11.470 -0.8033 -0.7215 -0.5001
17260TIP3    H273196   1.423   6.296  11.399  0.5926 -0.8425  0.9627
17261TIP3   OH273197   4.779   2.551  11.461 -0.3350  0.4064 -0.0004
17261TIP3    H173198   4.726   2.473  11.442 -0.9050  1.3391 -2.6417
17261TIP3    H273199   4.756   2.574  11.551 -0.4825 -2.1769  0.6972
17262TIP3   OH273200   1.424   6.537  15.175 -0.0380 -0.3276 -0.1648
17262TIP3    H173201   1.430   6.476  15.248  1.0643 -0.7122 -0.5479
17262TIP3    H273202   1.391   6.485  15.102 -2.0429  0.2693  0.2546
17263TIP3   OH273203   3.260   6.482  13.048  0.1924 -0.3121 -0.1132
17263TIP3    H173204   3.263   6.427  12.970 -0.8996 -0.8525  0.2185
17263TIP3    H273205   3.190   6.446  13.101  1.6239 -0.6349  1.6570
17264TIP3   OH273206   1.001   2.132  13.471  0.1513 -0.0411 -0.1176
17264TIP3    H173207   1.075   2.075  13.451 -0.0037 -0.6399  0.9009
17264TIP3    H273208   0.924   2.078  13.454  0.0057 -0.2056  0.9559
17265TIP3   OH273209   4.417   3.631  13.853 -0.8622 -0.5000  0.1234
17265TIP3    H173210   4.367   3.669  13.925 -1.0686  1.2610 -0.8925
17265TIP3    H273211   4.504   3.671  13.861 -1.0519  0.1582 -0.9085
17266TIP3   OH273212   6.385   2.418  14.314 -0.1399 -0.1679 -0.3514
17266TIP3    H173213   6.452   2.364  14.272  0.8277  0.9519 -0.3169
17266TIP3    H273214   6.307   2.363  14.317  0.5447 -1.2096 -1.1653
17267TIP3   OH273215   5.545   4.497   1.032 -0.0180  0.3592  0.8595
17267TIP3    H173216   5.568   4.425   1.091  0.0114 -1.3876 -1.1425
17267TIP3    H273217   5.575   4.467   0.946 -1.8531  1.8763 -0.3860
17268TIP3   OH273218   5.358   5.589  13.186 -0.1145  0.1585 -0.1676
17268TIP3    H173219   5.343   5.495  13.182  0.8539  0.0011 -0.1600
17268TIP3    H273220   5.282   5.623  13.234  0.1368 -0.7688  0.9448
17269TIP3   OH273221   5.262   2.892   1.828  0.5270 -0.9284 -0.5134
17269TIP3    H173222   5.242   2.934   1.911  0.6807 -0.6337 -0.6264
17269TIP3    H273223   5.352   2.859   1.839  0.5534 -0.8740 -0.5712
17270TIP3   OH273224   6.398   5.127   1.973 -0.0541  0.1793 -0.0366
17270TIP3    H173225   6.440   5.186   2.036 -0.2557 -0.3775  0.6346
17270TIP3    H273226   6.375   5.184   1.900  0.7636  0.7239  0.1050
17271TIP3   OH273227   4.543   3.220   5.362 -0.1795  0.0468  0.4161
17271TIP3    H173228   4.544   3.256   5.450 -0.3458  0.0588  0.4124
17271TIP3    H273229   4.454   3.233   5.331 -0.7232 -1.8274  1.0236
17272TIP3   OH273230   2.648   4.431   0.151 -0.1437 -0.4901  0.2393
17272TIP3    H173231   2.575   4.491   0.134 -0.6284 -1.4208 -1.1637
17272TIP3    H273232   2.715   4.486   0.193  0.4048  1.6990 -3.1245
17273TIP3   OH273233   3.945   2.151  12.943 -0.2047 -0.1495 -0.3785
17273TIP3    H173234   3.889   2.105  12.881 -1.3950 -1.3316  1.4897
17273TIP3    H273235   4.034   2.120  12.922 -0.6592 -1.0492 -1.0346
17274TIP3   OH273236   5.253   4.423  16.284  0.0804  0.6533  0.1209
17274TIP3    H173237   5.326   4.368  16.314  0.9048  2.3239  1.3388
17274TIP3    H273238   5.177   4.366  16.289  0.8342 -0.2989  1.7403
17275TIP3   OH273239   6.364   4.050  15.374 -0.2053  0.1481 -0.5209
17275TIP3    H173240   6.302   4.043  15.447 -2.1696 -3.3737 -2.2751
17275TIP3    H273241   6.310   4.046  15.296  2.0664  0.4485 -2.2119
17276TIP3   OH273242   4.330   3.322  14.027  0.1049 -0.1640 -0.0521
17276TIP3    H173243   4.295   3.254  13.970 -0.3439  0.5809 -0.6864
17276TIP3    H273244   4.351   3.395  13.968 -2.7243  1.6084  0.9311
17277TIP3   OH273245   1.400   0.795   5.072 -0.1520 -0.1550 -0.1367
17277TIP3    H173246   1.452   0.751   5.140  1.5036  0.0814 -1.1769
17277TIP3    H273247   1.407   0.737   4.996 -3.2522 -1.2017  0.2353
17278TIP3   OH273248   3.412   2.803  14.679 -0.4512 -0.0056 -0.6330
17278TIP3    H173249   3.394   2.851  14.598 -0.9079  0.6957 -0.1311
17278TIP3    H273250   3.353   2.728  14.675  0.4196 -0.6843 -1.5253
17279TIP3   OH273251   3.200   1.733   3.352 -0.5611 -0.0518 -0.5674
17279TIP3    H173252   3.223   1.643   3.329 -1.0088  0.3647 -2.8057
17279TIP3    H273253   3.207   1.735   3.448  1.9330 -1.7680 -0.6157
17280TIP3   OH273254   1.129   4.469   2.694  0.3422  0.5080  0.3302
17280TIP3    H173255   1.207   4.523   2.680  0.3882  0.4110  0.2111
17280TIP3    H273256   1.085   4.469   2.609  0.1544  0.6557  0.4280
17281TIP3   OH273257   6.317   0.158  14.848  0.1333  0.5072 -0.2879
17281TIP3    H173258   6.322   0.253  14.853  0.8783  0.4293  2.2039
17281TIP3    H273259   6.408   0.129  14.856 -0.1070 -0.4214 -0.7703
17282TIP3   OH273260   5.746   0.405  12.690  0.4866  0.5367 -0.4199
17282TIP3    H173261   5.799   0.325  12.687 -1.0236 -0.5334  0.0959
17282TIP3    H273262   5.798   0.470  12.644  1.3063 -1.0251 -1.7968
17283TIP3   OH273263   6.209   0.639   5.842  0.2546  0.6172 -0.0226
17283TIP3    H173264   6.134   0.627   5.784 -1.1983 -0.0283  1.8784
17283TIP3    H273265   6.176   0.694   5.913  0.3226 -2.7370  2.8917
17284TIP3   OH273266   2.413   4.161   2.193 -0.0947  0.3166  0.3296
17284TIP3    H173267   2.406   4.174   2.287  0.2439  1.6268  0.1891
17284TIP3    H273268   2.322   4.158   2.163 -0.2452  2.2112  0.4376
17285TIP3   OH273269   2.708   4.596  15.487 -0.7644  0.5651 -0.2228
17285TIP3    H173270   2.709   4.551  15.403  2.4080  2.7981 -1.5934
17285TIP3    H273271   2.742   4.532  15.549 -1.3098 -0.5172 -1.0092
17286TIP3   OH273272   0.340   0.278   5.643  0.0198 -0.2590  0.0025
17286TIP3    H173273   0.288   0.289   5.563  0.1960 -0.5875 -0.1596
17286TIP3    H273274   0.305   0.343   5.703  2.3038  2.6120 -1.5219
17287TIP3   OH273275   5.257   0.465   5.649  0.1752  0.0714 -0.4196
17287TIP3    H173276   5.331   0.412   5.681 -1.6150 -1.4805  1.4226
17287TIP3    H273277   5.247   0.534   5.714  0.6518  0.9848 -1.2771
17288TIP3   OH273278   3.763   6.699  11.160 -0.1640  0.6673  0.0365
17288TIP3    H173279   3.673   6.667  11.152  0.2427 -0.5413  0.0256
17288TIP3    H273280   3.817   6.619  11.159  0.9098  1.3698 -0.0061
17289TIP3   OH273281   2.939   0.895  17.068 -0.6503 -0.5398  0.0988
17289TIP3    H173282   2.905   0.814  17.104  2.0992 -2.5371 -1.4435
17289TIP3    H273283   3.019   0.870  17.022 -0.7036  2.7432 -2.1648
17290TIP3   OH273284   0.701   0.084   0.259 -0.0216 -0.3232  0.2675
17290TIP3    H173285   0.787   0.105   0.295  1.2241 -0.1147 -2.5619
17290TIP3    H273286   0.663   0.169   0.236 -0.7446 -0.4606  0.8802
17291TIP3   OH273287   3.045   6.048  12.245 -0.5350  0.4325 -0.1080
17291TIP3    H173288   2.969   6.075  12.192 -0.6999  0.5978  0.2133
17291TIP3    H273289   3.120   6.086  12.199 -0.6172  0.0605 -0.5684
17292TIP3   OH273290   2.566   6.728  11.118 -0.2092 -0.3142 -0.1006
17292TIP3    H173291   2.599   6.730  11.028  1.5722 -0.2398  0.5074
17292TIP3    H273292   2.618   6.794  11.164 -2.3571  0.9610  0.6080
17293TIP3   OH273293   5.205   2.920   6.017 -0.0352 -0.8604 -0.1271
17293TIP3    H173294   5.118   2.880   6.016 -1.0108  1.1636 -0.7877
17293TIP3    H273295   5.196   2.997   6.073  1.3207 -0.5767 -0.2641
17294TIP3   OH273296   3.552   1.494   5.905 -0.5914  0.7274 -0.3399
17294TIP3    H173297   3.591   1.576   5.936 -1.3060  0.5696  1.0332
17294TIP3    H273298   3.624   1.431   5.907  0.2603  1.5316 -2.4856
17295TIP3   OH273299   4.894   1.522   5.149 -0.3061 -0.0260  0.2535
17295TIP3    H173300   4.895   1.616   5.129  1.9630 -0.3416 -1.4518
17295TIP3    H273301   4.985   1.500   5.167 -0.4039 -2.2831 -1.5150
17296TIP3   OH273302   6.346   4.283  15.591  0.4634  0.1186 -0.4137
17296TIP3    H173303   6.406   4.284  15.516 -0.4812  1.4307 -1.1925
17296TIP3    H273304   6.303   4.368  15.588 -0.9189 -0.5161  0.5661
17297TIP3   OH273305   1.016   5.572   0.382  0.1613  0.0519  0.0268
17297TIP3    H173306   0.969   5.582   0.299 -1.1884 -0.9224  0.6439
17297TIP3    H273307   1.085   5.509   0.362 -0.4307 -0.5152 -0.2710
17298TIP3   OH273308   0.079   2.282   4.946 -0.1942  0.0933 -0.1068
17298TIP3    H173309   0.082   2.349   4.878 -0.9852 -0.7171 -0.9915
17298TIP3    H273310  -0.011   2.286   4.980  0.1486  0.3797  0.7922
17299TIP3   OH273311   2.206   6.262   0.916  0.8204 -0.3771 -0.3348
17299TIP3    H173312   2.114   6.235   0.917  0.9173 -0.7382 -0.8961
17299TIP3    H273313   2.223   6.293   1.005 -0.1379  0.7286 -0.5316
17300TIP3   OH273314   2.440   1.197  16.171  0.1391 -0.4874  0.1468
17300TIP3    H173315   2.391   1.206  16.090 -0.4827  1.8688  0.7079
17300TIP3    H273316   2.512   1.260  16.163  0.4659 -0.7161  1.1261
17301TIP3   OH273317   1.322   5.845  13.757  0.0303 -0.4561 -0.7392
17301TIP3    H173318   1.362   5.776  13.809  0.1327 -0.1817 -0.4547
17301TIP3    H273319   1.295   5.911  13.820  3.4896  1.6614 -1.1891
17302TIP3   OH273320   3.621   2.646   5.527  0.2063 -0.5742 -1.1974
17302TIP3    H173321   3.603   2.726   5.477 -0.4241  0.2470  0.2560
17302TIP3    H273322   3.716   2.640   5.530  0.3532  1.4281  0.5284
17303TIP3   OH273323   5.263   4.112  13.777  0.5979  0.3593 -0.0411
17303TIP3    H173324   5.240   4.199  13.810  1.7682  0.0691  1.6798
17303TIP3    H273325   5.186   4.085  13.726 -1.3737  0.9229  2.3969
17304TIP3   OH273326   1.198   3.938  15.684  0.0018  0.8159 -0.0347
17304TIP3    H173327   1.115   3.985  15.678 -1.0303 -1.0719 -2.7920
17304TIP3    H273328   1.176   3.855  15.726  0.1150 -0.2493 -1.9531
17305TIP3   OH273329   4.107   0.999  10.432  0.5274  0.6498 -0.2919
17305TIP3    H173330   4.184   1.027  10.482 -0.4925  1.4575  0.9020
17305TIP3    H273331   4.084   1.075  10.379  0.8226  0.2473 -1.0038
17306TIP3   OH273332   6.214   3.905  14.593 -0.3768 -0.4077 -0.1909
17306TIP3    H173333   6.252   3.993  14.600 -0.5399 -0.3925  0.5402
17306TIP3    H273334   6.121   3.918  14.611 -0.0873 -1.0036  2.0164
17307TIP3   OH273335   0.580   5.010  12.366  0.0537  0.3499 -0.9220
17307TIP3    H173336   0.654   5.047  12.413 -0.0548  0.8305 -1.1263
17307TIP3    H273337   0.611   4.925  12.336  0.1343  0.0448 -0.0153
17308TIP3   OH273338   1.121   2.869   3.376 -0.5912 -0.2479  0.1903
17308TIP3    H173339   1.185   2.890   3.308 -0.0600 -0.6340  0.5616
17308TIP3    H273340   1.112   2.774   3.371 -2.0928 -0.0805 -0.6964
17309TIP3   OH273341   5.866   5.652   1.563 -0.7397  0.1399 -0.4097
17309TIP3    H173342   5.785   5.668   1.516 -0.5374 -1.7850 -1.4837
17309TIP3    H273343   5.934   5.656   1.496 -0.0026  0.8955  0.3435
17310TIP3   OH273344   2.941   1.644   2.994 -0.4210  0.0211 -0.3565
17310TIP3    H173345   3.033   1.618   2.996  0.1257  1.7337 -1.0451
17310TIP3    H273346   2.908   1.609   2.911 -0.6159 -1.1815  0.2000
17311TIP3   OH273347   2.304   4.832  11.636  0.1530 -0.1922 -0.3393
17311TIP3    H173348   2.374   4.780  11.596  0.7865  0.5520 -0.2145
17311TIP3    H273349   2.297   4.798  11.725  0.5065 -0.1223 -0.2841
17312TIP3   OH273350   6.501   3.293  14.920  0.0314  0.5452  0.0449
17312TIP3    H173351   6.463   3.350  14.853  0.5951  0.4721 -0.3373
17312TIP3    H273352   6.527   3.353  14.990 -0.6609  0.6107  0.2606
17313TIP3   OH273353   0.457   2.528  12.623  0.4668 -0.0049  0.9415
17313TIP3    H173354   0.501   2.564  12.700  0.5635  2.1266 -0.0382
17313TIP3    H273355   0.391   2.593  12.600  0.6437 -0.4237 -0.9328
17314TIP3   OH273356   1.262   0.118  14.092  0.6783  0.0022  0.0608
17314TIP3    H173357   1.324   0.059  14.133  1.5651  0.6267 -0.3555
17314TIP3    H273358   1.202   0.061  14.043  3.1264 -0.5211 -2.6022
17315TIP3   OH273359   0.328   2.090  12.518  0.8169  0.0835 -0.0445
17315TIP3    H173360   0.285   2.014  12.559 -0.3537  0.9784  0.4442
17315TIP3    H273361   0.291   2.166  12.563  2.5116  0.9386 -0.0319
17316TIP3   OH273362   2.342   1.125   6.485 -0.1793  0.1020 -0.1039
17316TIP3    H173363   2.257   1.166   6.469  0.1100  0.2401 -1.4636
17316TIP3    H273364   2.322   1.045   6.533 -1.0392  0.3422 -0.0522
17317TIP3   OH273365   2.913   5.731   1.727 -0.3955 -0.2539  0.3101
17317TIP3    H173366   2.849   5.800   1.711 -0.0706  0.6597  2.5640
17317TIP3    H273367   2.992   5.777   1.758 -0.2002 -1.5831  1.9646
17318TIP3   OH273368   1.155   4.785   2.334  0.5681  0.1701 -0.3016
17318TIP3    H173369   1.173   4.819   2.246 -0.7125  0.0910 -0.6087
17318TIP3    H273370   1.242   4.771   2.372  1.1358  1.3551 -1.1014
17319TIP3   OH273371   4.356   6.731  16.959 -0.3239  0.5300  0.3327
17319TIP3    H173372   4.308   6.771  16.887 -1.9148  0.0732  1.1084
17319TIP3    H273373   4.315   6.766  17.038  1.5201  1.1683  1.0609
17320TIP3   OH273374   1.413   0.862  14.920  0.3009  0.2717 -0.0550
17320TIP3    H173375   1.497   0.900  14.893  0.6378  0.0107  0.6080
17320TIP3    H273376   1.386   0.915  14.995 -1.0761  1.5704 -1.4136
17321TIP3   OH273377   2.200   1.423  11.139 -0.5709 -0.4358  0.0807
17321TIP3    H173378   2.280   1.388  11.099 -0.0377  0.6944  0.1201
17321TIP3    H273379   2.165   1.484  11.073  0.6830  1.9787  1.4951
17322TIP3   OH273380   0.865   6.668  14.886  0.0584  0.1859 -0.2646
17322TIP3    H173381   0.834   6.609  14.955  0.8207 -0.2537 -0.2916
17322TIP3    H273382   0.811   6.646  14.810 -1.1752  1.0555  0.3119
17323TIP3   OH273383   3.724   2.099  14.315  0.7264  0.2623 -0.1194
17323TIP3    H173384   3.719   2.016  14.363  1.7385 -1.0295 -2.0961
17323TIP3    H273385   3.680   2.162  14.371 -0.2514 -1.6476  1.3814
17324TIP3   OH273386   0.022   0.552   4.439  0.0197 -0.1997  0.0559
17324TIP3    H173387  -0.019   0.634   4.464  0.8571  0.1605  0.3005
17324TIP3    H273388   0.036   0.559   4.345  1.1025  0.4258  0.2463
17325TIP3   OH273389   4.495   4.533   4.234  0.4569 -0.1840  0.4793
17325TIP3    H173390   4.419   4.551   4.289  1.0403  0.1098  1.2063
17325TIP3    H273391   4.487   4.594   4.161 -0.8711 -1.2740 -0.3344
17326TIP3   OH273392   2.495   0.782   6.297  0.5591 -0.5719  0.7558
17326TIP3    H173393   2.428   0.834   6.252  1.5989  0.9378  0.8537
17326TIP3    H273394   2.464   0.692   6.290 -2.6333  0.1988  2.7323
17327TIP3   OH273395   4.806   0.543   0.178  0.2630  0.7770 -0.5465
17327TIP3    H173396   4.796   0.465   0.233  0.6852  0.8537 -0.3624
17327TIP3    H273397   4.720   0.554   0.137 -0.2349  1.0495  0.5404
17328TIP3   OH273398   2.044   1.679   3.063  0.1040  0.2513  0.2469
17328TIP3    H173399   2.103   1.691   3.137  1.9330 -1.1667 -0.8885
17328TIP3    H273400   2.048   1.761   3.015  1.2657  0.1434  0.1365
17329TIP3   OH273401   3.325   2.358   3.803  0.1244 -0.3454  0.6050
17329TIP3    H173402   3.265   2.430   3.819  1.1428  0.7078 -0.1621
17329TIP3    H273403   3.292   2.315   3.724  1.2450  1.2415 -0.7900
17330TIP3   OH273404   1.741   6.430  15.903  0.0650 -0.7344 -0.4275
17330TIP3    H173405   1.737   6.507  15.846  0.7466 -1.3389 -1.3177
17330TIP3    H273406   1.693   6.362  15.855  0.3405 -1.1535 -0.1131
17331TIP3   OH273407   2.569   5.050  16.461  0.7318  0.4218 -0.0528
17331TIP3    H173408   2.473   5.056  16.466  0.6808  0.2720 -0.7018
17331TIP3    H273409   2.600   5.092  16.541  0.1699  1.9911 -0.6198
17332TIP3   OH273410   0.869   4.149   3.139 -0.1379  0.6712  0.3269
17332TIP3    H173411   0.795   4.176   3.085 -0.4179 -0.6097  0.0357
17332TIP3    H273412   0.938   4.128   3.077 -0.3110 -0.3657  0.4548
17333TIP3   OH273413   6.504   6.646   3.285  0.0424  0.2628  0.6240
17333TIP3    H173414   6.572   6.620   3.348  0.9876 -2.1055 -1.2220
17333TIP3    H273415   6.550   6.698   3.220  0.2109 -1.4740 -0.7156
17334TIP3   OH273416   1.086   1.262   1.201 -0.0830  0.6225 -0.1676
17334TIP3    H173417   1.127   1.232   1.282 -1.5539  1.2561  0.8748
17334TIP3    H273418   1.033   1.188   1.171 -0.6437  0.8393  0.2553
17335TIP3   OH273419   4.077   0.745   1.067 -0.0738 -0.0476  0.0247
17335TIP3    H173420   4.076   0.737   1.163  1.2766 -1.1623 -0.0100
17335TIP3    H273421   4.013   0.681   1.037 -1.2440  1.0163  0.1872
17336TIP3   OH273422   4.973   1.685   2.741  0.0305  0.3097 -0.1388
17336TIP3    H173423   4.890   1.643   2.761  0.4119 -0.0695  0.7264
17336TIP3    H273424   4.985   1.749   2.811 -0.3119  1.5379 -1.1755
17337TIP3   OH273425   4.241   6.121  16.261 -0.1740  0.5456  0.0794
17337TIP3    H173426   4.243   6.042  16.207  0.3629  0.4694  0.2001
17337TIP3    H273427   4.148   6.142  16.270 -0.2518  0.9047 -1.3507
17338TIP3   OH273428   4.910   3.527   3.814 -0.3722 -0.2181 -0.8332
17338TIP3    H173429   5.005   3.517   3.806 -0.6937 -3.1701 -2.0649
17338TIP3    H273430   4.875   3.494   3.731 -2.4864  1.4522 -0.7004
17339TIP3   OH273431   3.600   4.415   1.824  0.5652  0.0167  0.2915
17339TIP3    H173432   3.549   4.425   1.743 -1.5839 -0.3118  1.5236
17339TIP3    H273433   3.662   4.346   1.805  0.3552  0.2063 -1.1989
17340TIP3   OH273434   0.417   3.427  16.825  0.3918 -0.0162  0.1990
17340TIP3    H173435   0.364   3.355  16.860  0.5713  0.5116  1.5904
17340TIP3    H273436   0.446   3.476  16.902 -0.1338  1.8572 -0.7251
17341TIP3   OH273437   6.704   4.429   3.169  0.8532 -0.2172 -0.5951
17341TIP3    H173438   6.715   4.503   3.227  0.6626  0.3242 -1.2378
17341TIP3    H273439   6.745   4.355   3.215  1.8468  0.4722 -0.3427
17342TIP3   OH273440   0.283   0.221   3.768 -0.0931  0.0180 -0.3590
17342TIP3    H173441   0.321   0.268   3.694 -0.2187 -1.0336 -1.1201
17342TIP3    H273442   0.359   0.192   3.819 -0.0270  1.5161  0.4533
17343TIP3   OH273443   2.436   3.679   6.350  0.0026  0.1388  0.7561
17343TIP3    H173444   2.414   3.770   6.371  0.7629  0.8564 -1.3584
17343TIP3    H273445   2.393   3.628   6.419 -2.7691  1.8713  0.4837
17344TIP3   OH273446   5.484   4.847  15.696  0.0150 -0.2949  0.4183
17344TIP3    H173447   5.512   4.785  15.763 -0.1334 -1.3929 -0.5040
17344TIP3    H273448   5.566   4.883  15.661  0.1283 -0.4485  0.5236
17345TIP3   OH273449   5.386   4.140  11.091  0.1339 -0.8849  0.2486
17345TIP3    H173450   5.343   4.178  11.014 -1.4344 -2.3979  0.3015
17345TIP3    H273451   5.412   4.215  11.143 -2.9987  0.2184  0.4564
17346TIP3   OH273452   2.526   4.915  12.856 -0.1279 -0.4990  0.3586
17346TIP3    H173453   2.560   4.832  12.888  0.9140 -0.4867 -0.6597
17346TIP3    H273454   2.547   4.978  12.925  0.5494 -0.7852  0.4213
17347TIP3   OH273455   3.251   5.993   2.126  0.4737  0.8595 -0.2449
17347TIP3    H173456   3.322   6.055   2.109  0.2388  0.5581 -2.6851
17347TIP3    H273457   3.189   6.042   2.179  2.1221  1.3654  1.3172
17348TIP3   OH273458   0.309   2.241  11.369  0.0531  0.0691 -0.5059
17348TIP3    H173459   0.302   2.319  11.314  1.0204  0.5696  0.0510
17348TIP3    H273460   0.320   2.275  11.458 -0.5962 -0.7220 -0.1095
17349TIP3   OH273461   2.398   0.977   2.287 -0.1382 -0.0911  0.2886
17349TIP3    H173462   2.490   0.978   2.312 -0.0834  1.5182  0.1136
17349TIP3    H273463   2.351   0.977   2.371  0.0518  2.1880  0.4549
17350TIP3   OH273464   0.081   6.557   3.424 -0.0675  0.3921 -0.0221
17350TIP3    H173465   0.142   6.493   3.389 -0.6092  0.7471 -1.6895
17350TIP3    H273466   0.049   6.518   3.505  1.5529 -0.2565  0.3376
17351TIP3   OH273467   6.493   6.304   1.754 -0.2377 -0.0579  0.4126
17351TIP3    H173468   6.562   6.238   1.744  0.5491  0.9333 -0.9338
17351TIP3    H273469   6.418   6.268   1.706 -0.0793 -0.3280  0.3621
17352TIP3   OH273470   0.551   3.407  16.173  0.4449  0.3483 -0.4383
17352TIP3    H173471   0.463   3.396  16.209  0.2326  0.6936 -0.8392
17352TIP3    H273472   0.543   3.381  16.081  0.8261  0.1214 -0.4126
17353TIP3   OH273473   4.065   2.061  11.365  0.2423 -0.7782 -0.3297
17353TIP3    H173474   4.070   1.966  11.366 -0.4161 -0.8136  0.4933
17353TIP3    H273475   3.974   2.081  11.388  0.9111  0.0693  1.8543
17354TIP3   OH273476   2.079   3.674  15.298  0.1725  0.4462 -0.5886
17354TIP3    H173477   2.132   3.662  15.377  2.1254  0.3362 -1.8455
17354TIP3    H273478   2.087   3.591  15.251 -1.1256  0.4396 -0.8385
17355TIP3   OH273479   2.134   6.641   3.362 -0.5591 -0.0113 -0.2072
17355TIP3    H173480   2.192   6.701   3.315 -1.2971  0.4964 -0.4811
17355TIP3    H273481   2.091   6.696   3.428  0.6404 -0.7547  1.2588
17356TIP3   OH273482   3.131   4.389   4.737 -0.5440  0.4640  0.2010
17356TIP3    H173483   3.068   4.443   4.690 -1.3383  1.0852  1.9027
17356TIP3    H273484   3.080   4.315   4.769  0.6372 -1.7245 -2.5643
17357TIP3   OH273485   3.094   0.574  15.659 -0.2187 -0.3254 -0.6115
17357TIP3    H173486   3.104   0.627  15.739  1.0471 -0.3732 -0.7142
17357TIP3    H273487   3.048   0.495  15.687 -0.9486  0.2347 -0.1946
17358TIP3   OH273488   0.443   1.837   1.229 -0.1797 -0.3913  0.1457
17358TIP3    H173489   0.437   1.906   1.295 -1.8277  0.7866 -1.1556
17358TIP3    H273490   0.536   1.812   1.229  0.3692  1.4633  1.0040
17359TIP3   OH273491   5.418   6.696  15.145  0.2282  0.2221  0.1231
17359TIP3    H173492   5.429   6.764  15.212 -1.6008  0.0327  0.6572
17359TIP3    H273493   5.331   6.661  15.161  0.4353 -1.0115 -1.3066
17360TIP3   OH273494   4.777   1.035   1.105  0.5839  0.3061 -0.3293
17360TIP3    H173495   4.802   1.114   1.154 -0.5736  0.4068  0.1191
17360TIP3    H273496   4.740   1.067   1.023 -1.6742  0.3557  0.6475
17361TIP3   OH273497   6.048   0.008  11.770 -0.5497  0.0427 -0.1818
17361TIP3    H173498   6.046   0.072  11.841 -1.4951  1.0275 -1.0631
17361TIP3    H273499   6.072   0.059  11.693  1.3445 -1.1744 -0.4541
17362TIP3   OH273500   0.585   2.929  12.692  0.8090  0.6367  0.1961
17362TIP3    H173501   0.539   2.932  12.608  0.0578  0.4190  0.5959
17362TIP3    H273502   0.609   2.837  12.702  0.8077  0.6454  0.2746
17363TIP3   OH273503   3.575   6.177   4.526  0.3136 -0.1849 -0.1292
17363TIP3    H173504   3.498   6.226   4.555 -0.5915 -1.1802 -0.7919
17363TIP3    H273505   3.646   6.210   4.582 -0.8917 -0.3620  1.6069
17364TIP3   OH273506   3.884   1.603  16.537 -0.4391 -0.0358 -0.8515
17364TIP3    H173507   3.855   1.523  16.582 -0.5607  0.4670 -0.0108
17364TIP3    H273508   3.857   1.590  16.446 -0.8380 -0.7739 -0.6405
17365TIP3   OH273509   3.438   2.563   1.314  0.5651  0.8398  0.4829
17365TIP3    H173510   3.470   2.503   1.381 -2.7714  0.0511  1.5771
17365TIP3    H273511   3.483   2.537   1.234  2.1631 -0.4422  1.7424
17366TIP3   OH273512   5.583   3.080   5.010 -0.4759 -0.5782  0.1818
17366TIP3    H173513   5.501   3.033   5.028 -1.1099  0.5057  0.2340
17366TIP3    H273514   5.637   3.063   5.087 -0.7234 -1.1599  0.2314
17367TIP3   OH273515   1.186   2.605  15.451 -0.0846  0.2187 -0.3340
17367TIP3    H173516   1.190   2.510  15.436  1.6061  0.0989  0.6498
17367TIP3    H273517   1.269   2.638  15.416 -0.0018  1.1243  0.6673
17368TIP3   OH273518   3.094   4.496   0.127  0.5007  0.3607 -0.4582
17368TIP3    H173519   3.018   4.508   0.184  0.4457 -0.5458 -0.3265
17368TIP3    H273520   3.157   4.446   0.180  0.3781 -0.6511 -1.2206
17369TIP3   OH273521   6.629   1.679  16.123  0.1411  0.0799 -0.1675
17369TIP3    H173522   6.598   1.746  16.184 -0.5169 -0.5561  0.2199
17369TIP3    H273523   6.555   1.617  16.116  0.1104  0.2516 -1.7833
17370TIP3   OH273524   2.634   2.505  13.949 -0.3427 -0.2742  0.3176
17370TIP3    H173525   2.644   2.556  13.869  1.4813 -0.6392  0.2595
17370TIP3    H273526   2.574   2.556  14.003 -0.2348  0.8547 -0.5929
17371TIP3   OH273527   3.532   4.829  14.130 -0.3324  0.4515 -0.0865
17371TIP3    H173528   3.490   4.747  14.153  2.6773 -0.7293  1.8319
17371TIP3    H273529   3.463   4.895  14.139 -1.7251 -1.2041  3.6516
17372TIP3   OH273530   4.967   3.590   1.787  0.2488  0.9578 -0.0695
17372TIP3    H173531   4.873   3.606   1.795 -0.0458  1.5713 -3.1951
17372TIP3    H273532   4.973   3.511   1.732  1.5903  0.5061  0.6805
17373TIP3   OH273533   5.298   5.954  12.195 -0.3477  0.0333  0.0309
17373TIP3    H173534   5.348   5.954  12.277  1.9364  0.2034 -1.2518
17373TIP3    H273535   5.354   5.905  12.134 -2.4210 -0.9332 -1.2033
17374TIP3   OH273536   1.558   2.233   4.091  0.5321 -0.1892 -0.5345
17374TIP3    H173537   1.573   2.160   4.151  1.2802  1.2045  1.0666
17374TIP3    H273538   1.524   2.303   4.146  1.1425  1.1290 -1.7571
17375TIP3   OH273539   3.828   2.427  16.565  0.9832 -0.2688 -0.2469
17375TIP3    H173540   3.819   2.522  16.567  1.0842 -0.2188 -1.3089
17375TIP3    H273541   3.851   2.403  16.654  0.2491  0.6277  0.2063
17376TIP3   OH273542   1.755   0.739  12.258  0.6496  0.1432 -0.1101
17376TIP3    H173543   1.663   0.729  12.232  0.5084  0.4393  0.2749
17376TIP3    H273544   1.753   0.739  12.354  1.0228  0.3728 -0.1008
17377TIP3   OH273545   1.716   3.765   4.329  0.0344  0.1134 -0.1736
17377TIP3    H173546   1.704   3.800   4.417 -2.5979 -0.0808 -0.3821
17377TIP3    H273547   1.717   3.843   4.272  0.6644  0.1698 -0.0997
17378TIP3   OH273548   5.158   4.849   3.839  0.0251 -0.5272  0.1782
17378TIP3    H173549   5.100   4.911   3.884 -3.0264 -0.7555 -3.0326
17378TIP3    H273550   5.210   4.903   3.780 -2.1839 -0.7699 -2.1531
17379TIP3   OH273551   6.239   4.378  16.208 -0.4596 -0.0050 -0.4617
17379TIP3    H173552   6.211   4.370  16.117  1.5345 -1.8613 -1.0077
17379TIP3    H273553   6.333   4.359  16.206 -0.7650 -2.5447  2.2305
17380TIP3   OH273554   3.716   3.071   6.007  0.2441  0.1458  0.6560
17380TIP3    H173555   3.639   3.114   6.044  0.3363 -0.4649  1.5881
17380TIP3    H273556   3.788   3.132   6.022  0.0116  0.5835  0.0565
17381TIP3   OH273557   1.067   4.383  17.154 -0.2300  0.2942  0.2211
17381TIP3    H173558   1.024   4.328  17.220 -1.2993 -1.3257 -1.7281
17381TIP3    H273559   1.005   4.455  17.140 -0.6835 -0.1364 -0.0326
17382TIP3   OH273560   6.756   0.401   5.635  0.0639  0.3795 -0.3361
17382TIP3    H173561   6.793   0.444   5.712  2.5666 -2.7414  0.3969
17382TIP3    H273562   6.828   0.399   5.572 -0.0272 -2.2296 -0.4665
17383TIP3   OH273563   1.132   4.621   5.179  0.0334 -1.2367  0.3298
17383TIP3    H173564   1.038   4.604   5.174 -0.1331 -0.0409 -1.7680
17383TIP3    H273565   1.170   4.564   5.113  0.2550  0.9735 -1.6136
17384TIP3   OH273566   5.349   0.309   0.590  0.0133  0.5762 -0.1178
17384TIP3    H173567   5.429   0.339   0.547  0.2307  1.6963  1.0042
17384TIP3    H273568   5.329   0.226   0.547  1.2480  0.7267 -1.0636
17385TIP3   OH273569   2.503   2.612   0.017  0.1697  0.3825 -0.1897
17385TIP3    H173570   2.526   2.520   0.006 -0.6666 -0.1824  2.1722
17385TIP3    H273571   2.408   2.612   0.027  0.3136  1.2877  1.4172
17386TIP3   OH273572   0.610   3.145   4.437 -0.2575  0.1045  0.0744
17386TIP3    H173573   0.587   3.206   4.508 -2.0843 -1.7662  1.1788
17386TIP3    H273574   0.551   3.071   4.449 -0.9719 -0.1355 -3.7038
17387TIP3   OH273575   1.547   4.127  13.568  0.2681 -0.1162  0.1044
17387TIP3    H173576   1.622   4.097  13.619 -0.4542 -2.1351  0.0984
17387TIP3    H273577   1.554   4.079  13.485 -0.6916  0.1180 -0.1239
17388TIP3   OH273578   1.347   5.350  16.762  0.5895  0.3236  0.1458
17388TIP3    H173579   1.287   5.420  16.788  0.6028  0.6958 -0.7894
17388TIP3    H273580   1.374   5.373  16.673  1.7671 -0.0898  0.3830
17389TIP3   OH273581   5.952   0.568   5.380 -0.1196 -0.3866  0.5929
17389TIP3    H173582   5.929   0.488   5.428  1.2481 -0.0518  1.8739
17389TIP3    H273583   5.868   0.611   5.365 -0.7037 -1.1090  1.6195
17390TIP3   OH273584   5.163   3.911  13.944  0.1475 -0.5632 -0.1524
17390TIP3    H173585   5.198   3.980  13.887  0.9429 -0.9337 -0.1260
17390TIP3    H273586   5.120   3.959  14.016  1.1285 -0.0844  0.1307
17391TIP3   OH273587   4.793   0.030  12.432 -0.1239  0.0174 -0.2537
17391TIP3    H173588   4.846   0.103  12.401  2.0711 -1.1728  0.4377
17391TIP3    H273589   4.713   0.033  12.380  1.0393  1.3468 -2.0509
17392TIP3   OH273590   0.592   6.502  15.301  0.0675  0.4166  0.2550
17392TIP3    H173591   0.623   6.554  15.226 -1.4790  1.4722  0.2942
17392TIP3    H273592   0.657   6.517  15.369  2.4267 -1.8838 -1.3042
17393TIP3   OH273593   1.404   0.533  15.791 -0.2292  0.4203 -0.4898
17393TIP3    H173594   1.318   0.501  15.765 -0.2931 -0.8808  1.2182
17393TIP3    H273595   1.426   0.484  15.869  1.8707  1.0804 -0.6022
17394TIP3   OH273596   5.841   5.496   1.927  0.4358 -0.2783  0.4787
17394TIP3    H173597   5.820   5.462   1.840  1.7553 -1.6563  0.6587
17394TIP3    H273598   5.867   5.419   1.977  1.3341  0.7121  1.5948
17395TIP3   OH273599   2.591   1.497   0.327  0.3104  0.1872  0.3860
17395TIP3    H173600   2.606   1.480   0.420  0.4045 -0.8304  0.1976
17395TIP3    H273601   2.615   1.588   0.315 -0.7610  0.6517  1.5797
17396TIP3   OH273602   1.854   5.216  13.818  0.2895  0.2808 -0.3530
17396TIP3    H173603   1.876   5.149  13.753 -1.1990  0.3650 -0.9915
17396TIP3    H273604   1.842   5.168  13.900  0.5611 -0.0442 -0.5017
17397TIP3   OH273605   0.053   0.755   1.778  0.4370 -0.3120 -0.9316
17397TIP3    H173606   0.095   0.812   1.713 -1.6582  1.5252 -0.8125
17397TIP3    H273607  -0.036   0.790   1.785 -0.2360 -2.2255  0.8910
17398TIP3   OH273608   1.439   4.775  15.728 -0.1233  0.0176  0.4107
17398TIP3    H173609   1.347   4.795  15.711  0.3660  3.0362  0.8313
17398TIP3    H273610   1.485   4.796  15.647  0.2573 -1.4089  0.2208
17399TIP3   OH273611   1.640   4.572  12.518 -0.6542  0.1122 -0.3422
17399TIP3    H173612   1.732   4.547  12.511 -0.2841  1.7673 -3.2804
17399TIP3    H273613   1.640   4.643  12.582  0.3756  0.8869 -1.1516
17400TIP3   OH273614   2.483   1.742  11.765 -0.4750 -0.1428  0.1397
17400TIP3    H173615   2.534   1.748  11.684  0.7858  0.4800  0.9518
17400TIP3    H273616   2.482   1.649  11.785  1.2205 -0.0970  0.6168
17401TIP3   OH273617   2.462   4.862  14.164 -0.4192 -0.7577  0.1466
17401TIP3    H173618   2.390   4.828  14.111 -0.3029 -0.4208 -0.2348
17401TIP3    H273619   2.505   4.784  14.199  0.4771 -1.0661 -1.5462
17402TIP3   OH273620   6.646   3.416   1.791  0.3829  0.0687  0.0736
17402TIP3    H173621   6.733   3.398   1.757 -0.1351 -0.1593 -1.1915
17402TIP3    H273622   6.609   3.330   1.808  0.5022  0.1723  0.9055
17403TIP3   OH273623   3.284   4.788  13.886 -0.4232 -0.1910  0.4564
17403TIP3    H173624   3.249   4.799  13.975  0.3660  0.3790  0.7093
17403TIP3    H273625   3.305   4.877  13.858  0.4355 -0.4804  0.1631
17404TIP3   OH273626   0.037   5.965   6.375 -0.1374  0.4140 -0.2713
17404TIP3    H173627  -0.052   5.930   6.370 -1.3017  2.4268  2.9658
17404TIP3    H273628   0.070   5.935   6.460  1.7257  0.8909 -0.7826
17405TIP3   OH273629   3.782   3.561   5.763 -0.6349 -0.2083 -0.4108
17405TIP3    H173630   3.794   3.466   5.760  2.5726  0.1099 -0.9102
17405TIP3    H273631   3.791   3.589   5.672 -0.2276  0.6853 -0.1047
17406TIP3   OH273632   5.318   4.197   1.605  0.2442 -0.6650  0.2879
17406TIP3    H173633   5.268   4.118   1.627  1.8145 -1.2227  2.1593
17406TIP3    H273634   5.364   4.176   1.524 -0.0450 -1.3388  0.2973
17407TIP3   OH273635   4.687   0.794  13.357  0.2497  0.3510 -0.2369
17407TIP3    H173636   4.610   0.839  13.323 -0.8094 -0.1940  1.3193
17407TIP3    H273637   4.658   0.705  13.373  1.8433 -0.4952 -1.6697
17408TIP3   OH273638   0.578   5.643  13.480  0.1818 -0.3167 -0.3214
17408TIP3    H173639   0.579   5.739  13.487 -1.1196  0.1381 -4.2632
17408TIP3    H273640   0.487   5.619  13.497  0.6418 -1.0170  1.3570
17409TIP3   OH273641   6.495   2.712   3.879 -0.0409  0.6042  0.4855
17409TIP3    H173642   6.540   2.756   3.951  0.0775 -0.3657  1.0167
17409TIP3    H273643   6.563   2.698   3.813  0.2864 -0.1984  0.9799
17410TIP3   OH273644   2.777   3.017   0.196 -0.3835 -0.0055  0.2863
17410TIP3    H173645   2.706   3.002   0.133  0.3597  0.6137 -0.7174
17410TIP3    H273646   2.816   3.100   0.169  0.4470 -0.1189  1.0969
17411TIP3   OH273647   6.064   0.150  13.016 -0.0687  0.1419  0.2849
17411TIP3    H173648   6.117   0.080  13.054 -1.1633 -0.7247  0.2560
17411TIP3    H273649   6.015   0.186  13.091  1.7048  2.0406  0.6203
17412TIP3   OH273650   5.030   1.121   4.671 -0.1309 -0.5437 -0.3845
17412TIP3    H173651   5.059   1.199   4.719  1.1179 -0.7481 -0.7780
17412TIP3    H273652   4.983   1.156   4.596  0.7489 -0.1392 -0.7635
17413TIP3   OH273653   4.965   0.966  16.705 -0.3154  0.1171  0.0897
17413TIP3    H173654   5.044   0.960  16.759 -0.8305  3.5067  1.4483
17413TIP3    H273655   4.969   0.890  16.648  2.5353 -1.2790  1.9310
17414TIP3   OH273656   4.314   4.442  11.402 -0.2988  0.7774  0.0904
17414TIP3    H173657   4.231   4.440  11.354 -0.5442 -1.4042  0.5170
17414TIP3    H273658   4.313   4.363  11.456  2.0240  0.7237  0.1644
17415TIP3   OH273659   1.490   6.759   4.302 -0.6467  0.0022 -0.0088
17415TIP3    H173660   1.462   6.693   4.364 -2.0811  1.1938  0.6658
17415TIP3    H273661   1.520   6.710   4.226  2.2552 -1.5708  1.9602
17416TIP3   OH273662   6.138   1.873  16.891  0.1557  0.0484 -0.2971
17416TIP3    H173663   6.219   1.903  16.931  0.0178 -0.2982  0.2536
17416TIP3    H273664   6.132   1.781  16.915 -0.2913  0.0141 -0.5262
17417TIP3   OH273665   4.038   1.533  14.628 -0.3344 -0.0037 -0.1234
17417TIP3    H173666   4.041   1.629  14.634 -2.5836  0.1531 -0.5909
17417TIP3    H273667   4.006   1.505  14.714 -0.2854 -0.3125 -0.2062
17418TIP3   OH273668   3.391   4.782   3.532 -0.0069 -0.2302  0.0877
17418TIP3    H173669   3.460   4.722   3.560 -0.0160  0.0906  0.8342
17418TIP3    H273670   3.324   4.775   3.600  0.5448  1.5520  0.8896
17419TIP3   OH273671   4.173   2.536   6.285 -0.0714  0.0545 -0.1517
17419TIP3    H173672   4.187   2.609   6.345 -0.1286 -0.8230  0.9706
17419TIP3    H273673   4.150   2.462   6.342  1.8519 -1.3413 -1.0571
17420TIP3   OH273674   0.282   2.697   0.287 -0.0220 -0.3386 -0.4517
17420TIP3    H173675   0.211   2.714   0.224  0.0704 -0.4821 -0.5939
17420TIP3    H273676   0.245   2.633   0.347  0.2282 -0.9514 -0.9429
17421TIP3   OH273677   1.961   0.036  14.643  0.2264 -0.5495  0.0893
17421TIP3    H173678   1.988   0.127  14.628 -0.3436 -0.4500 -0.3400
17421TIP3    H273679   1.984  -0.010  14.563 -2.0893 -0.1808 -0.8525
17422TIP3   OH273680   0.491   0.675  16.309 -0.4198  0.0027  0.2731
17422TIP3    H173681   0.425   0.743  16.328 -1.5738 -1.2005  0.7188
17422TIP3    H273682   0.574   0.716  16.332 -1.0368  1.4411  0.0599
17423TIP3   OH273683   0.860   4.967   4.107 -0.4851  0.1655 -0.4733
17423TIP3    H173684   0.877   4.881   4.070  2.8350  0.6052 -0.2317
17423TIP3    H273685   0.807   5.012   4.041 -0.3213 -1.2799 -1.6305
17424TIP3   OH273686   3.404   2.570  13.252 -0.3658 -0.4361 -0.6351
17424TIP3    H173687   3.429   2.519  13.175 -1.1579 -1.2229 -0.3861
17424TIP3    H273688   3.358   2.507  13.309 -0.6405  0.3602  0.0437
17425TIP3   OH273689   0.930   2.884   4.563 -0.0245  0.0020  0.2807
17425TIP3    H173690   1.007   2.939   4.548 -0.3303  0.1608 -0.7788
17425TIP3    H273691   0.889   2.875   4.476 -1.9651  1.0647  1.0082
17426TIP3   OH273692   2.149   1.411  12.848 -0.4550  0.0550 -0.0172
17426TIP3    H173693   2.237   1.431  12.816 -0.3314 -0.0236  0.2636
17426TIP3    H273694   2.092   1.429  12.774 -0.2087  0.1732 -0.1819
17427TIP3   OH273695   5.459   0.624   3.818  0.4559  0.1468  0.0456
17427TIP3    H173696   5.376   0.606   3.773  0.3710 -0.6903  0.5134
17427TIP3    H273697   5.511   0.671   3.754 -0.1447  0.1169 -0.4796
17428TIP3   OH273698   6.089   2.675   2.199  0.0175 -0.0646 -0.7748
17428TIP3    H173699   6.114   2.589   2.165  3.0253 -0.1612  1.3608
17428TIP3    H273700   6.171   2.724   2.203 -1.2370  2.0762  0.3719
17429TIP3   OH273701   5.257   5.822   2.451  0.0149  0.4684 -0.3973
17429TIP3    H173702   5.191   5.757   2.424 -0.7430  1.0006  0.1566
17429TIP3    H273703   5.316   5.773   2.508  0.8007 -0.3114 -1.8053
17430TIP3   OH273704   3.931   5.559   0.982 -0.7076  0.4429  0.1559
17430TIP3    H173705   3.900   5.540   0.894  1.4329 -2.1555 -0.1566
17430TIP3    H273706   3.889   5.493   1.037 -0.5967  0.8946  0.8008
17431TIP3   OH273707   5.324   5.999   2.251 -0.4021  0.5757 -0.2484
17431TIP3    H173708   5.270   5.965   2.322  0.6310 -0.1645  0.2067
17431TIP3    H273709   5.414   5.995   2.285 -0.0321  1.6947 -1.0167
17432TIP3   OH273710   3.961   3.600   1.198  0.2929 -0.0783 -0.2205
17432TIP3    H173711   4.000   3.638   1.119 -0.6588 -0.9761 -1.1569
17432TIP3    H273712   3.972   3.506   1.187 -1.4952 -0.3208 -0.2011
17433TIP3   OH273713   4.473   0.005  16.378  0.0658  0.0288  0.1427
17433TIP3    H173714   4.455  -0.078  16.334  0.1531  0.7767 -1.3583
17433TIP3    H273715   4.562  -0.006  16.414  0.0285 -0.5649  0.0717
17434TIP3   OH273716   2.845   1.918   2.993 -0.6952 -0.2674 -0.6589
17434TIP3    H173717   2.781   1.911   3.064  1.5875  1.3389  1.7471
17434TIP3    H273718   2.878   1.829   2.981 -1.6070 -0.6816 -0.2214
17435TIP3   OH273719   5.927   5.006  14.390 -0.7211 -0.3603  0.6543
17435TIP3    H173720   5.973   4.972  14.467 -1.0129 -0.6004  0.7251
17435TIP3    H273721   5.899   4.928  14.343 -0.1285 -0.2169  0.0442
17436TIP3   OH273722   0.420   5.107  16.189 -0.4429 -0.1586  0.4866
17436TIP3    H173723   0.444   5.170  16.121  1.5646 -1.0092  0.3383
17436TIP3    H273724   0.389   5.030  16.140 -1.2138  0.0565  0.6229
17437TIP3   OH273725   0.306   1.282  15.482 -0.4133  0.4686  0.2628
17437TIP3    H173726   0.251   1.245  15.413 -1.9496  0.2826  1.5190
17437TIP3    H273727   0.313   1.375  15.461  1.2100  0.0015 -1.4474
17438TIP3   OH273728   6.767   5.451  13.252 -0.1637 -0.3089 -0.0209
17438TIP3    H173729   6.841   5.394  13.267  0.1151  0.4789  1.7907
17438TIP3    H273730   6.725   5.416  13.173  1.0450 -1.8660 -0.0059
17439TIP3   OH273731   1.534   6.101  16.594 -0.4552  0.1523  0.5079
17439TIP3    H173732   1.558   6.175  16.649 -1.0314  0.7387 -0.0109
17439TIP3    H273733   1.537   6.137  16.505  0.7775 -0.8544  0.1160
17440TIP3   OH273734   2.788   1.404  10.614  0.2704 -0.0964  0.3608
17440TIP3    H173735   2.708   1.454  10.631  0.9804  1.2717 -0.1846
17440TIP3    H273736   2.780   1.376  10.522  0.2117 -0.3459  0.4422
17441TIP3   OH273737   4.547   6.784   2.997  0.3844 -0.1043  0.0566
17441TIP3    H173738   4.452   6.771   2.989  0.0446  1.8240  0.3163
17441TIP3    H273739   4.567   6.754   3.086 -0.5086  1.7841  0.9706
17442TIP3   OH273740   3.927   3.093   0.393 -0.6053  0.2022  0.7114
17442TIP3    H173741   4.011   3.124   0.359 -0.9575  1.8202  1.2287
17442TIP3    H273742   3.877   3.068   0.315  0.9036 -2.4762  0.4626
17443TIP3   OH273743   4.554   2.417   5.508  0.3795 -0.0337  0.4938
17443TIP3    H173744   4.486   2.463   5.558  0.3723  0.4222  0.0706
17443TIP3    H273745   4.634   2.466   5.527  0.2026  0.8080 -0.7586
17444TIP3   OH273746   4.028   0.041  12.069  0.1207  0.0547  0.1006
17444TIP3    H173747   4.034   0.135  12.087  0.0373  0.2505 -0.8314
17444TIP3    H273748   4.064   0.032  11.981  3.1419 -1.2286  1.3296
17445TIP3   OH273749   3.832   1.336  15.456  0.3660 -0.1421  0.4878
17445TIP3    H173750   3.817   1.365  15.366 -1.1316 -1.8939  0.1026
17445TIP3    H273751   3.758   1.374  15.505  1.4383  1.2152  1.1320
17446TIP3   OH273752   4.307   4.517  13.037 -0.0167 -0.1556  0.5976
17446TIP3    H173753   4.310   4.604  12.999  0.5563 -1.2810 -2.1426
17446TIP3    H273754   4.348   4.527  13.123  1.0146  2.0421 -0.0795
17447TIP3   OH273755   1.830   5.124   0.143  0.0651  0.5161  0.0437
17447TIP3    H173756   1.823   5.069   0.065  0.2490 -0.1232  0.4725
17447TIP3    H273757   1.823   5.213   0.109  0.0337  0.2460 -0.6936
17448TIP3   OH273758   3.974   4.108  12.297  0.3321 -0.4191 -0.5791
17448TIP3    H173759   4.027   4.030  12.314 -1.6004 -2.1403 -2.0059
17448TIP3    H273760   3.968   4.113  12.201 -1.6964 -0.0633 -0.4819
17449TIP3   OH273761   4.202   5.188   4.383 -0.4098 -0.1823 -0.0989
17449TIP3    H173762   4.187   5.116   4.321 -1.6921  0.1819 -0.2422
17449TIP3    H273763   4.238   5.145   4.461 -3.2626 -1.3795  0.6962
17450TIP3   OH273764   5.517   2.229   5.639 -0.2345 -0.0018 -0.3640
17450TIP3    H173765   5.593   2.229   5.581  0.3567  0.7104  0.3960
17450TIP3    H273766   5.449   2.183   5.589  0.5150 -0.1507 -1.2740
17451TIP3   OH273767   6.412   4.939   1.634 -0.4552  0.6330  0.7221
17451TIP3    H173768   6.495   4.983   1.615  0.4497 -0.9447  0.8530
17451TIP3    H273769   6.421   4.908   1.724  0.1519 -2.2391 -0.2236
17452TIP3   OH273770   5.997   6.129  13.272  0.7946  0.8876 -0.9258
17452TIP3    H173771   5.905   6.119  13.247  0.8728 -0.5456 -0.7166
17452TIP3    H273772   5.998   6.109  13.366  0.9388  3.4673 -0.3155
17453TIP3   OH273773   3.574   4.228  16.656  0.6747 -0.5128 -0.6270
17453TIP3    H173774   3.665   4.255  16.669  0.3078  1.4469 -1.6372
17453TIP3    H273775   3.529   4.309  16.632 -1.1901 -1.5823 -0.9217
17454TIP3   OH273776   6.005   0.589   2.509  0.4843  0.3892  0.2543
17454TIP3    H173777   6.077   0.652   2.519  0.9369  0.3655 -2.2823
17454TIP3    H273778   5.959   0.618   2.430 -1.1787 -0.6956  0.7881
17455TIP3   OH273779   0.860   5.417   0.585  0.2604  0.0311  0.5538
17455TIP3    H173780   0.936   5.359   0.575  1.2436  1.5930 -2.0108
17455TIP3    H273781   0.874   5.485   0.519 -2.0651  1.8473  1.8300
17456TIP3   OH273782   0.051   2.891   0.823 -0.6441 -0.7122 -0.4450
17456TIP3    H173783   0.106   2.868   0.748 -0.9660 -1.3768 -0.4801
17456TIP3    H273784  -0.023   2.939   0.784  0.5847  1.4939 -0.2675
17457TIP3   OH273785   5.245   0.501   4.089  0.0246 -0.2124 -0.3076
17457TIP3    H173786   5.168   0.468   4.136 -1.3816  1.8609 -1.0540
17457TIP3    H273787   5.246   0.595   4.107  0.7594  0.2709 -2.5793
17458TIP3   OH273788   3.632   3.137  13.881  0.5304 -0.4489 -0.2778
17458TIP3    H173789   3.593   3.225  13.877  0.0391 -0.6796 -0.5605
17458TIP3    H273790   3.558   3.077  13.879  0.8947 -0.8917 -0.7789
17459TIP3   OH273791   5.536   1.319   5.974 -0.1649 -0.4802  0.3808
17459TIP3    H173792   5.453   1.303   6.019  0.7054 -1.1803  1.7997
17459TIP3    H273793   5.520   1.291   5.884 -2.4496  2.4177 -0.2950
17460TIP3   OH273794   5.958   6.768   1.360 -0.1362  0.0669  0.3202
17460TIP3    H173795   5.945   6.772   1.455 -0.5990 -0.1062  0.2661
17460TIP3    H273796   6.050   6.742   1.349 -1.2800 -5.3777  0.7953
17461TIP3   OH273797   2.978   2.055   1.306 -0.4365 -0.3449  0.0602
17461TIP3    H173798   2.981   2.049   1.401  1.4324 -3.2848 -0.0651
17461TIP3    H273799   2.956   1.966   1.277  0.0897  0.2260 -2.2682
17462TIP3   OH273800   0.860   5.606   1.932 -0.0507 -0.0422 -0.3774
17462TIP3    H173801   0.842   5.514   1.953  0.2762 -0.1739 -0.6678
17462TIP3    H273802   0.919   5.635   2.001 -2.0419  0.6623  1.1266
17463TIP3   OH273803   6.784   5.274   2.167 -0.4691  0.4855 -0.1384
17463TIP3    H173804   6.739   5.286   2.084 -1.9641  1.7963  0.7970
17463TIP3    H273805   6.786   5.179   2.180 -0.8113  0.3006 -1.3286
17464TIP3   OH273806   2.996   0.293  11.198  0.3960 -0.0688 -0.4031
17464TIP3    H173807   3.035   0.239  11.267  1.2963  0.0738 -0.7835
17464TIP3    H273808   2.994   0.381  11.236 -0.9889 -0.3244  0.1831
17465TIP3   OH273809   3.182   2.015  16.053  0.2166 -0.3920  0.0225
17465TIP3    H173810   3.215   1.925  16.057  0.9801 -0.0857  1.1850
17465TIP3    H273811   3.154   2.033  16.143 -0.6616  0.2754 -0.3756
17466TIP3   OH273812   5.250   4.450   3.454  0.2563 -0.5265  0.1356
17466TIP3    H173813   5.186   4.405   3.510  0.1963  1.0182  1.3875
17466TIP3    H273814   5.322   4.473   3.514  0.7908  0.0253 -0.7055
17467TIP3   OH273815   5.066   1.747  15.944  0.2551 -0.8064  0.0399
17467TIP3    H173816   5.107   1.827  15.977  0.0381 -0.5801 -0.2367
17467TIP3    H273817   4.973   1.768  15.939  0.4691 -0.2476 -2.3698
17468TIP3   OH273818   5.586   1.934  17.087 -0.1920  0.2263 -0.2994
17468TIP3    H173819   5.520   1.917  17.154  0.1311  1.0427  0.2443
17468TIP3    H273820   5.637   1.853  17.082 -1.0973 -0.3368 -0.5757
17469TIP3   OH273821   5.341   1.532  14.043  0.2017 -0.2219  0.4575
17469TIP3    H173822   5.346   1.597  14.113 -0.8498  0.1348  0.2252
17469TIP3    H273823   5.285   1.463  14.078 -0.5270  0.0730 -0.1072
17470TIP3   OH273824   0.519   1.135   4.930  0.9545 -0.9103 -0.1795
17470TIP3    H173825   0.441   1.079   4.936  0.5841 -0.3478  0.4185
17470TIP3    H273826   0.587   1.085   4.975  0.4355 -0.5734  1.0184
17471TIP3   OH273827   0.725   1.180   5.224 -0.0206 -0.0067  0.1449
17471TIP3    H173828   0.721   1.249   5.158  0.1524 -0.4596 -0.3430
17471TIP3    H273829   0.696   1.222   5.305 -0.1581  0.5701 -0.2041
17472TIP3   OH273830   3.350   3.437  15.258  0.0628  0.1234 -0.2309
17472TIP3    H173831   3.308   3.392  15.184 -0.1331 -1.4450  0.7703
17472TIP3    H273832   3.403   3.369  15.300  0.3566  1.0344  0.9284
17473TIP3   OH273833   6.066   3.518  11.898 -0.8186 -0.4106  0.0510
17473TIP3    H173834   6.110   3.603  11.898 -2.2438  0.5034 -3.0280
17473TIP3    H273835   6.069   3.489  11.989  0.6329  2.4451  1.0476
17474TIP3   OH273836   1.344   3.584   6.338  0.0395  0.4423 -0.4661
17474TIP3    H173837   1.373   3.527   6.410 -0.1170 -1.1905 -1.6260
17474TIP3    H273838   1.312   3.523   6.271 -1.4847  1.9720 -1.2161
17475TIP3   OH273839   1.243   6.387   4.595  0.8972 -0.2358 -0.3090
17475TIP3    H173840   1.252   6.478   4.567 -1.6331  1.0457  2.4459
17475TIP3    H273841   1.300   6.379   4.671 -0.8045 -0.0692  1.0443
17476TIP3   OH273842   4.275   5.130  12.641 -0.0806  0.1455 -0.4199
17476TIP3    H173843   4.339   5.192  12.605  0.6770 -0.6033 -0.3945
17476TIP3    H273844   4.263   5.065  12.572 -2.0204  1.1057 -1.0398
17477TIP3   OH273845   0.797   1.834   3.043  0.3526  0.2579  0.3340
17477TIP3    H173846   0.870   1.773   3.032 -0.2197 -0.1165 -1.8316
17477TIP3    H273847   0.821   1.887   3.119  3.9638  1.6488 -1.5285
17478TIP3   OH273848   2.422   5.928  16.198  0.0596  0.2880 -0.0168
17478TIP3    H173849   2.361   5.931  16.125 -1.0117  1.1736  0.8843
17478TIP3    H273850   2.367   5.913  16.275  0.8281  2.2033  0.9633
17479TIP3   OH273851   2.872   1.502   0.081  0.7830 -0.4751 -0.3386
17479TIP3    H173852   2.780   1.527   0.090  0.2778 -2.0765 -0.8109
17479TIP3    H273853   2.916   1.581   0.049 -0.5267  0.1451 -0.6365
17480TIP3   OH273854   3.046   3.456  17.237 -0.2034  0.3706 -0.9405
17480TIP3    H173855   3.003   3.539  17.215 -0.5538  0.0685 -1.4303
17480TIP3    H273856   3.111   3.479  17.303 -0.9983  0.8639 -0.3211
17481TIP3   OH273857   6.133   5.474   4.770  0.3323 -0.0843 -0.2242
17481TIP3    H173858   6.121   5.436   4.683 -0.8731 -3.3622  1.2324
17481TIP3    H273859   6.226   5.466   4.788  0.7275  1.3453 -1.4470
17482TIP3   OH273860   3.964   1.501   0.975  0.8268  0.6884 -0.2461
17482TIP3    H173861   4.031   1.435   0.992  0.0181 -0.1093 -0.0349
17482TIP3    H273862   3.942   1.490   0.883  0.3689  0.3284 -0.1029
17483TIP3   OH273863   2.396   6.607   1.538  0.1386  0.2587 -0.4241
17483TIP3    H173864   2.444   6.559   1.471 -0.7426 -0.1690 -0.7608
17483TIP3    H273865   2.386   6.695   1.503 -0.5833 -0.0444 -0.9995
17484TIP3   OH273866   0.529   1.918   3.425  0.4250  0.3421  0.2459
17484TIP3    H173867   0.578   1.957   3.497 -0.6158 -1.0380  1.7588
17484TIP3    H273868   0.563   1.961   3.347  1.1881  2.2959  1.5916
17485TIP3   OH273869   1.404   6.403   3.243 -0.1587  0.3753 -0.0731
17485TIP3    H173870   1.346   6.410   3.168 -2.5229 -3.5064  1.0927
17485TIP3    H273871   1.461   6.329   3.223  1.5539  1.4504  0.6037
17486TIP3   OH273872   6.351   4.834  11.931  0.5127 -0.1769 -0.1085
17486TIP3    H173873   6.350   4.750  11.976  0.0301  0.4647  1.1292
17486TIP3    H273874   6.262   4.845  11.898 -0.1906  0.9986  2.0199
17487TIP3   OH273875   2.712   0.196   1.061  0.3959  0.3882 -0.1809
17487TIP3    H173876   2.657   0.247   1.001 -0.6455  2.2519  2.2202
17487TIP3    H273877   2.656   0.123   1.088  0.4656  0.1721 -0.6160
17488TIP3   OH273878   6.178   6.314  13.246 -0.4892  0.1247  0.4882
17488TIP3    H173879   6.104   6.253  13.240  0.5539 -1.0654 -1.1248
17488TIP3    H273880   6.187   6.350  13.158  1.4044 -0.4691  0.3861
17489TIP3   OH273881   6.676   6.024   5.261 -0.6412  0.7836 -0.0523
17489TIP3    H173882   6.733   5.999   5.188 -1.1173 -0.1351 -0.1202
17489TIP3    H273883   6.722   6.096   5.304 -0.4938  1.5640 -1.4365
17490TIP3   OH273884   2.202   5.099  11.100  0.3234 -0.5362  0.3311
17490TIP3    H173885   2.231   5.114  11.189  2.3787  0.5287 -0.4622
17490TIP3    H273886   2.282   5.099  11.048 -0.8264 -1.0329 -1.5399
17491TIP3   OH273887   3.479   5.199  17.065 -0.4329 -0.1903  0.6606
17491TIP3    H173888   3.410   5.143  17.102 -1.3391 -0.9716 -2.0024
17491TIP3    H273889   3.539   5.138  17.021  1.3116  0.5958  1.8463
17492TIP3   OH273890   6.634   1.952  15.356 -0.3098  0.6318  0.0398
17492TIP3    H173891   6.636   2.048  15.347 -0.9470  0.7026  0.5631
17492TIP3    H273892   6.612   1.937  15.448  0.4069 -0.0267  0.1128
17493TIP3   OH273893   6.573   1.770  17.137 -0.0065  0.6270  0.2070
17493TIP3    H173894   6.516   1.774  17.214  0.1381  0.1799  0.3364
17493TIP3    H273895   6.533   1.703  17.082 -0.6576  1.6060 -0.5562
17494TIP3   OH273896   1.512   5.387  16.332 -0.1989 -0.6387 -0.7217
17494TIP3    H173897   1.600   5.425  16.331  0.2435 -1.6187 -0.3283
17494TIP3    H273898   1.493   5.368  16.240  0.1684 -0.8039 -0.7639
17495TIP3   OH273899   1.887   2.882   4.174 -0.3148 -0.0313  0.1255
17495TIP3    H173900   1.878   2.801   4.124  1.7489  0.8342 -1.8854
17495TIP3    H273901   1.828   2.944   4.130 -0.5588  0.0314  0.5338
17496TIP3   OH273902   5.291   4.240   4.889  0.4890  0.3022 -0.7120
17496TIP3    H173903   5.352   4.204   4.824  0.8193  0.8650 -0.7259
17496TIP3    H273904   5.234   4.167   4.912  0.0424  0.2151 -2.0113
17497TIP3   OH273905   1.759   2.371   2.207  0.5784 -0.3823 -0.1518
17497TIP3    H173906   1.712   2.320   2.142  0.4192  0.0521 -0.3832
17497TIP3    H273907   1.808   2.307   2.259 -0.1076 -0.8161 -0.0442
17498TIP3   OH273908   3.555   1.481  14.320  0.6305 -0.1237 -0.4347
17498TIP3    H173909   3.534   1.400  14.273 -0.5906  0.0292 -0.1872
17498TIP3    H273910   3.571   1.546  14.252 -0.9678  0.0551 -0.6730
17499TIP3   OH273911   4.057   0.887   1.674 -0.1231  0.2331  0.9438
17499TIP3    H173912   4.119   0.838   1.620 -2.5810 -0.0247 -1.9501
17499TIP3    H273913   4.020   0.822   1.734 -1.2541 -0.9395 -0.8922
17500TIP3   OH273914   1.448   2.847   1.111 -0.5151 -0.7954  0.2431
17500TIP3    H173915   1.409   2.870   1.027 -0.2846 -2.6255 -0.4138
17500TIP3    H273916   1.423   2.755   1.125 -0.7207 -0.4707  2.2796
17501TIP3   OH273917   6.547   4.589  15.161 -0.4834 -0.0573  0.7557
17501TIP3    H173918   6.494   4.664  15.135  0.0031  0.3572  0.9635
17501TIP3    H273919   6.595   4.565  15.082  0.6491  0.9180  1.1228
17502TIP3   OH273920   3.145   5.935   0.068  0.1902  0.2646  0.1332
17502TIP3    H173921   3.110   5.971  -0.014 -1.4080 -0.3320  0.5138
17502TIP3    H273922   3.227   5.982   0.081 -0.2792  1.4843 -1.0072
17503TIP3   OH273923   6.272   3.773  16.186 -0.2134  0.3245 -0.1512
17503TIP3    H173924   6.356   3.783  16.230 -1.0123  0.2103  1.5068
17503TIP3    H273925   6.208   3.772  16.258 -1.7577  1.7463 -1.4226
17504TIP3   OH273926   1.361   5.992   3.405 -0.1973  0.0509  0.2076
17504TIP3    H173927   1.328   5.928   3.342 -0.1358  0.3812 -0.1591
17504TIP3    H273928   1.297   5.989   3.477 -1.2329  0.9210 -0.6401
17505TIP3   OH273929   2.211   5.600   0.186 -0.2300 -0.3539  0.1508
17505TIP3    H173930   2.138   5.635   0.135  0.0048  0.1883  0.1864
17505TIP3    H273931   2.206   5.505   0.173 -0.9053 -0.3177  0.1045
17506TIP3   OH273932   1.608   3.566  11.401  1.2247  0.9242 -0.2197
17506TIP3    H173933   1.700   3.593  11.398  1.5885 -0.3292 -0.6283
17506TIP3    H273934   1.608   3.485  11.452  0.5234  0.1904 -1.3569
17507TIP3   OH273935   3.951   4.704  15.188  0.4598 -0.3050  0.3652
17507TIP3    H173936   4.001   4.785  15.196 -1.3788  0.9638 -0.1980
17507TIP3    H273937   4.013   4.641  15.152  2.5205  0.2134  2.6828
17508TIP3   OH273938   0.210   2.698  13.347 -0.4444  0.1857 -0.8670
17508TIP3    H173939   0.147   2.770  13.352 -1.3912 -0.6276 -0.9067
17508TIP3    H273940   0.171   2.628  13.398  1.3214  0.2840  0.7365
17509TIP3   OH273941   3.927   6.465  15.872  0.0329  1.1207 -0.3879
17509TIP3    H173942   3.986   6.406  15.826  0.3420  1.6121 -0.6263
17509TIP3    H273943   3.984   6.523  15.921 -0.2233  1.9622 -1.0612
17510TIP3   OH273944   2.751   3.301   2.746 -0.5589 -0.5374  0.0267
17510TIP3    H173945   2.805   3.297   2.825  0.2852  2.6093 -0.2513
17510TIP3    H273946   2.815   3.304   2.675 -1.1531  0.9115 -0.4672
17511TIP3   OH273947   6.094   6.687  15.327  0.5505  0.6697  0.7132
17511TIP3    H173948   6.046   6.646  15.399 -2.8190  1.2665 -1.0096
17511TIP3    H273949   6.097   6.780  15.350 -0.1519  0.8007  0.2639
17512TIP3   OH273950   4.486   2.816  13.244  0.0785 -0.5006 -0.0088
17512TIP3    H173951   4.532   2.897  13.269  2.6362 -2.2766  1.5300
17512TIP3    H273952   4.394   2.837  13.256  0.6541  2.1043  0.5930
17513TIP3   OH273953   2.714   2.157   0.379 -0.5866 -0.1367 -0.4376
17513TIP3    H173954   2.701   2.177   0.286 -2.0876  1.8846  0.1332
17513TIP3    H273955   2.693   2.239   0.424 -0.4735 -1.2400  1.7364
17514TIP3   OH273956   3.122   6.368   5.014 -0.2501  0.1185 -0.4646
17514TIP3    H173957   3.151   6.318   5.090 -0.6937 -0.4038 -0.6351
17514TIP3    H273958   3.186   6.439   5.006 -1.2236  1.3384  1.5549
17515TIP3   OH273959   2.266   1.083   0.681 -0.1396  0.7406 -0.4086
17515TIP3    H173960   2.231   1.027   0.611  0.9099 -0.2818 -0.1368
17515TIP3    H273961   2.219   1.166   0.670 -1.7981 -0.1883 -0.7808
17516TIP3   OH273962   2.089   3.167  12.407 -0.2604  0.3152  0.1908
17516TIP3    H173963   1.999   3.199  12.417 -0.1639  0.4479  0.6924
17516TIP3    H273964   2.121   3.158  12.497  0.4983  1.0438  0.0069
17517TIP3   OH273965   0.897   5.845  15.581  0.6492  0.0808 -0.0210
17517TIP3    H173966   0.929   5.916  15.525  1.3536  0.1093  0.4059
17517TIP3    H273967   0.845   5.889  15.647  0.5530  0.1353 -0.1327
17518TIP3   OH273968   3.926   4.918   6.751 -0.7782 -0.2100 -0.3179
17518TIP3    H173969   3.925   4.997   6.696  0.8236  0.3496  0.4062
17518TIP3    H273970   3.864   4.937   6.822  1.9847  1.8540  1.7235
17519TIP3   OH273971   1.994   5.386   5.375  0.0509  0.3551  0.4455
17519TIP3    H173972   1.979   5.382   5.469  2.1551  1.3214  0.8723
17519TIP3    H273973   1.946   5.464   5.346 -0.2682  0.2836  0.7850
17520TIP3   OH273974   5.886   5.827   0.744  0.2917  0.1770  0.3225
17520TIP3    H173975   5.869   5.746   0.696  0.2416 -0.2389  1.0195
17520TIP3    H273976   5.974   5.817   0.779  1.2771  1.4875 -1.6312
17521TIP3   OH273977   1.922   2.853  10.921  0.0473 -0.5472 -0.4491
17521TIP3    H173978   1.844   2.860  10.866 -0.3634  0.6816  0.2519
17521TIP3    H273979   1.890   2.820  11.004  0.0126  1.2431  0.2936
17522TIP3   OH273980   0.745   4.746  12.493 -0.1420  0.3127 -0.5774
17522TIP3    H173981   0.742   4.683  12.564  2.5587 -0.3469 -0.9387
17522TIP3    H273982   0.664   4.731  12.444 -0.5449 -1.4110  0.5390
17523TIP3   OH273983   6.439   5.518   5.792 -0.1160  0.1792  0.3002
17523TIP3    H173984   6.521   5.524   5.840 -0.2234  1.3725  0.3772
17523TIP3    H273985   6.460   5.465   5.715  0.9179  1.0169 -0.0279
17524TIP3   OH273986   0.641   3.764   1.903  0.3343  0.1805 -0.0848
17524TIP3    H173987   0.670   3.807   1.823 -0.3671  1.6040  0.3711
17524TIP3    H273988   0.680   3.816   1.974 -0.9469  0.4121  0.4976
17525TIP3   OH273989   6.105   4.752   0.588  0.5706  0.2666  0.5501
17525TIP3    H173990   6.193   4.780   0.566  1.6474 -1.2450  2.6435
17525TIP3    H273991   6.069   4.825   0.639  0.7478  0.6919  0.0785
17526TIP3   OH273992   1.436   6.285   6.393  0.3867 -0.6151 -0.2962
17526TIP3    H173993   1.423   6.367   6.440  0.6269  0.2481 -1.6777
17526TIP3    H273994   1.355   6.273   6.343  1.4317  0.3420 -2.3421
17527TIP3   OH273995   4.688   4.535   4.455 -0.3544 -0.0455  0.4889
17527TIP3    H173996   4.774   4.563   4.423  0.0791 -0.8038  0.9473
17527TIP3    H273997   4.627   4.561   4.387  0.4345 -0.8657 -0.5710
17528TIP3   OH273998   3.372   4.810   1.253  0.3461 -0.1928 -0.4929
17528TIP3    H173999   3.311   4.881   1.272 -0.3680 -1.1939  1.0892
17528TIP3    H274000   3.424   4.801   1.332  0.2014 -1.6510 -0.5415
17529TIP3   OH274001   0.671   0.483  12.024  0.0131 -0.6582  0.1834
17529TIP3    H174002   0.589   0.435  12.011 -0.3105 -0.0764  0.0207
17529TIP3    H274003   0.677   0.496  12.118 -1.0024  0.8348  0.0789
17530TIP3   OH274004   2.287   4.394   5.020  0.2507 -0.4856 -0.2594
17530TIP3    H174005   2.354   4.460   5.002  0.5372 -0.9284 -0.8538
17530TIP3    H274006   2.206   4.433   4.987  0.0308  0.4145  1.2343
17531TIP3   OH274007   3.634   0.360   5.561 -0.0295 -0.1613 -0.3247
17531TIP3    H174008   3.555   0.320   5.598 -0.7530  0.8635 -0.7077
17531TIP3    H274009   3.692   0.372   5.637 -0.2434 -0.8862 -0.0350
17532TIP3   OH274010   4.080   3.074   1.890  0.4365 -0.3432  0.1992
17532TIP3    H174011   3.993   3.038   1.872  0.7667 -1.2248  0.3355
17532TIP3    H274012   4.063   3.164   1.918 -0.5081 -0.7808  1.1005
17533TIP3   OH274013   6.618   5.261  13.607  0.0389  0.3823  0.3159
17533TIP3    H174014   6.523   5.250  13.603 -0.0052  0.8064  0.1494
17533TIP3    H274015   6.635   5.336  13.550  0.5065  0.1154  0.1049
17534TIP3   OH274016   3.930   6.457  16.576 -0.0630 -0.0140  0.2038
17534TIP3    H174017   3.916   6.542  16.534  1.8708 -0.9343 -2.6925
17534TIP3    H274018   3.884   6.395  16.519 -0.7737 -1.0166  1.8239
17535TIP3   OH274019   4.903   1.688   4.051  0.0004 -0.1970 -0.3508
17535TIP3    H174020   4.902   1.614   4.111 -3.6105 -1.5715 -1.8022
17535TIP3    H274021   4.959   1.660   3.979  0.0514 -0.8077 -0.0775
17536TIP3   OH274022   2.983   1.255  16.924  0.2783  0.3978  0.2346
17536TIP3    H174023   3.075   1.240  16.946  0.4494 -0.4875 -0.9796
17536TIP3    H274024   2.980   1.251  16.829 -1.3465 -1.7044  0.3030
17537TIP3   OH274025   0.021   2.464   3.026  0.1624  0.0984  0.7237
17537TIP3    H174026   0.086   2.534   3.037  0.2588  0.3350 -1.1375
17537TIP3    H274027   0.069   2.383   3.045  0.2692  0.4453  2.0393
17538TIP3   OH274028   1.929   2.098  10.858 -0.3215 -0.1590  0.2560
17538TIP3    H174029   1.972   2.135  10.935 -0.7004 -0.4875  0.6332
17538TIP3    H274030   1.902   2.010  10.885  1.1043 -0.9680 -0.8249
17539TIP3   OH274031   5.555   2.815  13.549 -0.8547  0.5026 -0.2551
17539TIP3    H174032   5.634   2.794  13.599 -0.5903  3.3037  0.6757
17539TIP3    H274033   5.497   2.740  13.563  1.0076 -0.9074  0.3293
17540TIP3   OH274034   4.789   6.439   5.989 -0.2663 -0.3716 -0.2903
17540TIP3    H174035   4.787   6.429   6.084 -0.0529 -1.4912 -0.3873
17540TIP3    H274036   4.881   6.457   5.969  0.0249 -1.8686 -0.4165
17541TIP3   OH274037   4.980   0.178   2.165  0.4264  0.2982  0.1818
17541TIP3    H174038   4.995   0.143   2.253  1.7647  2.5633  0.9136
17541TIP3    H274039   4.966   0.100   2.111  1.1325 -1.2430  2.0959
17542TIP3   OH274040   0.999   2.150   2.964 -0.2296 -0.0280 -0.4053
17542TIP3    H174041   1.053   2.221   2.997  0.8357 -1.0966  0.2054
17542TIP3    H274042   1.040   2.071   2.997 -0.4907 -1.0321 -2.3118
17543TIP3   OH274043   0.233   3.986   1.534  0.0292  0.3523 -0.1862
17543TIP3    H174044   0.302   3.922   1.551 -0.0567  0.2557 -0.2029
17543TIP3    H274045   0.263   4.034   1.456  0.7397  1.2350  0.6078
17544TIP3   OH274046   4.118   5.659   3.875  0.1359 -0.0689 -0.2687
17544TIP3    H174047   4.109   5.746   3.913  3.0090  1.3345 -2.4397
17544TIP3    H274048   4.124   5.600   3.950  0.2754  1.8630  1.2994
17545TIP3   OH274049   1.546   4.712  15.978 -0.0027  0.0216 -0.1716
17545TIP3    H174050   1.513   4.739  15.893 -0.9640  0.1725  0.2372
17545TIP3    H274051   1.635   4.748  15.983  0.1313 -0.1420 -1.1689
17546TIP3   OH274052   4.374   6.482   6.433  0.6909  0.1060  0.5938
17546TIP3    H174053   4.363   6.403   6.379 -0.1047  1.0279 -0.6551
17546TIP3    H274054   4.321   6.465   6.511  0.1850 -0.4395  0.1443
17547TIP3   OH274055   3.530   2.499   1.068  0.2431  0.1921 -0.1034
17547TIP3    H174056   3.591   2.426   1.065 -0.7444 -0.6627 -0.1446
17547TIP3    H274057   3.462   2.476   1.005 -1.6863 -0.3751  2.0439
17548TIP3   OH274058   6.035   2.316   6.511  0.4380 -0.5468  0.3221
17548TIP3    H174059   6.117   2.300   6.464  0.5868  0.1017  0.3493
17548TIP3    H274060   6.052   2.396   6.561 -0.3340 -0.2182  0.0616
17549TIP3   OH274061   5.813   0.850   6.248 -0.2329 -0.1568 -0.4029
17549TIP3    H174062   5.831   0.787   6.318 -0.0717 -0.7011 -0.9220
17549TIP3    H274063   5.762   0.919   6.290  1.0463  0.2341  0.5659
17550TIP3   OH274064   4.590   0.029   1.496 -0.5027  0.4454  0.0364
17550TIP3    H174065   4.623  -0.047   1.449  2.3187  0.0821  2.3041
17550TIP3    H274066   4.509   0.052   1.451 -1.0304 -3.3138 -1.3310
17551TIP3   OH274067   1.379   2.248   2.433 -0.7859  0.0720 -0.7128
17551TIP3    H174068   1.349   2.331   2.395  0.2970  0.9011  0.1848
17551TIP3    H274069   1.471   2.263   2.455 -1.3870 -0.2273  2.4974
17552TIP3   OH274070   1.462   4.999   0.423  0.7513  0.0941  0.0709
17552TIP3    H174071   1.548   4.972   0.457  1.0577  0.0053 -0.7611
17552TIP3    H274072   1.481   5.075   0.368  0.1922  0.5466  0.4905
17553TIP3   OH274073   2.801   3.893  13.093 -0.0637 -0.2327  0.1522
17553TIP3    H174074   2.841   3.855  13.170 -1.3368 -0.4130  0.7499
17553TIP3    H274075   2.812   3.988  13.104 -2.2473 -0.0768  1.7876
17554TIP3   OH274076   4.620   5.373  12.926 -0.0700  0.8211 -0.2669
17554TIP3    H174077   4.715   5.376  12.919 -0.1408  2.0799 -0.9260
17554TIP3    H274078   4.592   5.312  12.857  0.2842 -0.1301  0.4088
17555TIP3   OH274079   2.958   5.330   1.287  0.1053 -0.1394 -0.2811
17555TIP3    H174080   2.950   5.307   1.194  0.3761  0.1428 -0.3782
17555TIP3    H274081   3.036   5.385   1.291  0.1337 -0.2068  0.1274
17556TIP3   OH274082   1.478   1.475   1.288  0.0992 -0.1190 -0.5248
17556TIP3    H174083   1.449   1.396   1.334  0.1256  0.0721 -0.1788
17556TIP3    H274084   1.469   1.453   1.195  2.6114 -1.4951 -0.5227
17557TIP3   OH274085   0.804   0.737   1.187 -0.8284 -0.2496 -0.8678
17557TIP3    H174086   0.889   0.771   1.216 -0.5047  1.2915 -3.3526
17557TIP3    H274087   0.825   0.654   1.144 -0.9332 -1.0381  0.5391
17558TIP3   OH274088   0.939   1.096  17.218 -0.3651  0.5692 -0.5247
17558TIP3    H174089   0.916   1.159  17.287 -1.7411  0.4223 -0.8290
17558TIP3    H274090   0.954   1.150  17.140 -0.3493  0.6084 -0.4944
17559TIP3   OH274091   0.354   4.187   4.955  0.3223  0.3667 -0.4714
17559TIP3    H174092   0.290   4.136   4.904 -0.3784  3.2091 -2.6871
17559TIP3    H274093   0.304   4.223   5.028  1.2134 -3.2829  2.2346
17560TIP3   OH274094   4.688   4.655   0.387 -0.7488  0.0344  0.5098
17560TIP3    H174095   4.621   4.716   0.355 -0.3069  0.4505  0.3694
17560TIP3    H274096   4.727   4.618   0.308  0.4088  1.1348  0.5352
17561TIP3   OH274097   0.568   2.768   0.289  0.1543  0.2113 -0.0916
17561TIP3    H174098   0.564   2.722   0.372 -0.2250  1.0830  0.3866
17561TIP3    H274099   0.495   2.733   0.238  0.7180 -0.7230 -0.2895
17562TIP3   OH274100   4.875   3.846  15.343 -0.3488  0.0291 -0.4063
17562TIP3    H174101   4.938   3.793  15.392  0.7834  0.4569 -1.3689
17562TIP3    H274102   4.812   3.782  15.309  1.0174 -0.7442 -1.5989
17563TIP3   OH274103   3.246   1.410  16.966  0.1163 -0.0801 -0.3379
17563TIP3    H174104   3.252   1.505  16.959  0.9990 -0.1141 -0.1153
17563TIP3    H274105   3.188   1.395  17.041  3.2045  0.3348  2.3640
17564TIP3   OH274106   6.708   0.876   3.184 -0.2164 -0.3124  0.0213
17564TIP3    H174107   6.690   0.961   3.142  1.4912  0.1154  0.0994
17564TIP3    H274108   6.677   0.811   3.121  1.0404  0.3379 -1.3184
17565TIP3   OH274109   1.816   1.792  16.530 -0.2175 -0.3335  0.1123
17565TIP3    H174110   1.848   1.702  16.524  0.9007  0.1162 -1.2501
17565TIP3    H274111   1.894   1.843  16.552 -0.2713  0.6001 -1.7223
17566TIP3   OH274112   1.865   1.803   5.194  0.2723  0.2602 -0.1536
17566TIP3    H174113   1.796   1.778   5.133 -1.0480 -0.8514  1.7133
17566TIP3    H274114   1.824   1.865   5.254  1.5956  1.4795 -0.4319
17567TIP3   OH274115   2.919   3.380  11.191  0.6611 -0.1492  0.2722
17567TIP3    H174116   2.872   3.333  11.122 -0.7163 -1.2301  1.8406
17567TIP3    H274117   2.963   3.452  11.146 -0.7040 -0.4074 -1.6192
17568TIP3   OH274118   5.732   1.770  13.179  0.4667  0.4711 -0.1080
17568TIP3    H174119   5.808   1.774  13.237  1.2633  0.7501 -1.1388
17568TIP3    H274120   5.741   1.686  13.134  0.7967  0.9845 -1.0359
17569TIP3   OH274121   0.534   3.282  13.215  0.4883 -0.8535 -0.0269
17569TIP3    H174122   0.564   3.252  13.129 -2.5551  1.0058 -1.9693
17569TIP3    H274123   0.462   3.223  13.237  0.3678 -0.4804  0.6039
17570TIP3   OH274124   3.389   3.521   0.006 -0.2791  0.4349 -0.1156
17570TIP3    H174125   3.331   3.536   0.081 -0.4362 -0.0580 -0.1411
17570TIP3    H274126   3.333   3.481  -0.060  0.3188 -1.0025  0.2255
17571TIP3   OH274127   6.050   3.770   2.941  0.0821  0.5710  0.1239
17571TIP3    H174128   6.028   3.766   3.034 -0.3060  0.1086  0.0152
17571TIP3    H274129   6.143   3.792   2.940  0.1206  0.4446  0.6217
17572TIP3   OH274130   4.102   4.393  16.887 -0.2165  0.0932 -0.1730
17572TIP3    H174131   4.123   4.486  16.895 -3.0749  0.8242 -0.1390
17572TIP3    H274132   4.131   4.355  16.970  2.2175  0.6205 -0.7151
17573TIP3   OH274133   1.452   0.241   3.771  0.3888  0.0230 -0.0185
17573TIP3    H174134   1.427   0.224   3.680  0.3822 -0.2451  0.0315
17573TIP3    H274135   1.547   0.248   3.769  0.3837  0.0783 -0.0568
17574TIP3   OH274136   1.013   0.800  15.899 -0.1593 -0.2614  0.2549
17574TIP3    H174137   0.958   0.872  15.929  0.4770  1.2536 -2.0177
17574TIP3    H274138   0.952   0.741  15.854 -0.2163  0.4933 -0.6748
17575TIP3   OH274139   1.086   4.541  11.734 -0.2557  0.4344 -0.3901
17575TIP3    H174140   1.148   4.516  11.802 -0.9259 -1.0878 -0.2859
17575TIP3    H274141   1.125   4.509  11.653 -0.9160 -0.6372 -0.3109
17576TIP3   OH274142   0.984   4.891  14.523 -0.2905 -0.3372 -0.1076
17576TIP3    H174143   1.022   4.956  14.583 -0.2023 -1.0899  0.6653
17576TIP3    H274144   0.949   4.823  14.580 -0.8341 -0.7333 -0.8965
17577TIP3   OH274145   0.161   1.121  15.798  0.0223 -0.3602 -0.0807
17577TIP3    H174146   0.078   1.110  15.845 -0.0308  0.6957  0.0771
17577TIP3    H274147   0.173   1.215  15.791  1.9756 -0.4415  1.2542
17578TIP3   OH274148   4.084   3.022  14.616  0.1987  0.5831 -0.4303
17578TIP3    H174149   4.120   3.011  14.704 -0.4044 -0.2824 -0.2712
17578TIP3    H274150   4.159   3.010  14.558  0.3107 -0.5781 -0.0811
17579TIP3   OH274151   4.513   2.818  12.934  0.7906 -0.3279  0.4626
17579TIP3    H174152   4.462   2.838  13.013 -1.2192 -1.3374 -0.5130
17579TIP3    H274153   4.572   2.747  12.962  0.1162 -0.6669  1.0674
17580TIP3   OH274154   3.524   4.293   5.339 -0.3248  0.1579 -0.0703
17580TIP3    H174155   3.457   4.272   5.274 -2.4441 -2.0634  2.5691
17580TIP3    H274156   3.546   4.208   5.379  0.7849  1.3949  2.1425
17581TIP3   OH274157   6.362   2.526  13.930 -0.0439  0.2011 -0.1625
17581TIP3    H174158   6.445   2.480  13.926 -0.4391 -0.6434  0.8026
17581TIP3    H274159   6.296   2.461  13.904 -0.5861  0.2568  0.9924
17582TIP3   OH274160   6.049   4.979   3.972 -0.5936 -0.6330  0.0230
17582TIP3    H174161   5.993   4.923   4.026 -0.6105 -1.2919 -0.6633
17582TIP3    H274162   6.111   4.919   3.931  1.5975  0.2120  1.8820
17583TIP3   OH274163   2.720   2.160  15.323  0.2109 -0.6571  0.2643
17583TIP3    H174164   2.697   2.100  15.394 -2.2077 -1.9446 -1.4322
17583TIP3    H274165   2.733   2.103  15.247  3.8114  0.5735 -0.2166
17584TIP3   OH274166   0.852   3.108   0.517 -0.3870  0.8137  0.0833
17584TIP3    H174167   0.917   3.170   0.547 -1.2663  1.9002 -0.2048
17584TIP3    H274168   0.827   3.059   0.595  1.5158 -0.3767  0.0207
17585TIP3   OH274169   0.753   4.562  14.048 -0.1292  0.2060 -0.1811
17585TIP3    H174170   0.757   4.656  14.032  0.8573  0.3200  0.6221
17585TIP3    H274171   0.679   4.532  13.995  0.3486  1.2115 -1.4794
17586TIP3   OH274172   5.422   2.788  16.337  0.3448 -0.4238  0.2999
17586TIP3    H174173   5.479   2.861  16.311 -0.9739  0.0402 -1.4439
17586TIP3    H274174   5.474   2.739  16.401  3.5079 -1.0960 -2.5282
17587TIP3   OH274175   1.614   3.702  13.090  0.2483 -0.4313  0.0997
17587TIP3    H174176   1.660   3.677  13.009  1.8503 -1.0407  1.1609
17587TIP3    H274177   1.600   3.796  13.081  2.8821  0.0408  0.2567
17588TIP3   OH274178   0.551   2.205  12.857 -0.5887  0.2514  0.0751
17588TIP3    H174179   0.545   2.183  12.950  0.4608  0.0912  0.1133
17588TIP3    H274180   0.590   2.127  12.817  2.4041  1.6347  0.0729
17589TIP3   OH274181   1.560   5.656   5.447 -0.0458  0.1517 -0.1639
17589TIP3    H174182   1.515   5.631   5.528  0.9346 -0.1928  0.2872
17589TIP3    H274183   1.524   5.596   5.381  1.4507 -1.8293  0.6837
17590TIP3   OH274184   3.281   2.215  14.617  0.7127 -0.3826 -0.0378
17590TIP3    H174185   3.244   2.251  14.536  1.4433  0.0438 -0.1969
17590TIP3    H274186   3.287   2.121  14.601 -1.0593 -0.5811  0.3115
17591TIP3   OH274187   4.295   0.919   3.035 -0.1001  0.2124  0.5315
17591TIP3    H174188   4.208   0.939   2.998  0.7230  1.3083 -0.9438
17591TIP3    H274189   4.350   0.902   2.959  0.6039 -2.3910  1.5195
17592TIP3   OH274190   3.055   3.083   3.533 -0.4207 -0.1825 -0.1783
17592TIP3    H174191   2.997   3.114   3.602 -0.7158 -0.6242 -0.2265
17592TIP3    H274192   3.113   3.020   3.575 -0.7329 -0.6026 -0.3749
17593TIP3   OH274193   5.406   6.319  13.918 -0.2732  0.6255  0.0661
17593TIP3    H174194   5.380   6.405  13.884  2.0988  1.2701 -0.2452
17593TIP3    H274195   5.382   6.258  13.849 -0.4988  1.2302 -0.4044
17594TIP3   OH274196   6.558   6.148  12.245  0.0330 -0.3108  0.2021
17594TIP3    H174197   6.467   6.136  12.218  0.1388 -2.3889  0.5927
17594TIP3    H274198   6.562   6.239  12.274 -1.4409  0.3735 -1.5141
17595TIP3   OH274199   4.867   3.100  13.834  0.0796  0.7311  0.4451
17595TIP3    H174200   4.895   3.114  13.743  1.3918  0.1964  0.7385
17595TIP3    H274201   4.784   3.147  13.841 -0.8080 -0.4447 -1.4356
17596TIP3   OH274202   6.281   0.270  13.487  0.0712 -0.0360  0.1412
17596TIP3    H174203   6.338   0.204  13.526  0.7705 -2.0660 -3.7720
17596TIP3    H274204   6.192   0.238  13.505  0.3715 -1.0963 -0.1536
17597TIP3   OH274205   6.590   3.490  15.066  0.0064  0.1717 -0.2355
17597TIP3    H174206   6.625   3.553  15.003  0.5035  0.6394  0.4820
17597TIP3    H274207   6.668   3.456  15.110 -0.2976 -0.5562 -0.2531
17598TIP3   OH274208   5.947   4.201  16.034  0.4377 -0.1420 -0.2730
17598TIP3    H174209   5.909   4.288  16.027  1.2807  0.3313  0.7270
17598TIP3    H274210   6.042   4.216  16.032  0.6340 -0.8317  1.5576
17599TIP3   OH274211   2.808   5.584   5.349  0.1264  0.3527 -0.2127
17599TIP3    H174212   2.764   5.508   5.313  3.0138 -1.1851 -0.8491
17599TIP3    H274213   2.828   5.639   5.273 -1.4642  1.5305  0.1807
17600TIP3   OH274214   1.415   5.536  12.573  0.4150 -0.5027  0.4387
17600TIP3    H174215   1.498   5.491  12.559  0.1077 -1.2138  0.8484
17600TIP3    H274216   1.372   5.486  12.643 -0.1220  0.1750  0.6039
17601TIP3   OH274217   3.892   0.389   5.057  0.1534 -0.2045  0.0811
17601TIP3    H174218   3.900   0.387   4.962  1.0434 -1.5236  0.1556
17601TIP3    H274219   3.968   0.441   5.086  0.5469 -0.7947  0.1193
17602TIP3   OH274220   6.756   2.858  14.470 -0.1487 -0.2723  0.2233
17602TIP3    H174221   6.688   2.849  14.403  0.6334 -2.1381 -0.3984
17602TIP3    H274222   6.720   2.920  14.533 -0.6835  2.1068 -2.1992
17603TIP3   OH274223   5.418   2.765  13.834 -0.0532 -0.2657  0.2392
17603TIP3    H174224   5.456   2.783  13.920  0.2866  0.1138  0.0153
17603TIP3    H274225   5.476   2.811  13.773 -1.5303  1.3655 -0.0218
17604TIP3   OH274226   4.768   5.915   5.246 -0.4406  0.2822  0.2356
17604TIP3    H174227   4.769   5.865   5.164  2.5158  1.2050 -0.3820
17604TIP3    H274228   4.742   6.003   5.220  0.4389  0.5599  0.2830
17605TIP3   OH274229   1.284   1.730  12.070 -0.1426  0.5665 -0.5171
17605TIP3    H174230   1.194   1.721  12.102  0.6374 -1.2806  1.3699
17605TIP3    H274231   1.319   1.641  12.070  2.2993  1.4191  0.7352
17606TIP3   OH274232   4.699   2.104  15.935 -0.2520  0.1706  0.1133
17606TIP3    H174233   4.609   2.075  15.918 -0.1201 -0.1978  0.0451
17606TIP3    H274234   4.697   2.199  15.918 -0.3473 -0.0270 -1.0679
17607TIP3   OH274235   3.927   5.312   3.570  0.6341 -0.0035  0.0744
17607TIP3    H174236   4.022   5.313   3.577  0.5307 -0.9212  2.3808
17607TIP3    H274237   3.898   5.385   3.625 -0.0064  0.3234 -0.6754
17608TIP3   OH274238   6.601   6.396   1.363 -0.4619 -0.2111 -0.1646
17608TIP3    H174239   6.690   6.414   1.392 -1.2951  1.3603  1.5759
17608TIP3    H274240   6.606   6.398   1.267  1.5492 -1.3063 -0.1477
17609TIP3   OH274241   0.022   4.014   3.507  0.3113  0.1474 -0.7392
17609TIP3    H174242   0.075   3.949   3.462 -1.1609 -2.0632  0.5579
17609TIP3    H274243   0.077   4.044   3.579  1.2713  0.9402 -1.7665
17610TIP3   OH274244   2.761   5.522  13.953  0.2039 -0.6313  0.2801
17610TIP3    H174245   2.684   5.467  13.970 -0.3033  0.4130  1.5172
17610TIP3    H274246   2.724   5.605  13.922  0.9902 -1.2868 -2.7832
17611TIP3   OH274247   6.686   6.671  14.698  0.3942 -0.3060  0.0927
17611TIP3    H174248   6.734   6.630  14.625 -1.2002 -0.0951 -1.1351
17611TIP3    H274249   6.595   6.642  14.686  0.0207  0.0498  1.8005
17612TIP3   OH274250   3.470   2.112  15.608 -0.4524 -0.1858 -1.1607
17612TIP3    H174251   3.414   2.073  15.540 -1.4394  0.5890 -0.8283
17612TIP3    H274252   3.409   2.136  15.678  0.4579 -0.3084 -0.3072
17613TIP3   OH274253   2.480   2.586  16.213 -0.1939 -0.0941 -0.3102
17613TIP3    H174254   2.492   2.674  16.177 -0.1819  0.4207  0.9157
17613TIP3    H274255   2.491   2.528  16.137 -0.5763  0.9681 -1.2058
17614TIP3   OH274256   5.688   1.989  13.050  0.0299 -0.1365 -0.1565
17614TIP3    H174257   5.712   2.062  13.107 -2.0007  0.8696 -0.4831
17614TIP3    H274258   5.699   1.911  13.105  1.2039  0.4887  0.5477
17615TIP3   OH274259   5.662   1.878   2.332 -0.2599  0.0453  0.5490
17615TIP3    H174260   5.755   1.859   2.347 -0.2607 -1.7093 -1.2867
17615TIP3    H274261   5.631   1.911   2.417  1.6973 -0.6662  1.6214
17616TIP3   OH274262   3.073   6.709   2.054 -0.1046  0.1141 -0.0836
17616TIP3    H174263   3.150   6.653   2.069 -0.8455 -0.7864  0.5073
17616TIP3    H274264   3.010   6.680   2.120 -1.4242 -0.0607 -1.3639
17617TIP3   OH274265   3.278   0.214  15.336 -0.0369 -0.3498  0.3458
17617TIP3    H174266   3.214   0.282  15.362  0.7596 -0.0518  1.6184
17617TIP3    H274267   3.275   0.151  15.408 -0.5901 -1.5754 -0.7164
17618TIP3   OH274268   4.540   4.498   6.028 -0.2704  0.0521  0.2019
17618TIP3    H174269   4.513   4.433   6.092  1.5313 -0.3760  0.5800
17618TIP3    H274270   4.627   4.470   6.001 -0.4621  0.9615 -1.4679
17619TIP3   OH274271   4.383   3.328  13.743 -0.1470  0.0513  0.2890
17619TIP3    H174272   4.417   3.400  13.691 -1.8215  0.7487  0.1000
17619TIP3    H274273   4.327   3.278  13.683 -0.7972 -0.0776  0.9794
17620TIP3   OH274274   2.214   5.984  10.870  0.2414 -0.0155  0.0916
17620TIP3    H174275   2.199   6.074  10.899  2.1856  0.3395  0.1111
17620TIP3    H274276   2.298   5.986  10.825 -0.5093 -1.4940 -1.5044
17621TIP3   OH274277   4.354   6.009   6.246 -0.2439 -0.1808  0.2057
17621TIP3    H174278   4.385   6.099   6.236  1.2759 -0.6685  0.1283
17621TIP3    H274279   4.405   5.974   6.319  0.0364 -1.3070 -0.4930
17622TIP3   OH274280   3.870   0.029   2.097  0.3065  0.0146 -0.1284
17622TIP3    H174281   3.818   0.109   2.107  0.4821  0.3918 -1.9989
17622TIP3    H274282   3.811  -0.042   2.124  0.1000  0.7326  1.4089
17623TIP3   OH274283   2.713   3.391   5.715 -0.7109 -0.3964  0.3845
17623TIP3    H174284   2.679   3.317   5.664  1.8042 -0.7829 -0.8851
17623TIP3    H274285   2.732   3.458   5.650  1.3538 -0.4145  0.9108
17624TIP3   OH274286   5.934   1.442  15.447  0.3978  0.1165 -0.4713
17624TIP3    H174287   5.997   1.430  15.377  0.4841 -0.3207 -0.3194
17624TIP3    H274288   5.936   1.536  15.465 -0.3695  0.4001 -1.7512
17625TIP3   OH274289   6.745   0.260  12.996  0.3100 -0.4170  0.6037
17625TIP3    H174290   6.782   0.188  13.048  0.2874 -2.1553 -1.6587
17625TIP3    H274291   6.674   0.219  12.947 -1.2435  1.7184  0.9529
17626TIP3   OH274292   5.881   2.517  16.956 -0.2510  0.3069 -0.5074
17626TIP3    H174293   5.822   2.593  16.960 -1.0349 -0.3364  0.6593
17626TIP3    H274294   5.838   2.457  16.894  0.7146  1.0651 -1.9651
17627TIP3   OH274295   5.367   4.694  11.940  0.1186 -0.0637 -0.1697
17627TIP3    H174296   5.432   4.744  11.892 -0.1227 -0.1699 -0.6057
17627TIP3    H274297   5.301   4.759  11.966  1.1312  0.3248  1.5729
17628TIP3   OH274298   4.724   4.875  13.234 -0.2868  0.2673  0.0035
17628TIP3    H174299   4.726   4.919  13.319 -0.8315 -0.8052  0.5917
17628TIP3    H274300   4.630   4.863  13.215 -0.1577 -0.9432  0.0404
17629TIP3   OH274301   5.536   5.060  12.351  0.2922 -0.2627  0.6666
17629TIP3    H174302   5.583   5.021  12.277 -0.4498 -0.8486  0.4881
17629TIP3    H274303   5.557   5.153  12.347 -1.2089  0.0514 -1.4363
17630TIP3   OH274304   0.186   6.043  12.726  0.1818 -0.1329 -0.1392
17630TIP3    H174305   0.113   6.049  12.788  0.0765  0.6421 -0.3331
17630TIP3    H274306   0.259   6.009  12.779 -0.1655 -0.3923  0.1813
17631TIP3   OH274307   2.974   4.850   1.105 -0.0594  0.0049 -0.4050
17631TIP3    H174308   3.001   4.903   1.180  0.8094 -1.6613  0.5246
17631TIP3    H274309   3.047   4.859   1.043 -0.4563  0.8215 -0.7629
17632TIP3   OH274310   1.118   2.080  16.888  0.5619  0.3411 -0.3356
17632TIP3    H174311   1.125   2.170  16.855 -1.0863  0.6015 -0.0591
17632TIP3    H274312   1.031   2.050  16.860  0.5815 -0.7209  0.6344
17633TIP3   OH274313   5.879   1.647  15.917 -0.1145 -0.1937  0.2779
17633TIP3    H174314   5.927   1.711  15.864 -0.3850 -0.8319 -0.7623
17633TIP3    H274315   5.935   1.570  15.919 -1.9833 -1.8321 -2.9667
17634TIP3   OH274316   0.064   4.502   4.211 -0.3673 -0.4074 -0.8380
17634TIP3    H174317   0.065   4.592   4.181 -0.7894 -0.0702  0.1367
17634TIP3    H274318   0.071   4.450   4.131  0.0945  0.4810 -1.3915
17635TIP3   OH274319   5.263   5.485   0.053 -0.0516  0.0761  0.1898
17635TIP3    H174320   5.287   5.457  -0.035  1.3025  0.3066  0.4694
17635TIP3    H274321   5.235   5.405   0.097 -1.5062  0.0838 -0.6741
17636TIP3   OH274322   2.739   4.271   2.455 -0.0561 -0.0978 -0.1470
17636TIP3    H174323   2.798   4.212   2.502  0.2558 -0.8381 -1.4393
17636TIP3    H274324   2.783   4.288   2.372 -0.1113  2.0166  0.1740
17637TIP3   OH274325   4.840   5.645  16.576  0.3730  0.3987  0.9422
17637TIP3    H174326   4.850   5.686  16.490  0.0673  0.7182  1.0557
17637TIP3    H274327   4.746   5.629  16.584  0.5490 -0.9055  0.6432
17638TIP3   OH274328   1.381   5.582  11.093 -0.0181 -0.0364  0.1391
17638TIP3    H174329   1.386   5.668  11.050 -1.0180  0.4724  0.9703
17638TIP3    H274330   1.304   5.541  11.054  0.5659 -0.6369 -0.3842
17639TIP3   OH274331   2.550   5.385   1.099 -0.4921 -0.3423  0.1101
17639TIP3    H174332   2.492   5.461   1.096 -0.0951  0.0033  0.8602
17639TIP3    H274333   2.578   5.379   1.190 -3.3410 -3.5759  1.0038
17640TIP3   OH274334   4.016   4.466  10.960 -0.5274  0.2226 -0.0829
17640TIP3    H174335   4.018   4.515  10.877 -1.0795  0.4178  0.0195
17640TIP3    H274336   4.039   4.376  10.934  3.2235  0.9708  0.0878
17641TIP3   OH274337   3.961   3.497  16.014 -0.6769 -0.3340  0.0301
17641TIP3    H174338   3.987   3.432  16.079 -2.8021 -1.1768  0.1092
17641TIP3    H274339   3.914   3.447  15.947 -1.7674  1.0135 -0.2565
17642TIP3   OH274340   0.072   3.392   5.231  0.3334 -0.1664  0.0818
17642TIP3    H174341   0.054   3.480   5.200  0.9213  0.5575  1.7276
17642TIP3    H274342   0.163   3.394   5.260  0.2420 -1.2087  0.4949
17643TIP3   OH274343   6.111   1.772  16.491  0.0515 -0.1678 -1.0981
17643TIP3    H174344   6.153   1.690  16.518  0.1769  0.0297 -0.6679
17643TIP3    H274345   6.171   1.841  16.522 -1.1107  0.1698  0.5494
17644TIP3   OH274346   3.735   4.249  15.233  0.1715 -0.0714 -0.0682
17644TIP3    H174347   3.644   4.221  15.227  0.4027 -0.8584 -0.0852
17644TIP3    H274348   3.731   4.344  15.236 -0.8411 -0.1142  2.6919
17645TIP3   OH274349   1.190   5.621  11.585 -0.0521 -0.3763 -0.5493
17645TIP3    H174350   1.161   5.672  11.509  1.0773 -1.0802 -1.4870
17645TIP3    H274351   1.245   5.552  11.547  1.6071  0.0258  1.0256
17646TIP3   OH274352   1.623   3.529   4.269 -0.1648 -0.4513  0.0643
17646TIP3    H174353   1.672   3.611   4.283 -1.0637  0.1170 -0.0260
17646TIP3    H274354   1.569   3.520   4.348  0.0426 -1.0494  0.1449
17647TIP3   OH274355   1.789   5.040   1.317 -0.2147 -0.6496 -0.0137
17647TIP3    H174356   1.695   5.058   1.306 -0.2298 -0.5884  0.2117
17647TIP3    H274357   1.793   4.947   1.339 -0.1511 -0.8804 -0.9783
17648TIP3   OH274358   2.436   5.938  12.177  0.3251 -0.0160  0.8051
17648TIP3    H174359   2.423   6.030  12.199  0.0426 -0.3018  1.9047
17648TIP3    H274360   2.384   5.925  12.097  0.4043  0.7784  0.6127
17649TIP3   OH274361   6.624   1.871   2.241  0.0676  0.2131  0.4661
17649TIP3    H174362   6.560   1.941   2.247  0.8309  1.2219 -1.9340
17649TIP3    H274363   6.709   1.915   2.245  0.5677 -0.6861  0.0789
17650TIP3   OH274364   2.402   3.053   0.445  0.8166 -0.4217 -0.3486
17650TIP3    H174365   2.402   2.972   0.394  1.3671 -0.1211 -0.8365
17650TIP3    H274366   2.483   3.049   0.496  1.1294  0.0806 -0.7969
17651TIP3   OH274367   1.825   0.990   1.200  0.5292 -0.2206 -0.5622
17651TIP3    H174368   1.855   0.921   1.259  0.8495  0.3374 -0.0664
17651TIP3    H274369   1.834   1.070   1.250 -1.0509  0.0625 -0.6878
17652TIP3   OH274370   5.294   1.035   5.574 -0.0388  0.1539  0.1936
17652TIP3    H174371   5.234   0.964   5.599 -2.1279  1.1772 -1.6811
17652TIP3    H274372   5.291   1.037   5.479  0.7974  2.1148  0.1736
17653TIP3   OH274373   0.329   2.893  12.797 -0.1020 -0.3240  0.2450
17653TIP3    H174374   0.418   2.910  12.766  0.7570 -1.4194  1.9419
17653TIP3    H274375   0.297   2.822  12.742  0.1118 -0.0060 -0.2941
17654TIP3   OH274376   0.503   1.241   2.475 -0.4920  0.0367  0.2364
17654TIP3    H174377   0.499   1.284   2.389 -0.9062  1.2340  0.8211
17654TIP3    H274378   0.534   1.310   2.534 -0.1158 -0.8029  1.0354
17655TIP3   OH274379   2.004   1.143   2.304 -0.0493  0.2509 -0.1582
17655TIP3    H174380   1.990   1.097   2.386  0.0103  2.9938  1.5266
17655TIP3    H274381   2.098   1.138   2.289 -0.3404 -2.6300 -1.6732
17656TIP3   OH274382   2.871   6.148  12.034 -0.4759  0.0816 -0.0130
17656TIP3    H174383   2.782   6.166  12.064  0.0265  3.0995  0.0011
17656TIP3    H274384   2.876   6.187  11.947  0.6465 -0.7397 -0.3468
17657TIP3   OH274385   2.005   2.227   1.013  0.2173  0.6582  0.1088
17657TIP3    H174386   2.013   2.308   1.064 -0.0233  1.1875 -0.6882
17657TIP3    H274387   2.085   2.178   1.034 -0.6309  0.0668  2.3396
17658TIP3   OH274388   0.234   4.503  17.191 -0.0528 -0.3024  0.4680
17658TIP3    H174389   0.202   4.519  17.280  0.8358  1.3990  0.5072
17658TIP3    H274390   0.304   4.567  17.178 -1.1400  0.5092 -1.9799
17659TIP3   OH274391   5.522   5.640   6.561  0.4760  0.5872  0.4243
17659TIP3    H174392   5.457   5.673   6.499 -0.7039 -0.3920  1.0925
17659TIP3    H274393   5.582   5.713   6.574 -2.1246  2.6241  2.0157
17660TIP3   OH274394   6.068   2.318  14.108  0.4468 -0.0712 -0.6939
17660TIP3    H174395   6.117   2.288  14.184  0.3368  0.0794 -0.5635
17660TIP3    H274396   6.056   2.240  14.054 -0.0032 -0.2999 -0.2681
17661TIP3   OH274397   2.213   3.539   5.658 -0.6074  0.0004 -0.1003
17661TIP3    H174398   2.127   3.514   5.692  0.3934  0.0803  2.7228
17661TIP3    H274399   2.200   3.627   5.623 -1.7423 -0.1129  0.0128
17662TIP3   OH274400   0.710   0.500   6.338 -0.3034 -0.1571 -0.2621
17662TIP3    H174401   0.687   0.414   6.372  0.7685 -1.4801 -2.6120
17662TIP3    H274402   0.650   0.514   6.264 -0.8169  1.3951  0.4012
17663TIP3   OH274403   3.960   6.298  16.272  0.2890  0.3800  0.0159
17663TIP3    H174404   3.952   6.235  16.344 -1.0514 -0.2080 -0.6082
17663TIP3    H274405   3.963   6.244  16.193  0.0388  1.0713 -0.4733
17664TIP3   OH274406   1.348   1.184   4.678  0.0287  0.2079 -0.7665
17664TIP3    H174407   1.284   1.242   4.720 -1.7911 -0.6004 -2.2757
17664TIP3    H274408   1.296   1.110   4.646  1.4198  0.3337 -3.5872
17665TIP3   OH274409   0.422   3.795  12.726  0.4241  0.1516  0.1054
17665TIP3    H174410   0.394   3.706  12.746  0.4545  0.3999  1.3453
17665TIP3    H274411   0.418   3.841  12.810 -0.8145  1.6643 -0.7208
17666TIP3   OH274412   3.187   4.827   0.075  0.1250 -0.0223  0.1845
17666TIP3    H174413   3.099   4.822   0.036  0.4793  3.0847 -1.4055
17666TIP3    H274414   3.234   4.752   0.039 -1.8968 -1.9109  1.2836
17667TIP3   OH274415   5.830   4.043   3.268  0.5511  0.1203  0.1364
17667TIP3    H174416   5.794   4.127   3.241  2.0679  0.3163 -1.4342
17667TIP3    H274417   5.765   4.008   3.329 -0.2777  2.2551  0.5770
17668TIP3   OH274418   1.939   1.069   5.514 -0.3174  0.1856  0.4538
17668TIP3    H174419   2.017   1.064   5.458 -0.1102 -0.9821  0.8207
17668TIP3    H274420   1.873   1.110   5.459  0.4634  0.8889  0.0225
17669TIP3   OH274421   5.380   3.360  16.649  0.0050  0.1368 -0.0642
17669TIP3    H174422   5.420   3.274  16.662  0.4729  0.5098  1.0477
17669TIP3    H274423   5.447   3.411  16.602  0.4962  0.4685  0.9633
17670TIP3   OH274424   5.184   6.572  12.715 -0.5362  0.0815  0.1349
17670TIP3    H174425   5.246   6.535  12.652 -1.2647 -0.6566 -0.1724
17670TIP3    H274426   5.210   6.534  12.799  0.7179  1.4173  0.3859
17671TIP3   OH274427   6.145   3.717   4.662 -0.0515  0.3627 -0.5677
17671TIP3    H174428   6.054   3.709   4.689 -0.8136  2.7987 -2.0707
17671TIP3    H274429   6.194   3.720   4.745 -1.8263  3.3229  0.5339
17672TIP3   OH274430   5.795   5.484   1.024  0.6534 -0.3634  0.3148
17672TIP3    H174431   5.816   5.572   1.056 -0.6680 -0.2882  1.0218
17672TIP3    H274432   5.742   5.499   0.946 -0.9422 -0.4863  1.3340
17673TIP3   OH274433   5.260   6.044  15.494  0.7403 -0.0972  0.0463
17673TIP3    H174434   5.256   6.015  15.403  2.1342  1.1907 -0.4677
17673TIP3    H274435   5.278   6.138  15.489  0.2065  0.1318  1.6628
17674TIP3   OH274436   4.425   3.419   1.903 -0.0093 -0.7408 -0.0036
17674TIP3    H174437   4.408   3.504   1.863  2.2993  0.7650  1.9355
17674TIP3    H274438   4.420   3.436   1.997  3.3710 -1.9633  0.5374
17675TIP3   OH274439   5.550   3.228   2.548  0.6065  0.6810  0.0072
17675TIP3    H174440   5.562   3.239   2.454  0.9979 -0.7612 -0.1418
17675TIP3    H274441   5.461   3.261   2.565 -1.1241 -2.6519 -1.6094
17676TIP3   OH274442   2.632   4.739   1.095  0.3653 -0.1427 -0.4191
17676TIP3    H174443   2.651   4.799   1.022  0.3772 -0.3653 -0.5976
17676TIP3    H274444   2.581   4.668   1.055  0.2854 -0.2133 -0.1912
17677TIP3   OH274445   1.496   0.050   1.549 -0.0770  0.3852  0.3206
17677TIP3    H174446   1.564   0.052   1.481  0.7708  0.2827  1.1471
17677TIP3    H274447   1.505  -0.037   1.589  0.0014  0.7432  1.1071
17678TIP3   OH274448   6.265   6.218  12.497  0.3223 -0.0183 -0.0082
17678TIP3    H174449   6.306   6.246  12.415  0.3109 -1.5289 -0.5681
17678TIP3    H274450   6.176   6.253  12.493  0.3296 -0.0577 -0.6335
17679TIP3   OH274451   5.484   3.932   0.338  0.4885 -0.0747 -0.5851
17679TIP3    H174452   5.453   3.936   0.248 -1.8864 -1.2136  0.0912
17679TIP3    H274453   5.455   4.014   0.378 -2.2820 -1.2927  0.1453
17680TIP3   OH274454   5.519   5.876  14.082 -0.6993 -0.6660 -0.3758
17680TIP3    H174455   5.434   5.916  14.103 -1.2140 -1.7463 -0.3369
17680TIP3    H274456   5.574   5.950  14.056 -1.3148  0.2028  0.6656
17681TIP3   OH274457   1.214   1.803  15.051 -0.2602  0.0397 -0.3232
17681TIP3    H174458   1.238   1.742  15.120  0.2252 -1.5000 -1.7987
17681TIP3    H274459   1.171   1.749  14.985 -1.1639  1.5474 -1.0228
17682TIP3   OH274460   1.455   0.918   3.141  0.3551 -0.3787  0.1104
17682TIP3    H174461   1.380   0.859   3.144  0.5839 -0.8381 -1.6056
17682TIP3    H274462   1.459   0.958   3.227 -2.2445  0.1594  0.0435
17683TIP3   OH274463   2.676   1.277  16.544  0.2333 -0.3911  0.0196
17683TIP3    H174464   2.624   1.220  16.488  1.1217 -1.5418  0.3127
17683TIP3    H274465   2.622   1.354  16.557 -2.2045 -2.2550  1.7916
17684TIP3   OH274466   4.969   6.201   6.415  0.0406  1.1085  0.4256
17684TIP3    H174467   4.874   6.194   6.407  0.0551 -0.1727  1.1363
17684TIP3    H274468   4.988   6.294   6.402 -1.1772  1.1839 -0.9466
17685TIP3   OH274469   5.905   0.039   3.376  0.1662 -0.1646  0.1596
17685TIP3    H174470   5.921  -0.039   3.429  1.8913  0.1956  0.2291
17685TIP3    H274471   5.900   0.006   3.286  2.8316 -0.2038 -0.0394
17686TIP3   OH274472   0.559   4.820  12.045  0.0423 -0.0133  0.1076
17686TIP3    H174473   0.587   4.912  12.040 -0.9958  0.2821 -0.7979
17686TIP3    H274474   0.463   4.825  12.047 -0.0397 -1.1013 -0.4619
17687TIP3   OH274475   6.405   3.546   0.335  0.3293 -0.2761 -0.0183
17687TIP3    H174476   6.416   3.561   0.429 -1.3905  1.2391 -0.0018
17687TIP3    H274477   6.310   3.532   0.324  0.0508  2.3923 -1.8194
17688TIP3   OH274478   3.257   3.440  13.022 -0.1639 -0.6115 -0.1094
17688TIP3    H174479   3.262   3.466  12.930  0.7473 -3.4674 -1.0027
17688TIP3    H274480   3.209   3.357  13.021  0.3335 -0.9848  1.9016
17689TIP3   OH274481   0.614   5.668  16.564 -0.3709  0.4190 -0.1883
17689TIP3    H174482   0.530   5.696  16.529 -0.7230 -1.1905 -0.7117
17689TIP3    H274483   0.666   5.646  16.487 -0.4085 -1.0949  0.1731
17690TIP3   OH274484   0.331   5.463  13.473 -0.3575  0.2572  0.1303
17690TIP3    H174485   0.245   5.490  13.505  0.1659  2.2744 -0.0136
17690TIP3    H274486   0.325   5.470  13.378  0.1847  1.1933  0.1554
17691TIP3   OH274487   2.409   5.417   4.051  0.1900 -0.3573  0.0343
17691TIP3    H174488   2.498   5.388   4.029  1.5585  1.8084  2.2075
17691TIP3    H274489   2.395   5.494   3.996  0.5099  0.4888  1.1078
17692TIP3   OH274490   1.756   5.371   5.066  0.1345  0.6314 -0.4855
17692TIP3    H174491   1.845   5.398   5.089  0.3130 -0.0202 -0.3811
17692TIP3    H274492   1.731   5.310   5.135 -0.4358  0.8880 -0.4620
17693TIP3   OH274493   4.796   3.487  14.383  0.0470 -0.0684  0.1485
17693TIP3    H174494   4.864   3.430  14.420  0.7846  0.7449  0.0752
17693TIP3    H274495   4.810   3.571  14.426 -1.0975  0.0415  0.3302
17694TIP3   OH274496   2.881   3.748  12.358 -0.2108  0.0290  0.1616
17694TIP3    H174497   2.817   3.759  12.429  0.5089  0.1888  0.8017
17694TIP3    H274498   2.859   3.816  12.295 -1.4758 -0.7280 -0.2548
17695TIP3   OH274499   1.146   4.138   2.496  0.4442 -0.4785  0.0759
17695TIP3    H174500   1.110   4.071   2.438  0.0632 -0.0863 -0.1438
17695TIP3    H274501   1.132   4.102   2.584  0.2531 -0.6952 -0.0396
17696TIP3   OH274502   3.812   5.449   0.430 -0.1409  0.3200  0.2013
17696TIP3    H174503   3.751   5.512   0.392  1.0122  1.8261  0.7433
17696TIP3    H274504   3.845   5.399   0.355 -0.1926  1.1532 -0.3878
17697TIP3   OH274505   0.061   6.251  11.796 -0.1576 -0.4242  0.5122
17697TIP3    H174506   0.155   6.270  11.800  0.0995 -0.8115 -2.0093
17697TIP3    H274507   0.035   6.240  11.888  2.4602 -1.2639  1.2463
17698TIP3   OH274508   5.081   1.818   6.388 -0.6253  0.1213 -0.1258
17698TIP3    H174509   5.095   1.910   6.409  1.1506  0.0499 -0.8596
17698TIP3    H274510   5.155   1.794   6.333 -0.4435 -2.0313  0.9286
17699TIP3   OH274511   0.886   3.606   2.946  0.3079 -0.3589  0.5167
17699TIP3    H174512   0.801   3.624   2.985  0.3110  1.4158 -0.2080
17699TIP3    H274513   0.946   3.668   2.989  0.2844  1.7776 -2.2616
17700TIP3   OH274514   4.815   0.875   1.990 -0.0271 -0.3106  0.5819
17700TIP3    H174515   4.834   0.825   1.911  0.2808  0.1149  0.3892
17700TIP3    H274516   4.777   0.957   1.959 -0.9492 -0.6005  0.9148
17701TIP3   OH274517   2.723   6.631   1.664 -0.4159 -0.1050 -0.0067
17701TIP3    H174518   2.763   6.577   1.596  0.6640  0.4965  0.1302
17701TIP3    H274519   2.797   6.660   1.718 -0.8260  2.2832 -0.6269
17702TIP3   OH274520   2.129   1.780  11.953 -0.3496  0.0360  0.0259
17702TIP3    H174521   2.111   1.838  11.878 -0.6575  0.9775  0.8123
17702TIP3    H274522   2.043   1.758  11.987 -0.1861  1.0822  1.1870
17703TIP3   OH274523   4.791   4.026   4.993 -0.5824 -0.6163  0.2453
17703TIP3    H174524   4.757   3.983   5.072  0.5261  1.6874  2.1446
17703TIP3    H274525   4.735   4.103   4.982 -0.6428 -0.8413 -1.1992
17704TIP3   OH274526   1.937   1.120   1.425 -0.0101  0.0787 -0.1088
17704TIP3    H174527   1.981   1.187   1.477 -0.1168 -0.5052  0.7622
17704TIP3    H274528   1.845   1.127   1.448  0.0675 -0.8206  0.5385
17705TIP3   OH274529   2.061   6.391  16.291  0.3331  0.0663 -0.1145
17705TIP3    H174530   2.074   6.467  16.349  0.9241  1.2051 -1.6570
17705TIP3    H274531   1.992   6.340  16.333 -1.3452  2.3765  0.1399
17706TIP3   OH274532   4.386   0.656   2.766  0.4360  0.0419  0.0338
17706TIP3    H174533   4.459   0.629   2.822 -0.4285 -2.0742  0.1969
17706TIP3    H274534   4.372   0.748   2.788  2.8988  0.4622  0.1418
17707TIP3   OH274535   1.618   3.823  13.512  0.1219  0.6007 -0.4128
17707TIP3    H174536   1.664   3.881  13.573 -1.5267 -0.0123  1.5094
17707TIP3    H274537   1.608   3.741  13.560 -0.6649 -0.1209 -1.7644
17708TIP3   OH274538   4.891   5.376   6.018  0.5163 -0.0212 -0.6312
17708TIP3    H174539   4.840   5.327   6.082  0.2219  0.4328 -0.5213
17708TIP3    H274540   4.864   5.467   6.028  1.2925  0.2170 -0.6217
17709TIP3   OH274541   4.164   6.266  15.252  0.2037 -0.5481  0.1947
17709TIP3    H174542   4.108   6.296  15.324  0.7025  0.6479  0.1090
17709TIP3    H274543   4.190   6.177  15.278 -0.3458 -0.4803  1.0486
17710TIP3   OH274544   1.621   5.613  10.420  0.4616 -0.3170 -0.0909
17710TIP3    H174545   1.683   5.679  10.450 -0.4297  0.0256  1.0824
17710TIP3    H274546   1.663   5.573  10.344  2.4540 -0.6665  1.1462
17711TIP3   OH274547   6.530   3.609  10.965  0.4188 -0.3821  0.3095
17711TIP3    H174548   6.619   3.575  10.961  0.9403  0.9707 -0.1626
17711TIP3    H274549   6.526   3.659  11.046  0.8392  1.4421 -0.7334
17712TIP3   OH274550   0.126   2.455   5.151  0.7160  0.0927 -0.6633
17712TIP3    H174551   0.191   2.386   5.168  1.1347 -0.1120 -2.8290
17712TIP3    H274552   0.057   2.412   5.101 -1.5467  0.1491  2.1541
17713TIP3   OH274553   4.578   1.511  14.167 -0.0334  0.2470  0.1379
17713TIP3    H174554   4.518   1.534  14.238  1.2703  1.9615  0.7640
17713TIP3    H274555   4.632   1.441  14.203  0.7173  1.2046  0.9546
17714TIP3   OH274556   2.716   4.538   3.889  0.7676  0.8184  0.0082
17714TIP3    H174557   2.735   4.588   3.968  1.9207  0.7345 -0.1869
17714TIP3    H274558   2.802   4.502   3.863 -0.0896 -1.8837  0.5705
17715TIP3   OH274559   4.980   0.975  16.164  0.4445  0.1086 -0.2356
17715TIP3    H174560   4.909   1.039  16.174 -0.4047 -0.7391 -0.6334
17715TIP3    H274561   4.962   0.933  16.080  1.7679  0.2760 -0.6193
17716TIP3   OH274562   5.620   5.667  16.653  0.0544  0.5372 -0.0578
17716TIP3    H174563   5.715   5.655  16.649 -0.2075 -4.0972  1.5640
17716TIP3    H274564   5.604   5.715  16.734  0.9408  3.3503 -1.4203
17717TIP3   OH274565   2.373   5.054  10.769 -0.3584  0.0859 -0.1344
17717TIP3    H174566   2.288   5.012  10.783 -0.6802  1.0790  0.9684
17717TIP3    H274567   2.362   5.103  10.687 -1.7591  2.3414  1.2893
17718TIP3   OH274568   1.629   1.978  15.630 -0.7783 -0.1790 -0.3624
17718TIP3    H174569   1.650   2.055  15.577 -1.7147  0.1084 -0.3398
17718TIP3    H274570   1.562   2.008  15.691 -0.6843 -0.8510  0.0868
17719TIP3   OH274571   4.538   2.613  10.414 -0.5848  0.2641  0.2241
17719TIP3    H174572   4.625   2.635  10.449  0.1303 -0.4814 -0.9832
17719TIP3    H274573   4.491   2.696  10.411  0.4879  0.8810 -0.1343
17720TIP3   OH274574   2.347   0.382   1.877  0.0097 -0.3478 -0.1963
17720TIP3    H174575   2.292   0.361   1.801  0.9548  0.4818 -1.1504
17720TIP3    H274576   2.368   0.297   1.916  0.4313 -0.9010 -1.5491
17721TIP3   OH274577   1.489   1.231  12.705 -0.0495 -0.3635  0.4158
17721TIP3    H174578   1.465   1.317  12.672  0.6241  0.5040  2.0588
17721TIP3    H274579   1.578   1.242  12.739 -0.5970 -1.2222  2.2635
17722TIP3   OH274580   3.166   6.784  13.143  0.0342  0.2124 -0.0639
17722TIP3    H174581   3.144   6.760  13.053  0.5933 -1.0225  0.1006
17722TIP3    H274582   3.172   6.879  13.142  1.1019  0.1728 -1.5997
17723TIP3   OH274583   5.534   0.966  11.300  0.2730  0.0418 -0.7443
17723TIP3    H174584   5.562   1.049  11.338  0.4792 -0.7344  0.8572
17723TIP3    H274585   5.442   0.958  11.326 -0.1778  0.4286 -2.1305
17724TIP3   OH274586   3.438   3.783   3.819  0.0678 -0.2122 -0.7585
17724TIP3    H174587   3.534   3.789   3.814  0.1877 -1.0044  0.2418
17724TIP3    H274588   3.410   3.871   3.845  0.6312 -0.2811  0.1383
17725TIP3   OH274589   5.311   2.531   1.321  0.5474 -0.4566  0.0694
17725TIP3    H174590   5.377   2.560   1.383 -0.1892  1.3634  0.0526
17725TIP3    H274591   5.323   2.436   1.316  2.8771 -0.2129  0.3297
17726TIP3   OH274592   1.660   4.258   0.894 -0.3390 -0.0117  0.0847
17726TIP3    H174593   1.649   4.206   0.974 -0.7456 -1.1936 -0.6992
17726TIP3    H274594   1.727   4.211   0.844 -0.2447  0.5829 -0.3555
17727TIP3   OH274595   2.465   4.814  10.577 -0.1734  0.1650  0.5292
17727TIP3    H174596   2.476   4.891  10.521  0.8014 -0.6185 -0.3967
17727TIP3    H274597   2.392   4.837  10.635 -1.3273  0.9727 -1.1505
17728TIP3   OH274598   3.471   1.235  15.473 -0.1560  0.2365 -0.1192
17728TIP3    H174599   3.408   1.191  15.531  0.4977 -0.5132  0.0420
17728TIP3    H274600   3.431   1.228  15.386  0.1200 -1.0699 -0.1651
17729TIP3   OH274601   0.216   2.379  14.083 -0.5298  0.0764 -0.1086
17729TIP3    H174602   0.290   2.360  14.026 -0.7351 -0.6500 -0.1524
17729TIP3    H274603   0.154   2.308  14.065 -0.3865 -0.4475  1.3820
17730TIP3   OH274604   1.808   4.327   3.427 -0.0110  0.0449  0.1858
17730TIP3    H174605   1.807   4.397   3.362  1.4222 -0.4970 -0.4548
17730TIP3    H274606   1.757   4.256   3.388 -0.6844  0.3856  0.4407
17731TIP3   OH274607   0.380   1.299   4.230  0.2481  0.4955 -0.8609
17731TIP3    H174608   0.428   1.287   4.311 -0.0760 -0.3731 -0.7852
17731TIP3    H274609   0.430   1.365   4.182  1.7793 -0.6783 -0.9782
17732TIP3   OH274610   0.510   3.535  11.439  0.8244  0.0431  0.5214
17732TIP3    H174611   0.446   3.515  11.370  0.6713  1.2087  0.3036
17732TIP3    H274612   0.506   3.460  11.498  1.3729 -1.2639 -1.0242
17733TIP3   OH274613   2.834   5.253  13.697 -0.5218  0.7678 -0.2437
17733TIP3    H174614   2.848   5.203  13.777 -1.3984 -1.7840 -1.5599
17733TIP3    H274615   2.784   5.330  13.724  0.0591  0.5047  1.7471
17734TIP3   OH274616   3.078   6.207  11.845  0.4306 -0.3681 -0.0261
17734TIP3    H174617   3.101   6.146  11.776  1.7697 -1.1013  1.0185
17734TIP3    H274618   3.099   6.293  11.809 -0.1236 -0.6261 -0.9882
17735TIP3   OH274619   5.383   2.873   5.370  0.0015 -0.0865  0.0069
17735TIP3    H174620   5.402   2.906   5.458  1.1131 -0.6485 -0.0116
17735TIP3    H274621   5.411   2.943   5.311  1.5357 -0.6723  0.0066
17736TIP3   OH274622   0.160   0.558  15.677 -0.2638 -0.8526 -0.5731
17736TIP3    H174623   0.228   0.555  15.610  0.1092 -0.7807 -0.2044
17736TIP3    H274624   0.203   0.598  15.753 -1.0405  0.2876 -0.7104
17737TIP3   OH274625   4.597   1.241   2.763 -0.5412  0.0648  0.1128
17737TIP3    H174626   4.524   1.221   2.822 -0.0086 -0.2386  0.6813
17737TIP3    H274627   4.563   1.309   2.705 -0.8310  0.9547  1.2808
17738TIP3   OH274628   5.616   5.521  15.557  0.2729  0.3278 -0.3417
17738TIP3    H174629   5.617   5.615  15.571  0.5251  0.1423  1.0089
17738TIP3    H274630   5.664   5.508  15.475 -0.7921  1.4540 -1.1768
17739TIP3   OH274631   5.789   6.496  12.673  0.0279 -0.0194  0.6279
17739TIP3    H174632   5.810   6.527  12.761  0.0366  2.3412 -0.1449
17739TIP3    H274633   5.695   6.513  12.662  0.2143  0.6119 -0.1283
17740TIP3   OH274634   0.136   4.339  11.585  0.0597 -0.0492  0.0722
17740TIP3    H174635   0.209   4.378  11.634 -0.7750  0.7051  0.7512
17740TIP3    H274636   0.134   4.248  11.615  0.8356 -0.1318 -0.0959
17741TIP3   OH274637   1.945   1.404  14.076 -0.7201 -0.8218 -0.1016
17741TIP3    H174638   1.906   1.484  14.040 -1.4857 -1.1894 -0.0995
17741TIP3    H274639   1.876   1.366  14.130  0.7729  0.3889  2.8853
17742TIP3   OH274640   1.180   5.869   6.108 -0.0957 -0.1500  0.2617
17742TIP3    H174641   1.251   5.855   6.172 -0.0798 -0.5999  0.1501
17742TIP3    H274642   1.159   5.781   6.077 -0.8355 -0.0373  0.4347
17743TIP3   OH274643   5.761   6.474  12.047  0.0347  0.1665  0.5562
17743TIP3    H174644   5.827   6.505  12.109  0.9073  4.6409 -2.0814
17743TIP3    H274645   5.812   6.436  11.975 -0.6104 -0.7483  0.5742
17744TIP3   OH274646   4.528   6.168  14.281 -0.7411 -0.1320  0.3162
17744TIP3    H174647   4.531   6.084  14.327  0.8914  0.5286  1.5165
17744TIP3    H274648   4.575   6.152  14.198 -1.0468 -0.5759  0.2277
17745TIP3   OH274649   0.713   2.033  13.715 -0.1260  0.8174  0.4370
17745TIP3    H174650   0.786   1.990  13.669  0.6240  2.1148  0.3538
17745TIP3    H274651   0.654   1.961  13.738  1.1729 -0.2847  0.5046
17746TIP3   OH274652   3.385   0.364   1.363  0.0057 -0.1794  0.0270
17746TIP3    H174653   3.339   0.362   1.447  0.5976  1.4680  0.4259
17746TIP3    H274654   3.478   0.368   1.387  0.5778 -4.1729 -0.7580
17747TIP3   OH274655   3.126   3.194   6.611 -0.5382  0.0008 -0.2064
17747TIP3    H174656   3.083   3.256   6.670 -2.3347 -0.9259 -0.4934
17747TIP3    H274657   3.093   3.109   6.637  2.5261 -1.0152  0.7276
17748TIP3   OH274658   0.133   3.028  13.688 -0.4355  0.2215 -0.0193
17748TIP3    H174659   0.202   2.961  13.683  0.4146  0.9284  1.3553
17748TIP3    H274660   0.181   3.110  13.704 -1.6193  0.6339  1.6611
17749TIP3   OH274661   1.458   6.177   0.843 -0.2613 -0.0940  0.6390
17749TIP3    H174662   1.451   6.252   0.784 -0.6005 -1.2845 -0.8890
17749TIP3    H274663   1.369   6.161   0.873 -0.1944  0.0960  0.9386
17750TIP3   OH274664   0.911   1.268  15.759  0.6268 -0.2389  0.1359
17750TIP3    H174665   0.961   1.251  15.679 -1.7015 -0.9500 -1.2737
17750TIP3    H274666   0.820   1.276  15.729 -0.2204  0.3828  2.6234
17751TIP3   OH274667   1.393   4.907  14.731  0.6135  0.1620 -0.4109
17751TIP3    H174668   1.368   4.815  14.717  2.9760 -0.6350  0.0527
17751TIP3    H274669   1.394   4.945  14.644  1.5828 -0.8552 -0.8703
17752TIP3   OH274670   0.759   1.978  13.420 -0.7323 -0.6294 -0.5837
17752TIP3    H174671   0.667   1.983  13.397 -1.1743 -1.1903  0.9246
17752TIP3    H274672   0.769   1.890  13.458  0.8482 -1.3239 -2.3952
17753TIP3   OH274673   0.595   0.776   1.376  0.7661 -0.0644 -0.1745
17753TIP3    H174674   0.679   0.768   1.421  0.3284  2.2305  1.2065
17753TIP3    H274675   0.608   0.731   1.293  3.0077 -0.6822  0.4358
17754TIP3   OH274676   0.285   4.427   0.668 -0.0786  0.1941  0.6841
17754TIP3    H174677   0.354   4.485   0.636  0.1702  0.5782  1.8716
17754TIP3    H274678   0.332   4.355   0.709 -0.3953 -0.1751  0.4071
17755TIP3   OH274679   3.131   3.737  10.599 -0.2770 -0.1564 -0.1894
17755TIP3    H174680   3.107   3.689  10.678 -0.0216  0.5785  0.3510
17755TIP3    H274681   3.048   3.748  10.551 -0.8532  1.3090  1.0689
17756TIP3   OH274682   5.927   2.402   5.220  0.1459  0.1794 -0.1948
17756TIP3    H174683   5.858   2.418   5.156  0.7158 -0.4922 -0.9901
17756TIP3    H274684   5.926   2.308   5.234  0.1911  0.2910  0.6094
17757TIP3   OH274685   6.084   2.116   2.362  1.0384 -0.3047 -0.1014
17757TIP3    H174686   6.116   2.080   2.444 -0.5203 -0.2128  0.5799
17757TIP3    H274687   5.989   2.122   2.373  0.7557 -0.4987 -1.9879
17758TIP3   OH274688   6.764   1.920   4.542 -0.5158 -0.3137  0.0212
17758TIP3    H174689   6.767   1.828   4.515 -1.6998 -0.4636  0.3494
17758TIP3    H274690   6.671   1.941   4.547 -0.3003  0.4376  1.5077
17759TIP3   OH274691   4.607   6.247   0.778 -0.9969  0.0935 -0.4819
17759TIP3    H174692   4.680   6.305   0.797  0.2794 -1.0122 -1.7463
17759TIP3    H274693   4.634   6.162   0.812 -2.0425 -0.1682 -0.2662
17760TIP3   OH274694   1.900   6.275   5.938  0.3589  0.2824  0.7182
17760TIP3    H174695   1.831   6.231   5.888  1.4574  0.8679 -1.4482
17760TIP3    H274696   1.865   6.363   5.954  1.2313  1.2700 -2.1272
17761TIP3   OH274697   1.297   0.419   3.927  0.5530 -0.0321  0.3795
17761TIP3    H174698   1.343   0.369   3.859  1.0668  0.7209  0.1544
17761TIP3    H274699   1.293   0.360   4.002 -2.9934 -2.1991 -1.2726
17762TIP3   OH274700   3.118   2.535  11.771 -0.3684  0.4804  0.5470
17762TIP3    H174701   3.137   2.501  11.683 -0.5198  3.6824 -0.8616
17762TIP3    H274702   3.204   2.547  11.811 -0.1641  1.2112 -0.0980
17763TIP3   OH274703   2.640   0.949   2.419 -0.4371 -0.1311 -0.7569
17763TIP3    H174704   2.733   0.931   2.434 -0.4718  0.0475 -0.3210
17763TIP3    H274705   2.595   0.890   2.480 -0.6619 -1.4667 -2.1689
17764TIP3   OH274706   5.394   1.122  16.782 -0.5217  0.6595 -0.2579
17764TIP3    H174707   5.353   1.204  16.756 -1.1848  1.2572  2.3234
17764TIP3    H274708   5.325   1.074  16.828  0.3506 -0.5319 -0.1448
17765TIP3   OH274709   1.494   4.771  14.975  0.0021 -0.0020 -0.0894
17765TIP3    H174710   1.579   4.727  14.980 -0.3861 -0.6750  0.7425
17765TIP3    H274711   1.498   4.820  14.893  1.4351  0.4970  0.2443
17766TIP3   OH274712   4.845   6.542  12.351 -0.6692  0.0303 -0.1138
17766TIP3    H174713   4.775   6.493  12.395 -2.8454  1.0251 -2.1946
17766TIP3    H274714   4.814   6.632  12.350  0.9351  0.6081 -0.6444
17767TIP3   OH274715   1.698   3.905  16.302 -0.1980  0.3472  0.4366
17767TIP3    H174716   1.735   3.965  16.237  0.8025 -0.9728 -0.2743
17767TIP3    H274717   1.603   3.916  16.294 -0.0839  0.4458 -1.0439
17768TIP3   OH274718   1.687   2.211  12.101 -0.1129  0.0933 -0.7697
17768TIP3    H174719   1.607   2.242  12.058  0.2861  0.5435 -1.1917
17768TIP3    H274720   1.750   2.282  12.089 -0.3829  0.8779  1.7695
17769TIP3   OH274721   4.413   0.206   6.645 -0.2326 -1.1924  0.4209
17769TIP3    H174722   4.343   0.258   6.605  2.1955  0.9820 -1.3857
17769TIP3    H274723   4.392   0.116   6.623 -2.0822 -0.5541 -0.6468
17770TIP3   OH274724   3.845   6.111  11.926  0.2064 -0.2530 -0.1367
17770TIP3    H174725   3.753   6.100  11.901  0.5871 -0.9408 -1.2607
17770TIP3    H274726   3.878   6.179  11.868  0.1373  0.8332  1.0363
17771TIP3   OH274727   4.309   3.654  14.934 -0.5359  0.4649  0.1296
17771TIP3    H174728   4.286   3.609  14.853  1.3104 -0.4497  0.0700
17771TIP3    H274729   4.306   3.586  15.001  0.7955  0.5621  0.3065
17772TIP3   OH274730   4.273   5.990  13.622  0.0309 -0.3445  0.1145
17772TIP3    H174731   4.255   5.942  13.703  2.0072  0.1585  0.8899
17772TIP3    H274732   4.241   6.079  13.639  1.8070  0.1672  0.9526
17773TIP3   OH274733   6.124   5.170  14.759 -0.1311 -0.4195  0.2452
17773TIP3    H174734   6.115   5.226  14.835 -1.4808  0.1088 -0.2760
17773TIP3    H274735   6.159   5.227  14.691 -1.5673 -0.1493 -0.3028
17774TIP3   OH274736   1.986   1.449   2.930 -0.4503  0.2689  0.1413
17774TIP3    H174737   2.015   1.498   3.007  1.8640 -2.1704  0.9635
17774TIP3    H274738   2.010   1.506   2.856 -0.7709  1.7094  1.0989
17775TIP3   OH274739   5.797   3.857  12.112 -0.0619  0.0021  0.3328
17775TIP3    H174740   5.807   3.790  12.044  1.6319  1.7151 -1.2145
17775TIP3    H274741   5.706   3.887  12.102 -0.4623 -1.1794  0.2291
17776TIP3   OH274742   3.122   4.359   0.961  0.2505  0.5121  0.2428
17776TIP3    H174743   3.195   4.354   1.024 -1.1576  1.6078  2.0754
17776TIP3    H274744   3.072   4.436   0.989 -1.4149  0.0039 -1.1747
17777TIP3   OH274745   1.100   6.268  14.182  0.0916  0.0485  0.4250
17777TIP3    H174746   1.187   6.257  14.143 -1.1363 -1.0638 -2.3034
17777TIP3    H274747   1.107   6.227  14.268  1.9163 -1.2955 -0.2831
17778TIP3   OH274748   4.678   4.097   3.306 -0.9028 -0.0666 -0.4325
17778TIP3    H174749   4.588   4.129   3.305 -0.6167  1.0575  2.0802
17778TIP3    H274750   4.684   4.043   3.385  0.1184 -1.9058 -1.6906
17779TIP3   OH274751   2.551   2.314   3.478  0.0524 -0.0833  0.1439
17779TIP3    H174752   2.640   2.284   3.496  0.1891 -0.2594 -0.7891
17779TIP3    H274753   2.556   2.409   3.489  0.0860 -0.1866  1.1548
17780TIP3   OH274754   3.313   0.686   5.877  0.4937 -0.0792  0.1952
17780TIP3    H174755   3.223   0.707   5.853  0.8009  1.1983  0.0863
17780TIP3    H274756   3.339   0.617   5.815 -0.4612 -0.6058  0.3607
17781TIP3   OH274757   6.331   5.006  14.896  0.5240 -0.2330  0.8646
17781TIP3    H174758   6.262   5.046  14.843  0.2521  0.7154  1.8852
17781TIP3    H274759   6.410   5.012  14.842  0.4080  1.3800  0.8176
17782TIP3   OH274760   4.503   3.781  12.146 -0.1873  0.8151  0.3175
17782TIP3    H174761   4.483   3.763  12.237 -0.8783  0.3564  0.0786
17782TIP3    H274762   4.588   3.738  12.131  0.4857  1.8493  1.0347
17783TIP3   OH274763   5.459   4.315  14.212  0.2558 -0.1735  0.2035
17783TIP3    H174764   5.457   4.292  14.305  0.0759  0.1526  0.2791
17783TIP3    H274765   5.510   4.244  14.171 -1.1551 -1.2623  0.2737
17784TIP3   OH274766   3.966   3.115  14.236  0.2982  0.3505 -0.0267
17784TIP3    H174767   3.915   3.162  14.170  0.0244  0.9688  0.6020
17784TIP3    H274768   3.930   3.146  14.319  0.0823 -1.0333  0.4100
17785TIP3   OH274769   2.738   4.814   6.519  0.0991  0.0250  0.1179
17785TIP3    H174770   2.734   4.788   6.427 -0.5923  1.1517 -0.1909
17785TIP3    H274771   2.766   4.905   6.517  2.7703 -0.6785  1.1872
17786TIP3   OH274772   2.560   2.547   4.942  0.2699  0.4019 -0.4028
17786TIP3    H174773   2.595   2.465   4.908  0.7309  0.0179  0.9230
17786TIP3    H274774   2.493   2.572   4.880  2.3876  0.8050 -2.6744
17787TIP3   OH274775   6.316   2.493  11.506  0.0121 -0.2334 -0.1257
17787TIP3    H174776   6.232   2.466  11.469 -0.3987  0.2374  0.4574
17787TIP3    H274777   6.381   2.442  11.457 -0.7073 -2.0530  0.7287
17788TIP3   OH274778   1.762   6.388  15.028 -0.5071  0.4075 -0.0651
17788TIP3    H174779   1.721   6.302  15.032  0.0924  0.1373  0.3871
17788TIP3    H274780   1.690   6.448  15.005 -0.5417 -0.4920 -2.6584
17789TIP3   OH274781   1.445   3.544  13.216  0.1660 -0.5759  0.1478
17789TIP3    H174782   1.446   3.531  13.311  0.4248  2.3664  0.6276
17789TIP3    H274783   1.508   3.614  13.200  0.3433 -1.1780 -2.2766
17790TIP3   OH274784   3.651   6.351  12.447 -0.1753 -0.0511 -0.2173
17790TIP3    H174785   3.618   6.376  12.533 -2.7166  1.9393 -1.6068
17790TIP3    H274786   3.648   6.255  12.447  0.5071 -0.1331  2.0614
17791TIP3   OH274787   2.931   5.674   6.567 -0.1732  0.4890 -0.2439
17791TIP3    H174788   2.920   5.703   6.476 -0.6029 -0.1578 -0.4051
17791TIP3    H274789   2.950   5.581   6.560 -3.4906 -0.3777  0.4326
17792TIP3   OH274790   0.166   1.728  11.415 -0.1792  0.3583  0.0990
17792TIP3    H174791   0.168   1.640  11.454 -0.2527  0.1435 -0.3818
17792TIP3    H274792   0.091   1.771  11.456  1.4427  1.1627  2.4207
17793TIP3   OH274793   2.591   0.374   2.281 -0.0375  0.1285  0.2049
17793TIP3    H174794   2.590   0.407   2.191 -0.8293  0.5821  0.3670
17793TIP3    H274795   2.499   0.368   2.305  0.0645 -2.1472  0.2290
17794TIP3   OH274796   1.669   2.345  14.185  0.3530  0.5176 -0.6031
17794TIP3    H174797   1.723   2.393  14.122  0.3054 -1.0560 -1.9029
17794TIP3    H274798   1.675   2.253  14.157  0.7010 -0.3280  1.9733
17795TIP3   OH274799   0.699   3.415  15.030  0.1269 -0.0486 -0.3892
17795TIP3    H174800   0.656   3.329  15.031  0.1962 -0.0743  0.6238
17795TIP3    H274801   0.632   3.475  14.996 -0.4370 -0.2377  0.3645
17796TIP3   OH274802   6.053   1.197  13.780  0.5440 -0.1379  0.6413
17796TIP3    H174803   6.005   1.197  13.698  2.5037 -0.4018 -0.5576
17796TIP3    H274804   6.062   1.105  13.804 -0.2827 -0.0487  1.3271
17797TIP3   OH274805   5.599   2.573  15.750  0.3418  0.1939  0.1816
17797TIP3    H174806   5.577   2.641  15.687  0.9641  1.9429  1.7611
17797TIP3    H274807   5.662   2.614  15.809  0.1902 -1.5297  1.6424
17798TIP3   OH274808   5.707   4.987  15.647 -0.0088  0.2460  0.3485
17798TIP3    H174809   5.732   5.027  15.730 -1.0861  1.5794  0.0499
17798TIP3    H274810   5.791   4.972  15.603  0.4807  1.2987  0.8686
17799TIP3   OH274811   3.571   0.716   0.141  0.5302  0.1634  0.0245
17799TIP3    H174812   3.600   0.746   0.055  0.6369  2.1892  0.7018
17799TIP3    H274813   3.643   0.663   0.174  0.9030  0.2031 -0.7104
17800TIP3   OH274814   2.338   1.248  14.804 -0.8513  0.0870  0.7038
17800TIP3    H174815   2.291   1.181  14.854  0.2954 -1.2166  0.1134
17800TIP3    H274816   2.415   1.268  14.857 -0.0313 -0.7384 -0.1305
17801TIP3   OH274817   3.579   1.131   5.037 -0.1857  0.4209  0.5063
17801TIP3    H174818   3.557   1.041   5.012  1.5844  0.1470 -0.2483
17801TIP3    H274819   3.579   1.129   5.133 -1.6289  0.0296  0.5181
17802TIP3   OH274820   2.042   4.961  15.312 -0.2663 -0.0719 -0.3218
17802TIP3    H174821   1.995   4.893  15.263  0.5303  0.1290 -1.4156
17802TIP3    H274822   2.121   4.976  15.260  0.0758  0.9414  0.4764
17803TIP3   OH274823   0.511   6.276  15.820 -0.6983  0.3325 -0.8144
17803TIP3    H174824   0.424   6.235  15.817 -0.2150 -0.9228  0.7483
17803TIP3    H274825   0.566   6.210  15.863  1.0315  1.1108 -1.7744
17804TIP3   OH274826   5.495   5.953  10.537 -0.0507  0.0533  0.0806
17804TIP3    H174827   5.526   6.036  10.574  1.7390  0.0009 -1.1473
17804TIP3    H274828   5.406   5.971  10.508  0.2323  1.4851  0.0305
17805TIP3   OH274829   5.187   0.106   5.096 -0.1014  0.1684  0.8272
17805TIP3    H174830   5.216   0.142   5.180  0.0760 -0.8695  1.2311
17805TIP3    H274831   5.120   0.041   5.120  0.5979 -0.7997  0.2486
17806TIP3   OH274832   3.696   5.704  11.030  0.1174  0.0172 -0.0438
17806TIP3    H174833   3.713   5.636  11.094 -0.8446 -1.0657 -0.8988
17806TIP3    H274834   3.614   5.744  11.057  0.8191  1.0569  0.6140
17807TIP3   OH274835   1.700   1.987  12.259  0.1907  0.2140 -0.1664
17807TIP3    H174836   1.613   1.948  12.257  0.6090 -0.7284 -0.2154
17807TIP3    H274837   1.691   2.068  12.209 -0.3329 -0.5331 -1.3168
17808TIP3   OH274838   5.273   6.577  14.529  0.0683  0.1509  0.2294
17808TIP3    H174839   5.317   6.632  14.594 -1.1142  0.9362  0.3848
17808TIP3    H274840   5.344   6.545  14.473  0.8002  1.7025  0.2263
17809TIP3   OH274841   3.779   1.303   0.365  0.0376  0.4480  0.0606
17809TIP3    H174842   3.799   1.236   0.430  0.6176 -0.9086 -1.4163
17809TIP3    H274843   3.858   1.307   0.310 -1.0177  0.2716 -1.5513
17810TIP3   OH274844   6.219   5.782  12.147  0.1945  0.5598  0.0478
17810TIP3    H174845   6.135   5.764  12.104  0.7491  1.6092 -1.5819
17810TIP3    H274846   6.204   5.761  12.239 -2.2864  1.9440  0.0639
17811TIP3   OH274847   0.048   1.376  13.139 -0.1446 -0.3154 -0.1213
17811TIP3    H174848   0.068   1.469  13.126  1.0779 -0.4304  0.7439
17811TIP3    H274849  -0.002   1.352  13.061  0.5176  0.7987 -0.9369
17812TIP3   OH274850   3.931   1.018  16.873 -0.1426 -0.4210 -0.2726
17812TIP3    H174851   4.005   1.078  16.860  0.0146 -0.3982  0.6402
17812TIP3    H274852   3.941   0.988  16.963 -1.9153  0.4808  0.2496
17813TIP3   OH274853   1.547   1.350  11.878 -0.1294  0.3458 -0.3030
17813TIP3    H174854   1.531   1.315  11.790 -0.7404  0.9210 -0.4250
17813TIP3    H274855   1.632   1.394  11.871 -1.4307  2.8859 -1.4095
17814TIP3   OH274856   1.719   6.313  15.366 -0.2253 -1.2802  0.1436
17814TIP3    H174857   1.756   6.231  15.399 -0.6083 -2.3382 -1.8751
17814TIP3    H274858   1.663   6.286  15.293 -2.4521  0.5641  1.0734
17815TIP3   OH274859   3.936   3.554  16.743  0.0195  0.2526  0.2504
17815TIP3    H174860   3.981   3.550  16.658 -0.4793  1.2978 -0.0773
17815TIP3    H274861   3.956   3.470  16.784  0.6683 -0.0800 -0.6991
17816TIP3   OH274862   6.654   1.046   0.420 -1.0045 -0.1643 -0.5224
17816TIP3    H174863   6.614   0.960   0.428 -1.1753 -0.2223 -1.7625
17816TIP3    H274864   6.594   1.105   0.466 -0.8590 -0.7066  0.3695
17817TIP3   OH274865   1.743   2.231  16.876  0.0244  0.3845 -0.0071
17817TIP3    H174866   1.689   2.270  16.944 -0.1770 -1.2453  0.8227
17817TIP3    H274867   1.700   2.253  16.794 -1.1652  0.2421  0.5689
17818TIP3   OH274868   0.509   1.586   5.508 -0.1911  0.0709  0.1856
17818TIP3    H174869   0.601   1.576   5.483 -0.2878 -0.0013 -0.1446
17818TIP3    H274870   0.503   1.675   5.542 -0.1729  0.3475 -0.5387
17819TIP3   OH274871   4.012   4.286  16.231 -0.4553 -0.1111 -0.9673
17819TIP3    H174872   3.993   4.363  16.285  1.9224 -0.9110  1.2000
17819TIP3    H274873   3.931   4.235  16.234 -1.3193  1.2211 -0.5850
17820TIP3   OH274874   6.493   1.370  14.576  0.2272  0.1886  0.4857
17820TIP3    H174875   6.437   1.422  14.518  0.0985  0.1627  0.5859
17820TIP3    H274876   6.544   1.315  14.517  0.0839  0.1495  0.3966
17821TIP3   OH274877   4.988   3.833  15.936 -0.3740  0.2748 -0.1235
17821TIP3    H174878   5.075   3.803  15.965 -0.4962 -1.3883 -1.3407
17821TIP3    H274879   4.994   3.929  15.940  0.7481  0.1928  1.9657
17822TIP3   OH274880   1.564   1.355  12.189  0.4991  0.4754 -0.5251
17822TIP3    H174881   1.658   1.370  12.200  0.9254 -2.5776  1.1445
17822TIP3    H274882   1.558   1.293  12.117 -0.0423 -0.6628  0.4609
17823TIP3   OH274883   6.544   4.172  16.956 -0.1346  0.2558  0.6064
17823TIP3    H174884   6.594   4.169  16.875  0.6941  0.5622  1.0897
17823TIP3    H274885   6.557   4.262  16.989 -1.5777  0.5724  0.3990
17824TIP3   OH274886   5.361   6.291  15.588  0.3318 -0.3657 -0.5659
17824TIP3    H174887   5.284   6.345  15.606  1.0468  0.3067  0.6488
17824TIP3    H274888   5.419   6.348  15.537  0.0031 -0.9108 -1.5828
17825TIP3   OH274889   0.253   6.598  12.484 -0.3881 -0.2074 -0.2721
17825TIP3    H174890   0.183   6.551  12.439  0.8239 -1.0817 -1.2918
17825TIP3    H274891   0.284   6.663  12.421 -0.9646  0.9103  0.5560
17826TIP3   OH274892   5.066   3.052  14.608  0.0947  0.7082  0.2433
17826TIP3    H174893   5.105   3.002  14.679  0.9722 -2.0037 -1.9669
17826TIP3    H274894   4.972   3.034  14.615  0.4853 -2.4342 -1.1890
17827TIP3   OH274895   1.515   0.386  12.875  0.3709  0.3678  0.0586
17827TIP3    H174896   1.489   0.304  12.833 -1.0048  0.6485  0.3334
17827TIP3    H274897   1.592   0.362  12.926 -1.3102 -1.3340  1.9929
17828TIP3   OH274898   3.709   2.421   2.474 -0.2033  0.4431 -0.3185
17828TIP3    H174899   3.673   2.509   2.481 -2.0607 -0.2895 -0.0544
17828TIP3    H274900   3.640   2.370   2.431  1.5100 -0.5302 -2.1147
17829TIP3   OH274901   3.190   2.317   2.597 -0.1530 -0.1507 -0.2725
17829TIP3    H174902   3.148   2.362   2.524 -0.4230 -1.4995 -0.9891
17829TIP3    H274903   3.278   2.296   2.564 -0.7141 -1.9495 -0.7801
17830TIP3   OH274904   0.891   1.482  14.970 -0.1249  1.1702  0.2697
17830TIP3    H174905   0.828   1.545  14.934 -1.7738 -0.3596  0.3431
17830TIP3    H274906   0.843   1.438  15.040  0.8988 -0.3028  0.0875
17831TIP3   OH274907   1.901   3.252   6.345 -0.7928  0.5925  0.9507
17831TIP3    H174908   1.813   3.277   6.316 -0.2112  0.0158 -1.4447
17831TIP3    H274909   1.945   3.335   6.364 -0.9934  1.0417 -0.4915
17832TIP3   OH274910   3.653   3.198   4.233  0.4007 -0.0598 -0.0068
17832TIP3    H174911   3.634   3.157   4.149  0.4158 -0.3705  0.1368
17832TIP3    H274912   3.590   3.270   4.240  1.4055  0.9343 -0.9586
17833TIP3   OH274913   0.766   0.263   2.712 -0.0087  0.6142 -0.4400
17833TIP3    H174914   0.739   0.352   2.737  1.8388  1.3524 -0.8541
17833TIP3    H274915   0.857   0.274   2.683  0.4040 -1.5026 -0.0631
17834TIP3   OH274916   4.692   0.163   5.399  0.3681 -0.1058 -0.7681
17834TIP3    H174917   4.751   0.226   5.439 -0.3427  0.8112 -1.1382
17834TIP3    H274918   4.672   0.101   5.469 -0.2941  1.0742  0.1194
17835TIP3   OH274919   5.580   6.420   2.997 -0.2626 -0.0413 -0.0769
17835TIP3    H174920   5.512   6.371   3.044  0.7979 -0.3556  1.1952
17835TIP3    H274921   5.626   6.354   2.945 -0.5417  0.0716 -0.4722
17836TIP3   OH274922   2.148   0.004  16.934 -0.3145 -0.3710  0.0061
17836TIP3    H174923   2.193  -0.038  17.008 -2.2545 -0.6663  1.0926
17836TIP3    H274924   2.060  -0.034  16.935 -0.5131 -0.0777 -2.2394
17837TIP3   OH274925   5.088   2.389  16.425 -0.1691 -0.3491 -0.5197
17837TIP3    H174926   5.110   2.468  16.475  2.1948 -1.6829  0.7240
17837TIP3    H274927   5.094   2.416  16.334 -0.2933  1.0962 -0.1320
17838TIP3   OH274928   1.013   2.476  11.254  1.6545 -0.6719  0.6044
17838TIP3    H174929   0.948   2.451  11.319 -1.4198 -0.3185 -2.0571
17838TIP3    H274930   1.009   2.406  11.188  0.6649  1.4014 -1.7223
17839TIP3   OH274931   3.781   1.150  12.186  0.1082 -0.5910 -0.0500
17839TIP3    H174932   3.824   1.224  12.229  0.5104  0.1965 -1.7360
17839TIP3    H274933   3.840   1.076  12.200 -0.5521 -0.7752  2.1133
17840TIP3   OH274934   1.200   1.372   6.260 -0.7367 -0.1473  0.3864
17840TIP3    H174935   1.230   1.461   6.276 -1.7974  0.6427 -1.6667
17840TIP3    H274936   1.272   1.317   6.291  0.1439  1.4243  1.2755
17841TIP3   OH274937   5.887   3.207   3.831  0.2049  0.0688  0.6070
17841TIP3    H174938   5.800   3.169   3.826 -1.1460  2.4058  3.2235
17841TIP3    H274939   5.875   3.298   3.802  1.7159  0.4691  1.1447
17842TIP3   OH274940   4.172   4.394  16.602 -0.3525  0.2948 -0.2797
17842TIP3    H174941   4.124   4.406  16.685 -0.4433  0.1197 -0.3068
17842TIP3    H274942   4.243   4.458  16.607 -0.0939 -0.0223  0.1315
17843TIP3   OH274943   6.264   1.651   2.808  0.4543 -0.1971 -0.1961
17843TIP3    H174944   6.179   1.690   2.830  0.1374  0.1126 -1.8296
17843TIP3    H274945   6.278   1.584   2.875 -1.5138 -0.8678 -0.4050
17844TIP3   OH274946   4.316   5.038   0.021  0.7211  0.2494 -0.2535
17844TIP3    H174947   4.244   5.057  -0.038  0.5037  2.0457  0.5132
17844TIP3    H274948   4.363   4.966  -0.020 -1.9461 -1.5496 -0.3756
17845TIP3   OH274949   1.489   3.461   4.495 -0.0834 -0.3952  0.4335
17845TIP3    H174950   1.520   3.487   4.582 -0.6150 -1.9837  1.1295
17845TIP3    H274951   1.480   3.366   4.500 -0.0437 -0.5270 -1.4002
17846TIP3   OH274952   1.408   4.632  13.661  0.4455 -0.1342  0.5240
17846TIP3    H174953   1.340   4.565  13.648 -1.1890  0.9076  3.0089
17846TIP3    H274954   1.469   4.593  13.724 -0.2643  0.4788  1.6273
17847TIP3   OH274955   3.112   6.723  12.881  0.0491 -0.0362 -0.1739
17847TIP3    H174956   3.190   6.673  12.857 -1.7505 -3.0084 -0.2557
17847TIP3    H274957   3.100   6.784  12.808  2.4126  0.7423  0.0033
17848TIP3   OH274958   6.164   6.304   3.220 -0.3266 -0.1126 -0.1112
17848TIP3    H174959   6.217   6.376   3.255  2.0773 -1.5360 -0.5729
17848TIP3    H274960   6.188   6.299   3.128 -0.0672 -1.7560  0.0049
17849TIP3   OH274961   4.671   2.602   2.741 -0.4792  0.8651  0.1720
17849TIP3    H174962   4.629   2.654   2.673  0.6154 -0.0753 -1.2769
17849TIP3    H274963   4.696   2.521   2.698  0.9384  0.5435  1.4935
17850TIP3   OH274964   2.101   0.469  13.188  0.3208  0.6847 -0.4582
17850TIP3    H174965   2.126   0.470  13.095  1.0477  3.6360 -0.3323
17850TIP3    H274966   2.009   0.494  13.188  0.3021  0.6145 -0.3888
17851TIP3   OH274967   5.341   6.291   0.373  0.6167 -0.7049 -0.0971
17851TIP3    H174968   5.357   6.275   0.466 -1.6555  0.1191  0.5185
17851TIP3    H274969   5.323   6.385   0.368  0.5988 -0.7634 -1.3605
17852TIP3   OH274970   6.520   2.150  11.921 -0.2213 -0.9439 -0.1137
17852TIP3    H174971   6.430   2.117  11.928 -0.4169 -0.2352  0.9227
17852TIP3    H274972   6.527   2.181  11.830 -0.8722 -1.4279 -0.3321
17853TIP3   OH274973   2.743   2.828   4.169  0.1436 -0.2372 -0.4440
17853TIP3    H174974   2.683   2.753   4.165  1.3108 -1.3139  1.1572
17853TIP3    H274975   2.693   2.896   4.214 -0.9871  0.0637 -2.0619
17854TIP3   OH274976   0.116   5.138  15.052  0.0082 -0.3742 -0.5615
17854TIP3    H174977   0.141   5.223  15.016  0.6452 -0.3094 -0.0002
17854TIP3    H274978   0.037   5.156  15.103  0.8430  0.1549  0.5987
17855TIP3   OH274979   0.465   4.785  14.302 -0.4679 -0.1450 -0.0749
17855TIP3    H174980   0.422   4.712  14.257  2.1438  0.0557 -3.3117
17855TIP3    H274981   0.540   4.746  14.345  1.1194  0.5215 -2.0761
17856TIP3   OH274982   1.480   0.773   0.998 -1.1125  0.0281  0.4060
17856TIP3    H174983   1.540   0.722   1.052  0.0874  1.3524  0.3947
17856TIP3    H274984   1.500   0.865   1.020 -2.4946  0.5326 -0.2940
17857TIP3   OH274985   3.492   6.092  12.166  0.5491  0.9322  0.1835
17857TIP3    H174986   3.428   6.119  12.100  0.3858  0.9334  0.3415
17857TIP3    H274987   3.551   6.167  12.174 -0.0576  1.3562  0.8140
17858TIP3   OH274988   6.720   5.324   1.101  0.8237 -0.5005  0.1991
17858TIP3    H174989   6.710   5.242   1.052  0.6547 -1.2010  1.3514
17858TIP3    H274990   6.730   5.391   1.034  2.0072 -1.5976 -0.7846
17859TIP3   OH274991   5.432   1.679  17.235  0.1021 -0.2298  0.0054
17859TIP3    H174992   5.507   1.622  17.253  0.4658  0.2479  0.0273
17859TIP3    H274993   5.455   1.762  17.276  0.8533  0.8445 -2.4365
17860TIP3   OH274994   1.061   2.329   0.765  0.1470  0.0479  0.3351
17860TIP3    H174995   0.996   2.362   0.827 -0.6200 -0.6479 -0.0731
17860TIP3    H274996   1.049   2.234   0.766  0.5619 -0.0206 -0.3938
17861TIP3   OH274997   2.240   0.980  16.725 -0.1734 -0.1963 -0.3426
17861TIP3    H174998   2.299   1.052  16.704  1.9052 -1.7588 -0.2060
17861TIP3    H274999   2.217   0.942  16.640 -0.5883  0.1076 -0.3674
17862TIP3   OH275000   6.378   2.246  13.723 -0.7386  0.2433 -0.5249
17862TIP3    H175001   6.363   2.194  13.644 -2.2582  1.4320 -1.0848
17862TIP3    H275002   6.290   2.269  13.753 -0.1427  1.7732  0.1719
17863TIP3   OH275003   2.346   1.877   5.699 -0.1451 -0.2823 -0.3399
17863TIP3    H175004   2.434   1.909   5.678  0.4822 -1.9676 -0.5117
17863TIP3    H275005   2.330   1.808   5.634 -1.7362  0.2111 -0.5049
17864TIP3   OH275006   5.010   3.490  13.676  0.6828 -0.2749  0.0690
17864TIP3    H175007   5.024   3.570  13.728  0.5043  0.4008 -0.8871
17864TIP3    H275008   4.918   3.468  13.691  0.1283  0.9230 -1.2714
17865TIP3   OH275009   2.708   6.274  15.296 -0.3760  0.1337 -0.1709
17865TIP3    H175010   2.800   6.286  15.271 -0.6347  0.0165 -1.2674
17865TIP3    H275011   2.675   6.211  15.232 -1.0805 -0.2362  0.5551
17866TIP3   OH275012   1.069   4.310  16.277 -0.4578  0.3189  0.3920
17866TIP3    H175013   0.981   4.296  16.240  0.5961 -1.0049 -1.8392
17866TIP3    H275014   1.121   4.342  16.203  1.8249 -2.5286  0.5896
17867TIP3   OH275015   3.514   0.817  14.269  0.2676 -0.1675 -0.2234
17867TIP3    H175016   3.530   0.792  14.178 -0.5596  1.5119 -0.8833
17867TIP3    H275017   3.600   0.821  14.309  0.5185 -3.2266 -0.2161
17868TIP3   OH275018   4.574   5.949  16.167  0.0025 -0.4892 -0.3226
17868TIP3    H175019   4.648   5.984  16.216 -0.2074 -0.6711  0.1241
17868TIP3    H275020   4.531   5.888  16.227 -0.5758 -0.3041 -0.5390
17869TIP3   OH275021   4.556   5.308   4.020  0.5843 -0.0757  0.3070
17869TIP3    H175022   4.546   5.226   4.069 -0.2057 -0.4281 -0.4246
17869TIP3    H275023   4.593   5.281   3.936 -0.7294  0.1596 -0.3753
17870TIP3   OH275024   1.983   4.939  10.737  0.6245 -0.8039 -0.2939
17870TIP3    H175025   1.890   4.939  10.715  0.7555 -2.3530 -0.9812
17870TIP3    H275026   2.020   5.006  10.680  0.0311 -0.6515 -0.5100
17871TIP3   OH275027   2.542   5.130   2.663 -0.1782  0.9823 -0.1730
17871TIP3    H175028   2.539   5.064   2.732 -1.9157  2.9701  1.8344
17871TIP3    H275029   2.498   5.090   2.588 -3.0840  0.4520  1.6564
17872TIP3   OH275030   4.092   3.173   3.955  0.3688  0.2656  0.3437
17872TIP3    H175031   4.147   3.246   3.926  0.8662  0.4271  1.6178
17872TIP3    H275032   4.020   3.215   4.004 -1.2318  0.0970 -1.7226
17873TIP3   OH275033   5.831   3.960   5.212  0.2537 -0.0584 -0.1848
17873TIP3    H175034   5.820   4.053   5.193  1.4397  0.1889  0.2774
17873TIP3    H275035   5.881   3.926   5.137 -1.0111 -0.5507 -0.8387
17874TIP3   OH275036   2.806   3.715   3.053 -0.0585  0.5540 -0.6132
17874TIP3    H175037   2.852   3.772   3.115  1.1119  1.0824 -1.9150
17874TIP3    H275038   2.796   3.768   2.974  1.4383 -1.1375 -2.0106
17875TIP3   OH275039   2.789   3.045   0.723 -0.1965  0.4286  0.4865
17875TIP3    H175040   2.727   3.111   0.754 -0.0774  1.1554 -0.7681
17875TIP3    H275041   2.774   3.040   0.628  1.0101 -0.0644  0.3018
17876TIP3   OH275042   1.941   0.700   3.349  0.5054  0.1738 -0.1163
17876TIP3    H175043   1.929   0.668   3.439 -0.4105  1.2482  0.1603
17876TIP3    H275044   1.890   0.639   3.296  2.6362 -1.6763 -0.1962
17877TIP3   OH275045   1.173   2.188  11.646 -0.2263 -0.4909  0.6353
17877TIP3    H175046   1.179   2.189  11.741  0.2153  0.7799  0.6232
17877TIP3    H275047   1.261   2.167  11.616 -0.0827  0.2386  0.5181
17878TIP3   OH275048   4.377   5.482   4.167  0.2623  0.1592 -0.4484
17878TIP3    H175049   4.430   5.407   4.143 -0.5579 -0.8395  0.7128
17878TIP3    H275050   4.314   5.448   4.230 -0.7348  1.6325 -0.5815
17879TIP3   OH275051   3.439   5.970   1.773  0.2762 -0.1240 -0.7965
17879TIP3    H175052   3.469   5.932   1.690  0.5252 -2.5319  0.3011
17879TIP3    H275053   3.463   5.905   1.839 -2.4531  0.3635  0.8297
17880TIP3   OH275054   5.512   3.647   6.804 -0.0519  0.1430  0.3102
17880TIP3    H175055   5.538   3.580   6.741  0.4941  0.5247  0.1270
17880TIP3    H275056   5.418   3.660   6.788  0.1429  0.4601 -0.6323
17881TIP3   OH275057   0.250   4.578   4.765 -0.0155 -0.1946 -0.1413
17881TIP3    H175058   0.311   4.508   4.741  1.3158  0.7516  0.3283
17881TIP3    H275059   0.268   4.594   4.858  1.3619  2.2461 -0.7140
17882TIP3   OH275060   6.442   0.628   2.179 -0.0441 -0.0626  0.2719
17882TIP3    H175061   6.486   0.699   2.132  0.1839 -0.5679 -0.2868
17882TIP3    H275062   6.355   0.622   2.140 -0.6041  0.8637  1.3042
17883TIP3   OH275063   4.242   5.856   0.707  0.1295 -0.0998  0.9338
17883TIP3    H175064   4.306   5.819   0.769 -1.3851  0.0615  2.6699
17883TIP3    H275065   4.157   5.832   0.743 -0.8434  1.7030 -0.0403
17884TIP3   OH275066   2.429   3.823  12.789 -0.3314  0.1604  0.2290
17884TIP3    H175067   2.463   3.741  12.751  0.5156  0.4671  0.2874
17884TIP3    H275068   2.344   3.836  12.747 -0.1964 -0.4334 -0.2420
17885TIP3   OH275069   3.568   3.316  17.254  0.0242 -0.8035  0.2553
17885TIP3    H175070   3.518   3.243  17.216  0.7280 -0.6437 -1.0378
17885TIP3    H275071   3.507   3.389  17.254  0.0894 -0.7324 -0.8755
17886TIP3   OH275072   2.940   2.311   1.750  0.3266  0.4717 -0.1977
17886TIP3    H175073   2.897   2.396   1.737  0.8516  0.7228 -0.3228
17886TIP3    H275074   2.987   2.320   1.833  0.7159  0.4502 -0.4114
17887TIP3   OH275075   0.600   3.749  14.027 -0.6513 -0.0590 -0.6202
17887TIP3    H175076   0.691   3.725  14.009  0.4379  3.2161 -0.1477
17887TIP3    H275077   0.572   3.794  13.947 -0.7794  1.6120  0.3324
17888TIP3   OH275078   5.851   5.301  11.651  0.1923  0.2259  0.1570
17888TIP3    H175079   5.934   5.314  11.606  0.0851  1.2136  0.2288
17888TIP3    H275080   5.793   5.263  11.585 -0.1049  2.0895 -0.7011
17889TIP3   OH275081   4.913   0.307  12.784 -0.1785  0.0768  0.3672
17889TIP3    H175082   4.861   0.244  12.834 -0.2375 -0.2424 -0.0890
17889TIP3    H275083   5.003   0.293  12.813  0.0049 -1.1702 -0.6936
17890TIP3   OH275084   3.990   3.049   2.368 -0.3494 -0.6440 -0.1040
17890TIP3    H175085   3.989   3.056   2.463  0.4051 -0.2803 -0.1145
17890TIP3    H275086   3.899   3.038   2.343 -0.7771  1.0573  0.5402
17891TIP3   OH275087   1.057   2.678   2.384 -0.2128 -0.3967 -0.4888
17891TIP3    H175088   1.061   2.757   2.329  0.6402  0.9922  1.4485
17891TIP3    H275089   0.992   2.623   2.341 -0.1293  0.9226 -2.4609
17892TIP3   OH275090   3.036   3.306  16.581  0.1017 -0.2979 -0.0173
17892TIP3    H175091   3.005   3.267  16.499 -0.1836  1.2223 -0.6643
17892TIP3    H275092   3.078   3.234  16.628 -0.0373 -1.2727 -1.3522
17893TIP3   OH275093   2.000   0.689   4.741  0.5128  0.3403 -0.2554
17893TIP3    H175094   1.931   0.696   4.676  1.0107 -0.1909 -0.8560
17893TIP3    H275095   2.032   0.599   4.733 -1.2371 -0.6588  2.6112
17894TIP3   OH275096   1.586   1.282   2.145 -0.3441  0.4585 -0.4019
17894TIP3    H175097   1.598   1.302   2.053  0.6924 -1.8703 -0.8600
17894TIP3    H275098   1.533   1.201   2.145  1.2565 -0.6561  0.9230
17895TIP3   OH275099   4.006   1.313  12.926  0.5083  0.3586  0.5210
17895TIP3    H175100   4.086   1.332  12.976  1.7980  0.1835 -1.3757
17895TIP3    H275101   4.004   1.217  12.922  0.3039  0.3681  0.4275
17896TIP3   OH275102   4.184   1.933   2.923 -0.4481 -0.8348  0.4209
17896TIP3    H175103   4.275   1.963   2.924 -0.2814 -1.1679 -1.0507
17896TIP3    H275104   4.151   1.961   2.837 -1.3609 -1.7571  0.4498
17897TIP3   OH275105   0.393   4.680   3.856 -0.4126 -0.0757  0.2681
17897TIP3    H175106   0.308   4.642   3.879 -0.4139 -0.1572  0.1266
17897TIP3    H275107   0.457   4.615   3.885 -0.4543 -0.6379 -0.8747
17898TIP3   OH275108   2.656   4.394   0.495  0.0808 -0.6522 -0.2158
17898TIP3    H175109   2.604   4.388   0.576  0.3453  0.4874  0.0544
17898TIP3    H275110   2.607   4.454   0.439  1.3870  0.9554  0.2901
17899TIP3   OH275111   3.599   0.758  14.005  0.3462  0.0315 -0.6292
17899TIP3    H175112   3.613   0.730  13.914  0.6421 -0.3916 -0.4556
17899TIP3    H275113   3.636   0.846  14.009  0.3458  0.0455 -0.9157
17900TIP3   OH275114   5.906   6.422  15.437 -0.6400  0.5152  0.0665
17900TIP3    H175115   5.852   6.358  15.483  0.4633 -0.2701  0.3169
17900TIP3    H275116   5.955   6.370  15.373 -0.9874  1.3695 -0.9094
17901TIP3   OH275117   0.082   5.437   4.923 -0.3081 -0.4094  0.4429
17901TIP3    H175118   0.124   5.502   4.866 -1.5699 -1.1783 -1.4555
17901TIP3    H275119   0.009   5.484   4.963 -1.0624 -0.5594 -0.7254
17902TIP3   OH275120   5.655   1.246   3.799 -0.2862 -0.5445 -0.2099
17902TIP3    H175121   5.734   1.205   3.763  0.1844  1.5936 -1.8192
17902TIP3    H275122   5.687   1.324   3.844 -1.4421  0.0689 -0.4231
17903TIP3   OH275123   1.454   4.668  16.926 -0.4724 -0.2183 -0.0328
17903TIP3    H175124   1.420   4.754  16.953  1.7121  0.4467  0.8452
17903TIP3    H275125   1.528   4.689  16.869 -0.5487 -1.5588 -0.6436
17904TIP3   OH275126   5.968   0.919  16.613 -0.0306  0.5504  0.0030
17904TIP3    H175127   6.011   0.976  16.677 -0.8817  0.7073  0.4551
17904TIP3    H275128   6.037   0.894  16.552  0.7510  0.5689  0.8690
17905TIP3   OH275129   0.588   0.898  15.024  0.6150  0.0034  0.2082
17905TIP3    H175130   0.502   0.900  14.982  1.4868 -1.8682 -1.8164
17905TIP3    H275131   0.573   0.937  15.110 -2.5045 -1.3236  0.3851
17906TIP3   OH275132   4.769   4.794   0.640 -0.0133 -0.1508  0.0264
17906TIP3    H175133   4.708   4.865   0.623 -0.3392 -0.5141 -0.3328
17906TIP3    H275134   4.759   4.735   0.566  0.4402 -0.4451  0.1936
17907TIP3   OH275135   3.269   1.052   0.965 -0.2843  0.7007 -0.4559
17907TIP3    H175136   3.244   1.075   0.875 -2.3573  0.0029 -0.1081
17907TIP3    H275137   3.186   1.037   1.010  0.7564 -0.8806  1.0717
17908TIP3   OH275138   0.599   1.357   1.507 -0.0328  0.2743  0.2298
17908TIP3    H175139   0.530   1.398   1.455 -0.7342 -0.9005  0.1883
17908TIP3    H275140   0.555   1.323   1.584  0.4639 -0.5745  0.1606
17909TIP3   OH275141   4.831   6.715  15.587 -0.4472 -0.2460  0.3628
17909TIP3    H175142   4.851   6.633  15.543 -1.0853 -0.7716  1.0219
17909TIP3    H275143   4.785   6.767  15.521 -1.0707 -0.8822  0.2810
17910TIP3   OH275144   2.558   5.161  15.196 -0.0012 -0.1242 -0.1249
17910TIP3    H175145   2.551   5.222  15.123  0.5433  1.3932  1.0230
17910TIP3    H275146   2.615   5.091  15.164  1.1504  1.0880 -0.8160
17911TIP3   OH275147   2.770   2.152  12.150 -0.2048 -0.1446 -0.1173
17911TIP3    H175148   2.736   2.065  12.172 -1.0136  0.4445  1.0939
17911TIP3    H275149   2.695   2.200  12.117 -0.0846  0.5241  0.5580
17912TIP3   OH275150   5.470   3.931  13.017  0.7412  0.2041 -0.0079
17912TIP3    H175151   5.551   3.880  13.026  1.7147  1.4682 -1.1689
17912TIP3    H275152   5.421   3.912  13.097  2.7326  0.3409  1.3307
17913TIP3   OH275153   2.391   4.979   2.517 -0.5601  0.0980 -0.1640
17913TIP3    H175154   2.390   4.888   2.548 -0.0656 -0.0833 -0.6692
17913TIP3    H275155   2.299   5.002   2.508 -0.7945  0.5291  2.4741
17914TIP3   OH275156   1.008   6.512  12.086  0.2898 -0.3213  0.0135
17914TIP3    H175157   0.915   6.489  12.083  0.3328 -0.9300  2.0171
17914TIP3    H275158   1.052   6.434  12.120  1.4011  0.2689 -0.0032
17915TIP3   OH275159   2.334   4.415   1.891  0.9033 -0.0447  0.0977
17915TIP3    H175160   2.297   4.335   1.854 -1.1070 -0.2585  2.3103
17915TIP3    H275161   2.426   4.396   1.904  1.1142 -0.8802 -2.1302
17916TIP3   OH275162   3.189   6.005   4.294 -0.0511  0.1701  0.3362
17916TIP3    H175163   3.262   5.950   4.264 -0.3732 -0.1074  0.0609
17916TIP3    H275164   3.181   6.073   4.228 -1.1071 -0.7441 -0.5313
17917TIP3   OH275165   4.919   4.551  11.544  0.7959  0.5643 -0.3561
17917TIP3    H175166   4.975   4.584  11.615  0.3229 -1.0856  0.8289
17917TIP3    H275167   4.905   4.459  11.565 -1.0092  0.5264 -1.5362
17918TIP3   OH275168   3.816   1.124  12.539 -0.4237  0.1446  0.6383
17918TIP3    H175169   3.819   1.034  12.507  0.4060 -0.2496  1.7588
17918TIP3    H275170   3.806   1.178  12.460  1.7854 -0.7458 -0.3349
17919TIP3   OH275171   1.267   4.611   4.761 -0.5479  0.6622 -0.2446
17919TIP3    H175172   1.183   4.657   4.769 -0.0889  1.3181  1.3862
17919TIP3    H275173   1.302   4.640   4.677 -2.8175 -1.2229 -1.9694
17920TIP3   OH275174   6.229   5.441   0.309  0.2548  0.1362 -0.6254
17920TIP3    H175175   6.236   5.396   0.394 -0.9910 -1.0100 -1.0824
17920TIP3    H275176   6.306   5.414   0.260  1.1099  0.9990  0.2141
17921TIP3   OH275177   5.137   6.755   2.448  0.2181 -0.5476 -0.3454
17921TIP3    H175178   5.092   6.828   2.490 -1.8561 -2.7939  1.7088
17921TIP3    H275179   5.222   6.750   2.492  0.9209  1.2643 -1.3848
17922TIP3   OH275180   1.042   2.804  16.878 -0.0178 -0.0544  0.2546
17922TIP3    H175181   0.964   2.752  16.898  0.5883 -0.1872  2.5813
17922TIP3    H275182   1.012   2.895  16.885  0.3150 -0.0693  2.8507
17923TIP3   OH275183   0.051   3.391  14.648 -0.4362 -0.0774 -0.6335
17923TIP3    H175184   0.131   3.401  14.596  0.7794  0.9844  1.3257
17923TIP3    H275185   0.005   3.474  14.638 -1.1592 -0.5547 -1.4608
17924TIP3   OH275186   0.793   6.766   5.194  0.4702 -0.0850 -0.1090
17924TIP3    H175187   0.813   6.678   5.226 -0.4023 -0.9404 -1.7899
17924TIP3    H275188   0.701   6.779   5.217  0.8079  0.7526  0.8569
17925TIP3   OH275189   3.343   6.750  15.545  0.3750 -0.0583  0.3487
17925TIP3    H175190   3.333   6.670  15.494  1.6463  0.5811 -0.9815
17925TIP3    H275191   3.258   6.794  15.538  0.2521 -0.4085 -0.5085
17926TIP3   OH275192   3.694   4.477   0.689 -0.1658 -0.0366  0.0032
17926TIP3    H175193   3.741   4.542   0.741  0.6368 -0.9675  0.4563
17926TIP3    H275194   3.746   4.469   0.608 -0.6037  0.3251 -0.3212
17927TIP3   OH275195   5.790   6.285   0.689  0.9145  0.1576 -0.0045
17927TIP3    H175196   5.722   6.301   0.755  0.5158 -0.2463 -0.3059
17927TIP3    H275197   5.846   6.218   0.728 -0.9157 -2.2141 -1.1166
17928TIP3   OH275198   0.207   6.036  14.256 -0.7979 -0.5986 -0.1522
17928TIP3    H175199   0.223   6.128  14.279 -0.1348 -0.4630 -1.1167
17928TIP3    H275200   0.202   5.991  14.341 -0.4322  0.2141  0.3135
17929TIP3   OH275201   2.654   4.915   6.037  0.4745  0.0828  0.4524
17929TIP3    H175202   2.691   4.845   6.090 -0.7513 -1.5714 -0.7785
17929TIP3    H275203   2.730   4.966   6.009  1.3509 -0.4144  1.7904
17930TIP3   OH275204   6.362   3.320  13.162 -0.1354 -0.2253 -0.7778
17930TIP3    H175205   6.348   3.235  13.121 -1.6710 -0.2318 -0.3024
17930TIP3    H275206   6.337   3.306  13.254  2.0633  0.0933 -0.0807
17931TIP3   OH275207   3.802   0.162  16.881  0.1996 -0.2744 -0.1189
17931TIP3    H175208   3.760   0.247  16.895  0.1692 -0.1285 -1.0172
17931TIP3    H275209   3.749   0.120  16.813  0.2349 -1.0045  0.2921
17932TIP3   OH275210   6.109   1.968   4.808 -0.2182 -0.4310 -0.2607
17932TIP3    H175211   6.025   2.005   4.835 -0.7059 -0.3737 -1.7739
17932TIP3    H275212   6.088   1.881   4.776  0.1955 -0.1998 -1.1977
17933TIP3   OH275213   5.403   4.444  12.772 -0.2348 -0.7901  0.0897
17933TIP3    H175214   5.359   4.459  12.855 -1.2883  0.0060 -0.5863
17933TIP3    H275215   5.431   4.531  12.744 -0.8445 -0.8877 -0.8872
17934TIP3   OH275216   3.122   4.143   1.689  0.1202 -0.1179  0.2328
17934TIP3    H175217   3.083   4.204   1.751 -2.2672 -1.3910  0.0995
17934TIP3    H275218   3.082   4.165   1.605  1.9783  0.4284 -0.5557
17935TIP3   OH275219   3.904   2.414  17.072 -0.4444 -0.4376  0.0918
17935TIP3    H175220   3.926   2.409  17.165  1.3615  0.4576 -0.2270
17935TIP3    H275221   3.928   2.503  17.047 -0.5424 -0.7841 -1.3155
17936TIP3   OH275222   1.381   4.626  12.225  0.1515  0.5056 -0.4361
17936TIP3    H175223   1.476   4.618  12.224  0.1002 -0.1758 -0.9898
17936TIP3    H275224   1.356   4.600  12.314  0.4365 -0.0735 -0.5153
17937TIP3   OH275225   3.063   2.424   0.699  0.2024  0.4738 -0.2829
17937TIP3    H175226   3.142   2.374   0.677 -0.1177  0.2982 -1.0355
17937TIP3    H275227   2.990   2.367   0.675 -0.1622  1.0876 -0.6425
17938TIP3   OH275228   2.995   6.580   1.150 -0.5776  0.3601  0.6584
17938TIP3    H175229   3.071   6.536   1.112  0.6841  1.6698  1.5704
17938TIP3    H275230   2.980   6.656   1.094  1.1405  2.1620  2.4816
17939TIP3   OH275231   3.418   5.686  15.601  0.4085  0.5008  0.3508
17939TIP3    H175232   3.481   5.617  15.621  0.3856  0.6223  0.8352
17939TIP3    H275233   3.332   5.648  15.622  0.3291  0.3933 -0.1517
17940TIP3   OH275234   0.770   0.061   3.342 -0.2283  0.2355  0.4616
17940TIP3    H175235   0.778   0.133   3.405  0.2137  0.5449  0.0589
17940TIP3    H275236   0.682   0.071   3.307  0.3814  1.6190 -0.8053
17941TIP3   OH275237   1.653   4.892   6.228 -0.1509 -0.1595  0.4245
17941TIP3    H175238   1.709   4.838   6.284  0.3663  1.7021  1.8309
17941TIP3    H275239   1.710   4.919   6.156  0.3289  0.4865  1.0344
17942TIP3   OH275240   4.205   6.164  12.140  0.0883 -0.4335 -0.7146
17942TIP3    H175241   4.216   6.250  12.182 -1.4162 -0.0697 -1.0119
17942TIP3    H275242   4.243   6.102  12.201  1.9433  0.4980 -0.8404
17943TIP3   OH275243   2.993   0.384   2.387  0.3223  0.4520 -0.7793
17943TIP3    H175244   2.911   0.374   2.436  0.9546  0.6080  0.3334
17943TIP3    H275245   2.993   0.476   2.361  0.8303  0.8396  0.5092
17944TIP3   OH275246   4.638   5.223   3.305 -0.2746 -0.9094 -0.1455
17944TIP3    H175247   4.581   5.297   3.324 -1.9192 -1.7366 -1.5287
17944TIP3    H275248   4.627   5.165   3.380  1.0537  0.2122  0.9649
17945TIP3   OH275249   0.305   1.895   0.136 -0.1788  0.4085 -0.6031
17945TIP3    H175250   0.293   1.990   0.127 -2.7482  0.2487  0.2597
17945TIP3    H275251   0.267   1.859   0.056 -0.5214  0.0652 -0.2914
17946TIP3   OH275252   0.934   5.493  14.201  0.3818 -0.3470  0.0491
17946TIP3    H175253   0.941   5.582  14.165  2.1299 -0.9032 -1.0646
17946TIP3    H275254   0.840   5.479  14.210  0.0173  1.1231 -1.0001
17947TIP3   OH275255   6.261   1.238   2.239  0.0640  0.0352  0.5966
17947TIP3    H175256   6.187   1.207   2.292  0.2607  0.1140  0.9189
17947TIP3    H275257   6.220   1.277   2.162 -0.2135 -0.3279  0.5578
17948TIP3   OH275258   2.800   2.585   1.671 -0.4637 -0.4321  0.4320
17948TIP3    H175259   2.806   2.670   1.627  0.9802 -1.0795 -0.7251
17948TIP3    H275260   2.725   2.593   1.730 -0.8303  1.3697 -0.2246
17949TIP3   OH275261   0.100   1.588  14.834  0.1936 -0.3504  0.1823
17949TIP3    H175262   0.037   1.538  14.885 -2.0550  0.5993 -1.4819
17949TIP3    H275263   0.098   1.676  14.872 -0.0364 -0.1359 -0.3133
17950TIP3   OH275264   2.451   5.522  16.896 -0.5322 -0.4927  0.0970
17950TIP3    H175265   2.505   5.446  16.921 -1.1147 -0.6751  0.8278
17950TIP3    H275266   2.423   5.560  16.980  0.3610  0.9893 -0.2350
17951TIP3   OH275267   2.393   6.114  14.250  0.5752  0.7400  0.0073
17951TIP3    H175268   2.330   6.042  14.244 -0.8299  1.9106  0.0304
17951TIP3    H275269   2.442   6.111  14.168 -0.2861  0.4785 -0.5047
17952TIP3   OH275270   0.743   2.441  14.387 -0.1605 -0.2695  0.4291
17952TIP3    H175271   0.831   2.404  14.380  0.2583  0.9626 -2.2297
17952TIP3    H275272   0.756   2.533  14.410 -0.8462 -0.3583  1.2299
17953TIP3   OH275273   2.880   2.297  11.688 -0.6593  0.0501 -0.4457
17953TIP3    H175274   2.800   2.245  11.690 -0.3111 -0.4819  0.5997
17953TIP3    H275275   2.857   2.378  11.735 -0.7164  0.0948 -0.5507
17954TIP3   OH275276   1.981   2.813   3.202  0.0965 -0.3985 -0.2683
17954TIP3    H175277   1.978   2.762   3.283 -1.0561 -1.3433 -0.8698
17954TIP3    H275278   1.918   2.883   3.215  0.6876  0.0775  0.0469
17955TIP3   OH275279   3.317   1.152   0.520 -0.0968 -0.0409 -0.2410
17955TIP3    H175280   3.339   1.243   0.500 -1.0867 -0.0666 -1.4936
17955TIP3    H275281   3.242   1.158   0.579 -0.4249 -0.0627 -0.6612
17956TIP3   OH275282   3.852   2.980  13.823 -0.2855 -0.1919 -0.8957
17956TIP3    H175283   3.913   3.053  13.811 -0.2893 -0.3409 -1.9850
17956TIP3    H275284   3.767   3.021  13.835 -0.0805  0.0060 -0.0900
17957TIP3   OH275285   1.356   5.962  14.466 -0.6101 -0.1445 -0.4449
17957TIP3    H175286   1.283   5.906  14.439 -0.2562 -0.2694 -1.1867
17957TIP3    H275287   1.430   5.929  14.416 -0.2100  0.4488 -0.2496
17958TIP3   OH275288   3.775   0.236  11.509  0.0646  0.4463  0.2465
17958TIP3    H175289   3.757   0.319  11.553 -2.8130  1.2892 -2.2141
17958TIP3    H275290   3.859   0.250  11.465  0.3225  1.5020  1.0287
17959TIP3   OH275291   4.227   6.460  17.051  0.1780 -0.0536 -0.1086
17959TIP3    H175292   4.160   6.444  17.117 -0.1754 -1.1996 -0.7185
17959TIP3    H275293   4.180   6.499  16.978  0.4317  0.4547 -0.0110
17960TIP3   OH275294   2.691   0.001  10.873  0.1501  0.3968 -0.1731
17960TIP3    H175295   2.674   0.095  10.879 -3.0035 -0.0241 -0.6907
17960TIP3    H275296   2.645  -0.026  10.793 -1.1877 -1.9205  1.2642
17961TIP3   OH275297   5.551   2.929  17.157 -0.2154 -0.3058  0.6275
17961TIP3    H175298   5.571   2.845  17.199  1.5581 -0.2615 -0.0133
17961TIP3    H275299   5.575   2.916  17.066 -1.5579  0.4032  0.1521
17962TIP3   OH275300   1.380   0.380  14.443  0.3224 -0.0491  0.6485
17962TIP3    H175301   1.434   0.420  14.375  1.6487  1.1855  2.3350
17962TIP3    H275302   1.359   0.293  14.410  0.9902  0.4735 -1.2737
17963TIP3   OH275303   5.291   6.414  16.078  0.0516  0.0374 -0.3932
17963TIP3    H175304   5.315   6.487  16.135  0.6830 -0.1042 -0.4718
17963TIP3    H275305   5.374   6.375  16.053 -0.2777 -2.7183  2.2531
17964TIP3   OH275306   1.771   5.487  13.852  0.2243 -0.0521  0.0722
17964TIP3    H175307   1.784   5.508  13.760 -0.4380 -1.0913 -0.2675
17964TIP3    H275308   1.775   5.391  13.856 -1.0934 -0.0957  0.8999
17965TIP3   OH275309   6.003   4.964   0.017 -0.2185 -0.3524  0.4454
17965TIP3    H175310   6.090   4.944   0.050  0.1990  1.6116  0.6608
17965TIP3    H275311   6.017   4.982  -0.076 -0.5140 -0.6988  0.3328
17966TIP3   OH275312   1.190   4.384  12.496  0.5542  0.1575 -0.0060
17966TIP3    H175313   1.276   4.428  12.493  0.3100  0.7394  0.9835
17966TIP3    H275314   1.160   4.398  12.585  0.0235 -1.2202  0.0471
17967TIP3   OH275315   6.046   2.581  14.142  0.7438  0.8399 -0.4033
17967TIP3    H175316   6.129   2.558  14.183  1.3041  0.3358 -1.7730
17967TIP3    H275317   6.006   2.497  14.119  0.2575  1.1005 -0.5233
17968TIP3   OH275318   0.545   1.947   0.270 -0.5874 -0.4001 -0.3612
17968TIP3    H175319   0.468   1.913   0.225 -0.8013  0.7309 -0.8707
17968TIP3    H275320   0.511   1.983   0.352 -0.2518 -2.0905  0.5694
17969TIP3   OH275321   0.450   6.785  13.245 -0.1944  0.2047  0.1956
17969TIP3    H175322   0.373   6.833  13.217 -0.2819  0.1816  0.3868
17969TIP3    H275323   0.474   6.730  13.170  0.2389  0.9448 -0.2206
17970TIP3   OH275324   6.047   5.252  15.664 -0.0817  0.2607 -0.0178
17970TIP3    H175325   6.057   5.285  15.753  0.7811  0.7098 -0.2676
17970TIP3    H275326   6.125   5.284  15.618 -1.3116  1.4729 -1.3594
17971TIP3   OH275327   4.624   0.141  13.501  0.4324 -1.0454  0.2252
17971TIP3    H175328   4.630   0.186  13.417  1.0833 -1.5283  0.0061
17971TIP3    H275329   4.655   0.052  13.484 -0.1393 -1.3705  0.8143
17972TIP3   OH275330   4.541   1.507  16.379 -0.4065 -0.3872  0.3578
17972TIP3    H175331   4.635   1.527  16.374 -0.2738 -0.7935  1.1496
17972TIP3    H275332   4.498   1.591  16.365  0.0716 -0.1843  0.0609
17973TIP3   OH275333   6.279   3.605  15.281 -0.7064 -0.1838 -0.0453
17973TIP3    H175334   6.361   3.651  15.301 -1.2992  0.7511  0.2960
17973TIP3    H275335   6.289   3.578  15.190  0.2830 -0.7394  0.2132
17974TIP3   OH275336   5.886   6.025   5.523 -0.3168 -0.4759  0.4213
17974TIP3    H175337   5.963   6.031   5.467 -0.4534  1.5585  0.3618
17974TIP3    H275338   5.863   6.116   5.542 -2.4045 -1.0377  0.8670
17975TIP3   OH275339   4.624   4.714  13.653  0.0770  0.3585 -0.6035
17975TIP3    H175340   4.605   4.654  13.725 -2.5224  0.5967 -1.0142
17975TIP3    H275341   4.707   4.755  13.679  0.5188 -1.3787  1.0021
17976TIP3   OH275342   4.527   3.450  12.705 -0.2274  0.2427  0.3061
17976TIP3    H175343   4.605   3.503  12.722  0.4140 -0.8126  0.7570
17976TIP3    H275344   4.551   3.393  12.633 -0.1844 -0.8542  1.1610
17977TIP3   OH275345   6.519   4.019  12.526 -0.4949 -0.1260 -0.3493
17977TIP3    H175346   6.451   4.040  12.463 -1.2322 -0.1572  0.4186
17977TIP3    H275347   6.512   4.086  12.593  0.2974 -0.0794 -0.2961
17978TIP3   OH275348   2.296   2.213  16.383 -0.0046 -0.2072  0.5183
17978TIP3    H175349   2.212   2.185  16.347  0.8728 -1.9852 -0.2799
17978TIP3    H275350   2.310   2.301  16.348 -1.1249 -0.2407 -0.0466
17979TIP3   OH275351   2.954   6.545  16.768 -0.3744  0.1184  0.1057
17979TIP3    H175352   2.916   6.527  16.682 -0.9585  2.4562 -0.2112
17979TIP3    H275353   3.046   6.566  16.749 -0.3488  0.0354  0.1376
17980TIP3   OH275354   6.571   5.646  12.679  0.4850  0.2257  0.4518
17980TIP3    H175355   6.628   5.569  12.682  1.2474  0.6699 -1.4327
17980TIP3    H275356   6.500   5.625  12.740  0.7807 -1.8847  0.1682
17981TIP3   OH275357   5.653   3.417   0.092  0.4630 -0.2226 -0.4856
17981TIP3    H175358   5.744   3.411   0.062 -0.3599 -0.4152 -3.2117
17981TIP3    H275359   5.601   3.389   0.017 -1.9111  0.6164  0.7378
17982TIP3   OH275360   2.240   4.952  13.786  0.0530  0.4306  1.0512
17982TIP3    H175361   2.148   4.953  13.759  0.2556  1.0779  0.3568
17982TIP3    H275362   2.242   4.894  13.862 -0.6903 -0.6895  0.2490
17983TIP3   OH275363   6.280   0.957  14.803 -0.1430  0.0838 -0.1638
17983TIP3    H175364   6.308   0.891  14.739  0.3398 -0.5508  0.6876
17983TIP3    H275365   6.288   1.040  14.757 -3.1095 -0.5519 -2.1475
17984TIP3   OH275366   0.257   6.065  17.084  0.2970  0.3490  0.2811
17984TIP3    H175367   0.296   6.003  17.023 -0.2119  1.7913 -1.6024
17984TIP3    H275368   0.246   6.015  17.165 -3.0101 -3.0521 -1.9472
17985TIP3   OH275369   0.651   0.920   4.672  0.0011  0.1818  0.2003
17985TIP3    H175370   0.673   1.013   4.674  0.6352  0.0149  1.3907
17985TIP3    H275371   0.701   0.885   4.598 -0.3209  0.7950 -0.3188
17986TIP3   OH275372   0.287   2.584   3.106  0.3494  0.1146  0.4151
17986TIP3    H175373   0.360   2.642   3.082  0.5727 -0.9416 -1.6941
17986TIP3    H275374   0.320   2.535   3.181  1.5788  0.1386 -0.0807
17987TIP3   OH275375   2.182   3.686  16.872  0.1379  0.0495 -0.6147
17987TIP3    H175376   2.090   3.663  16.870 -0.1367  0.9950  0.2337
17987TIP3    H275377   2.227   3.612  16.832 -1.0067 -0.3015 -1.2923
17988TIP3   OH275378   4.226   5.074  12.918  0.4125 -0.1030 -0.5128
17988TIP3    H175379   4.242   5.130  12.841  1.2100  0.9929  0.4126
17988TIP3    H275380   4.301   5.015  12.921  1.2213  0.9412  0.3305
17989TIP3   OH275381   3.726   0.706  11.802  0.1259 -0.2535  0.2061
17989TIP3    H175382   3.707   0.630  11.855  1.7307 -0.2986  0.7871
17989TIP3    H275383   3.765   0.769  11.863 -0.5888  0.7881 -0.3843
17990TIP3   OH275384   3.197   1.023   5.385 -0.1164  0.8284  1.1792
17990TIP3    H175385   3.218   1.078   5.310  0.8902  2.4771  2.6155
17990TIP3    H275386   3.256   1.051   5.454  0.4553 -2.0611  2.0299
17991TIP3   OH275387   6.083   0.052  14.792  0.5723  0.1160 -0.5912
17991TIP3    H175388   6.056   0.131  14.744  0.7393  0.6429  0.1602
17991TIP3    H275389   6.169   0.074  14.827  0.1218  0.0435  0.6099
17992TIP3   OH275390   2.926   6.210  17.167  0.1080 -0.2563 -0.2145
17992TIP3    H175391   2.846   6.188  17.118  0.2301 -4.0968  0.9561
17992TIP3    H275392   2.997   6.185  17.108  0.3100 -1.4781  0.5200
17993TIP3   OH275393   1.202   3.092   1.276 -0.0069  0.2966 -0.1170
17993TIP3    H175394   1.169   3.170   1.320  0.4559  0.6612 -0.4164
17993TIP3    H275395   1.165   3.019   1.326 -0.6453  0.6998  0.0102
17994TIP3   OH275396   2.733   2.756  16.463 -0.4435 -0.6543  0.3330
17994TIP3    H175397   2.797   2.762  16.392  1.8909  1.6913  2.4234
17994TIP3    H275398   2.780   2.712  16.533 -0.9990  1.2127  1.9627
17995TIP3   OH275399   3.954   2.527  16.148  0.3263 -0.2267 -0.1423
17995TIP3    H175400   3.958   2.583  16.226  1.3883 -0.0849 -0.2890
17995TIP3    H275401   3.919   2.583  16.079 -0.9319 -0.4406  0.2862
17996TIP3   OH275402   3.680   6.673  15.950 -0.0307 -0.8037 -0.2147
17996TIP3    H175403   3.740   6.654  15.877  0.1456 -2.3037  0.2869
17996TIP3    H275404   3.688   6.768  15.963  1.0220 -0.7279 -1.2065
17997TIP3   OH275405   5.981   4.132   5.911  0.2073 -0.8065  0.3021
17997TIP3    H175406   6.001   4.178   5.992 -1.1903 -1.7013  1.1993
17997TIP3    H275407   6.012   4.190   5.842  1.7061 -0.1686  1.4626
17998TIP3   OH275408   3.492   4.503  12.036 -0.0095 -0.6303  0.2568
17998TIP3    H175409   3.405   4.474  12.010 -0.3956  0.8061 -0.1679
17998TIP3    H275410   3.492   4.597  12.018  1.4668 -0.5169  0.7087
17999TIP3   OH275411   3.717   0.751   2.652  0.1138  0.7196  0.1921
17999TIP3    H175412   3.629   0.717   2.668  0.3276  0.4618  0.8462
17999TIP3    H275413   3.765   0.677   2.615 -0.0806  1.0098 -0.6693
18000TIP3   OH275414   5.106   6.472   5.837  0.2401 -0.5107 -0.0272
18000TIP3    H175415   5.199   6.456   5.822  0.0737 -2.3491  0.7025
18000TIP3    H275416   5.097   6.474   5.932 -0.3122  0.8349 -0.0813
18001TIP3   OH275417   4.185   3.169   0.142  0.0897  0.0098  0.0486
18001TIP3    H175418   4.216   3.260   0.148 -1.6481  0.5270  2.7680
18001TIP3    H275419   4.136   3.167   0.060  0.6619  1.3550 -0.3669
18002TIP3   OH275420   5.849   3.771   5.408  0.3199  0.3746  0.0191
18002TIP3    H175421   5.837   3.833   5.336  1.9329 -0.2009 -0.7848
18002TIP3    H275422   5.923   3.806   5.458  0.8993 -0.6045 -0.1387
18003TIP3   OH275423   3.614   5.011  10.708 -0.6422 -0.0703  0.0758
18003TIP3    H175424   3.603   5.102  10.732  0.7150  0.8909 -2.5356
18003TIP3    H275425   3.708   4.995  10.716 -1.0719 -1.9832  2.6069
18004TIP3   OH275426   3.927   2.892  12.767  0.1076  0.1994  0.0907
18004TIP3    H175427   3.993   2.864  12.829 -1.4400  0.2902  1.8522
18004TIP3    H275428   3.897   2.811  12.725  0.8821  0.0941 -0.2725
18005TIP3   OH275429   3.938   6.200  12.817 -0.1646 -0.3765 -0.4667
18005TIP3    H175430   3.897   6.118  12.789 -2.2007 -0.7042  2.9845
18005TIP3    H275431   4.030   6.175  12.833 -0.1178 -1.2870 -1.9220
18006TIP3   OH275432   1.807   5.859   0.511  0.2111 -0.0132 -0.2500
18006TIP3    H175433   1.720   5.883   0.543 -0.2272 -1.6574 -0.1107
18006TIP3    H275434   1.832   5.782   0.562  0.5916 -1.1592 -2.0560
18007TIP3   OH275435   4.868   2.886  15.448 -0.6162  0.1482 -0.2932
18007TIP3    H175436   4.916   2.963  15.418  0.8859 -0.3994  0.6030
18007TIP3    H275437   4.842   2.841  15.368 -1.4338  1.5089 -0.8281
18008TIP3   OH275438   3.833   1.893  13.608  0.2350 -0.4492 -0.2788
18008TIP3    H175439   3.917   1.939  13.616  0.8995 -1.9576  2.8426
18008TIP3    H275440   3.768   1.959  13.631  0.7669  0.1249 -0.3720
18009TIP3   OH275441   0.996   5.301   3.140 -0.3513 -0.2517 -0.0741
18009TIP3    H175442   1.041   5.245   3.203  1.2453  1.1327  0.1002
18009TIP3    H275443   1.024   5.268   3.055  0.1288 -0.0862  0.0159
18010TIP3   OH275444   4.628   4.924   3.966 -0.2020 -0.2213 -0.0991
18010TIP3    H175445   4.607   4.991   4.031  2.9747  0.9917 -0.0990
18010TIP3    H275446   4.567   4.853   3.983 -2.6647  1.9760  0.9753
18011TIP3   OH275447   6.026   2.098   3.843  0.2443 -0.3992 -0.0109
18011TIP3    H175448   6.100   2.037   3.840 -0.1597 -0.8818 -0.6096
18011TIP3    H275449   5.981   2.077   3.925 -0.8345 -2.0901 -0.9703
18012TIP3   OH275450   5.481   3.618  10.733  0.5702 -0.6468  0.2787
18012TIP3    H175451   5.513   3.588  10.818  0.4844 -1.8887 -0.1211
18012TIP3    H275452   5.387   3.607  10.737  0.6106 -1.1798 -0.1570
18013TIP3   OH275453   0.583   3.373   4.591  0.3958 -0.8889 -0.0129
18013TIP3    H175454   0.651   3.436   4.615  0.3326 -0.6373 -0.4939
18013TIP3    H275455   0.501   3.422   4.596  0.1260 -1.4246  1.4694
18014TIP3   OH275456   6.293   6.495  15.278 -0.0335  0.0253 -0.2415
18014TIP3    H175457   6.236   6.568  15.302  0.2474  0.4140 -0.7376
18014TIP3    H275458   6.365   6.498  15.341  0.5886  0.9056 -0.9761
18015TIP3   OH275459   1.023   3.947   0.039  0.2305 -0.1626 -0.1625
18015TIP3    H175460   1.063   3.927   0.124 -2.1901 -0.4208  1.0088
18015TIP3    H275461   0.930   3.929   0.052 -0.3397  0.6542 -2.6356
18016TIP3   OH275462   5.120   3.787  12.377  0.3814 -0.4267 -0.1843
18016TIP3    H175463   5.060   3.857  12.399 -0.3994 -1.2059  0.2327
18016TIP3    H275464   5.206   3.819  12.405  0.1911  0.7420 -0.8997
18017TIP3   OH275465   1.862   0.545  17.020 -0.5208 -0.1355 -0.1906
18017TIP3    H175466   1.888   0.550  16.928 -1.6960 -0.9841 -0.5952
18017TIP3    H275467   1.768   0.566  17.020 -0.3097  0.9309  0.9579
18018TIP3   OH275468   3.719   3.994   1.742  0.6503 -0.6757  0.2589
18018TIP3    H175469   3.681   3.937   1.676  0.0759 -0.0272  0.0232
18018TIP3    H275470   3.766   3.935   1.800  2.1551 -1.1557 -1.3694
18019TIP3   OH275471   6.261   3.017   4.732 -0.5715  0.5481 -0.2930
18019TIP3    H175472   6.179   3.045   4.691 -0.9176 -0.9168 -0.6534
18019TIP3    H275473   6.307   2.971   4.663 -0.6678 -1.0126  0.6483
18020TIP3   OH275474   5.834   0.856   2.260  0.3654 -0.1444 -0.4892
18020TIP3    H175475   5.904   0.800   2.228  1.0100 -1.1881  2.4287
18020TIP3    H275476   5.874   0.906   2.331 -1.1484  1.3652 -0.6314
18021TIP3   OH275477   3.850   2.880  11.434  0.1016  0.3671  0.0027
18021TIP3    H175478   3.927   2.823  11.432  0.5633  0.9098  1.4488
18021TIP3    H275479   3.784   2.830  11.483  0.3326  0.8395  0.8164
18022TIP3   OH275480   3.916   4.322   5.521  0.0571 -0.8117 -0.6683
18022TIP3    H175481   3.892   4.352   5.433 -1.0541 -1.2892 -0.5506
18022TIP3    H275482   3.915   4.401   5.575  1.9103 -0.3132 -1.2891
18023TIP3   OH275483   5.396   6.552  16.291 -0.1188 -0.0852  0.5257
18023TIP3    H175484   5.486   6.524  16.307 -0.0408  1.0797  2.3154
18023TIP3    H275485   5.361   6.573  16.377 -2.0397 -0.2422 -0.1629
18024TIP3   OH275486   4.703   4.651   5.000 -0.0426 -0.1764  0.3495
18024TIP3    H175487   4.651   4.601   5.063  1.4431 -0.8961  1.0581
18024TIP3    H275488   4.693   4.604   4.917  0.1112 -0.7803  0.6691
18025TIP3   OH275489   1.922   6.495  13.498  0.5968 -0.1634  0.5916
18025TIP3    H175490   1.955   6.414  13.538  1.9250 -0.7445 -1.5384
18025TIP3    H275491   1.964   6.498  13.412 -0.2035  2.3038  0.2227
18026TIP3   OH275492   0.730   3.805   5.449 -0.7687 -0.3979  0.7156
18026TIP3    H175493   0.749   3.721   5.491 -2.5629 -0.4347  1.5473
18026TIP3    H275494   0.767   3.796   5.361  2.8022 -0.4443  2.0665
18027TIP3   OH275495   2.065   6.170  12.518  0.4394  0.1641  0.5419
18027TIP3    H175496   2.093   6.225  12.445  2.8148 -1.7495 -0.1193
18027TIP3    H275497   2.147   6.138  12.556 -0.8082 -0.7792  2.5701
18028TIP3   OH275498   4.777   3.534  16.605  0.2018  0.2321 -0.0055
18028TIP3    H175499   4.735   3.493  16.680 -1.0157  0.2681 -0.6502
18028TIP3    H275500   4.868   3.502  16.608  0.2994  0.5898  1.7220
18029TIP3   OH275501   3.516   5.393   2.293  0.3140  0.2196  0.1005
18029TIP3    H175502   3.424   5.368   2.303  0.4633 -0.0599  0.8290
18029TIP3    H275503   3.519   5.437   2.208 -0.0762 -1.6832 -0.9529
18030TIP3   OH275504   0.852   3.845   4.639  0.7375 -0.5309  0.1837
18030TIP3    H175505   0.850   3.892   4.556 -1.1417 -2.1997 -0.7999
18030TIP3    H275506   0.763   3.812   4.651  1.0405 -0.6337  2.7134
18031TIP3   OH275507   5.967   4.766  14.573 -0.8178  0.1625  0.2975
18031TIP3    H175508   5.911   4.719  14.634  0.3403 -2.6765 -0.6475
18031TIP3    H275509   6.053   4.768  14.615 -0.0457 -1.6828 -1.0328
18032TIP3   OH275510   2.479   6.617  14.555 -0.0684  0.0770 -0.0462
18032TIP3    H175511   2.534   6.598  14.631 -1.0370  2.2273  1.2928
18032TIP3    H275512   2.536   6.665  14.495  0.2587 -0.1620  0.0692
18033TIP3   OH275513   1.155   2.216   4.132  0.4319  0.1012 -0.0759
18033TIP3    H175514   1.178   2.194   4.222  0.1957 -1.0733 -0.2873
18033TIP3    H275515   1.194   2.302   4.118  1.1883 -0.0662  0.8820
18034TIP3   OH275516   5.387   6.326  13.133 -0.1837  0.0747 -0.1551
18034TIP3    H175517   5.434   6.289  13.059  0.2383 -0.6245  0.4504
18034TIP3    H275518   5.308   6.273  13.141 -0.5435  0.5477 -0.4838
18035TIP3   OH275519   0.298   5.549  15.459 -0.0083 -0.8493 -0.0080
18035TIP3    H175520   0.308   5.552  15.364 -0.8828 -1.2061 -0.1150
18035TIP3    H275521   0.248   5.470  15.476  1.5870 -1.7150  0.8966
18036TIP3   OH275522   2.075   6.619   0.628  0.2117 -0.2960 -0.3919
18036TIP3    H175523   2.144   6.683   0.609  0.4946 -0.2142  0.8372
18036TIP3    H275524   2.029   6.655   0.704 -1.4142 -0.1887 -1.3912
18037TIP3   OH275525   3.541   1.669  14.112 -0.0540  0.3536  0.1517
18037TIP3    H175526   3.466   1.720  14.142 -1.6134  0.0808 -2.9157
18037TIP3    H275527   3.599   1.733  14.071  0.5437  0.3100  0.9015
18038TIP3   OH275528   4.654   5.427   5.329 -0.2743 -0.1457 -0.2721
18038TIP3    H175529   4.663   5.332   5.320 -0.4810 -0.1459 -0.4529
18038TIP3    H275530   4.655   5.442   5.424  0.3783 -0.2703 -0.2523
18039TIP3   OH275531   4.755   1.179   1.494  0.1536  0.8170 -0.0852
18039TIP3    H175532   4.839   1.197   1.536  0.2216  2.1479 -0.7480
18039TIP3    H275533   4.743   1.085   1.504  1.6049  0.6431  0.2277
18040TIP3   OH275534   3.955   3.615   3.494  0.7265  0.6295  0.3992
18040TIP3    H175535   3.983   3.618   3.585  0.2743  1.1090  0.5241
18040TIP3    H275536   3.953   3.707   3.466 -1.7342  0.7411  0.7138
18041TIP3   OH275537   4.314   1.922   3.839  0.2271  0.2365  0.5917
18041TIP3    H175538   4.324   1.928   3.934  1.1521  1.1556  0.4524
18041TIP3    H275539   4.242   1.860   3.826  0.1201  0.0705  1.8856
18042TIP3   OH275540   4.216   5.694  12.480  0.3292  0.6226  0.4453
18042TIP3    H175541   4.158   5.739  12.419  0.2219 -0.9921 -0.7051
18042TIP3    H275542   4.304   5.718  12.451  0.2979 -0.5621 -0.7677
18043TIP3   OH275543   6.354   1.604  11.052 -0.2390 -0.3430 -0.2849
18043TIP3    H175544   6.376   1.645  11.135  0.2990 -1.1428 -0.0308
18043TIP3    H275545   6.261   1.584  11.060 -0.3423  0.1747 -0.1365
18044TIP3   OH275546   4.410   2.869  11.088 -0.3135  0.5212  0.2564
18044TIP3    H175547   4.394   2.916  11.170 -0.2194  1.7648 -0.4167
18044TIP3    H275548   4.412   2.937  11.021  0.3990 -0.3870 -0.6835
18045TIP3   OH275549   6.733   5.577   6.117 -0.0926  0.8040  0.2688
18045TIP3    H175550   6.716   5.516   6.046  2.8385  0.5865 -0.3887
18045TIP3    H275551   6.677   5.548   6.189 -0.0832 -1.5606 -0.6135
18046TIP3   OH275552   2.577   3.647  17.136  0.7162  0.3043  0.5646
18046TIP3    H175553   2.574   3.587  17.061  0.5584  1.1976 -0.1683
18046TIP3    H275554   2.540   3.728  17.102 -0.6060  0.3415  1.9885
18047TIP3   OH275555   4.311   5.970   3.660 -0.2362  0.4434  0.5661
18047TIP3    H175556   4.374   6.033   3.696  0.4961  0.2710 -0.3488
18047TIP3    H275557   4.255   5.947   3.734 -0.1246  1.6856  1.0685
18048TIP3   OH275558   1.959   0.706  13.399 -0.3446 -0.2009  0.6053
18048TIP3    H175559   1.968   0.789  13.446  2.3794  1.0307 -1.8205
18048TIP3    H275560   2.043   0.661  13.411 -0.7908 -1.3566 -0.3279
18049TIP3   OH275561   2.174   4.732  16.701  0.1175 -0.0125 -0.3405
18049TIP3    H175562   2.179   4.735  16.797 -0.6595 -0.7664 -0.2646
18049TIP3    H275563   2.177   4.638  16.680 -0.3545  0.1151 -1.0097
18050TIP3   OH275564   4.768   2.092  16.201  0.1375  0.3874 -0.4825
18050TIP3    H175565   4.769   1.996  16.205 -0.6133  0.4012  0.4893
18050TIP3    H275566   4.767   2.112  16.107 -1.5466 -0.6079 -0.7185
18051TIP3   OH275567   2.260   5.257   2.717  0.1683 -0.0455  1.0286
18051TIP3    H175568   2.334   5.210   2.677  0.8918  1.6542  0.2759
18051TIP3    H275569   2.216   5.298   2.643 -1.3582 -0.7375  1.5184
18052TIP3   OH275570   4.054   2.035   0.475 -0.0171  0.4613  0.3742
18052TIP3    H175571   4.068   2.129   0.483  0.2865  0.4483  0.0386
18052TIP3    H275572   4.104   1.996   0.546 -0.5520  0.5831  0.8194
18053TIP3   OH275573   5.523   3.402  11.370 -0.2519  0.3544 -0.2019
18053TIP3    H175574   5.442   3.352  11.361 -0.5233  0.9892 -1.5926
18053TIP3    H275575   5.566   3.394  11.285  2.5078 -2.1419  1.2401
18054TIP3   OH275576   6.377   3.563   2.379 -0.0731  0.6042  0.3555
18054TIP3    H175577   6.461   3.598   2.350  0.6720  0.4009  2.1643
18054TIP3    H275578   6.396   3.520   2.462 -1.4615 -1.8244 -0.5015
18055TIP3   OH275579   5.970   1.550   3.364  0.4226  0.2143  0.4894
18055TIP3    H175580   6.045   1.554   3.424  0.5709  0.1241  0.3153
18055TIP3    H275581   5.978   1.629   3.311  1.9141 -1.0315 -1.2829
18056TIP3   OH275582   1.077   0.214   1.914 -0.2797 -0.0611 -0.3125
18056TIP3    H175583   1.115   0.290   1.958  0.0894 -1.2233  1.4840
18056TIP3    H275584   1.136   0.196   1.841  1.2004 -0.2660  0.8881
18057TIP3   OH275585   5.345   2.502  16.614  0.0392 -0.7064 -0.5513
18057TIP3    H175586   5.430   2.480  16.650  0.3198  0.5479 -0.3893
18057TIP3    H275587   5.329   2.435  16.548  2.2681  0.3507 -2.3065
18058TIP3   OH275588   4.531   3.420   1.598 -0.3617 -0.8942 -0.2841
18058TIP3    H175589   4.492   3.464   1.674  1.3483 -0.4988  0.4109
18058TIP3    H275590   4.536   3.489   1.531  2.0242  0.0051  0.7009
18059TIP3   OH275591   5.949   2.931  16.220  0.0977  0.2874 -0.4117
18059TIP3    H175592   6.010   2.876  16.172 -0.0959  0.9272 -1.4025
18059TIP3    H275593   5.872   2.937  16.164 -1.4983 -1.6517  1.3917
18060TIP3   OH275594   0.108   4.463   6.558 -0.0652 -0.6079  0.0157
18060TIP3    H175595   0.155   4.514   6.624  1.2894 -1.2234 -0.4275
18060TIP3    H275596   0.129   4.372   6.578 -0.6392 -0.8707 -0.5254
18061TIP3   OH275597   3.843   1.153  11.821 -0.3055  0.0808 -0.0413
18061TIP3    H175598   3.917   1.160  11.882 -2.0189  2.8594  1.9369
18061TIP3    H275599   3.837   1.240  11.782 -2.0377 -0.3334 -0.7687
18062TIP3   OH275600   6.551   5.039  13.401  0.0276  0.0406  0.4355
18062TIP3    H175601   6.527   5.082  13.319  1.4722 -0.3524 -0.2389
18062TIP3    H275602   6.470   5.034  13.451 -0.4771  2.1848 -0.0882
18063TIP3   OH275603   1.692   4.967   3.836 -0.0661  0.5050  0.3184
18063TIP3    H175604   1.694   4.992   3.744 -0.8611  0.5728  0.3105
18063TIP3    H275605   1.666   4.875   3.835 -1.0646  0.7708  0.5034
18064TIP3   OH275606   2.022   2.766   4.411  0.0939 -0.1334 -0.4507
18064TIP3    H175607   2.020   2.781   4.317  0.6658 -1.5250 -0.7168
18064TIP3    H275608   1.981   2.680   4.422 -0.4129  0.2248  0.6332
18065TIP3   OH275609   3.457   0.708   1.191  0.0822 -0.2615  0.7071
18065TIP3    H175610   3.549   0.725   1.168 -0.0214 -1.2553 -0.5168
18065TIP3    H275611   3.409   0.777   1.144 -0.0849 -1.9913 -1.8835
18066TIP3   OH275612   3.498   5.139  12.949 -0.1883 -0.0571  0.0615
18066TIP3    H175613   3.541   5.221  12.921 -1.0211 -0.1527 -1.6206
18066TIP3    H275614   3.406   5.163  12.959 -0.3650 -0.6970 -0.0297
18067TIP3   OH275615   1.981   2.680   3.455 -0.1197 -0.3223  0.5349
18067TIP3    H175616   2.074   2.656   3.451 -0.3322 -1.0779 -2.2079
18067TIP3    H275617   1.973   2.736   3.532  2.4625 -0.8030  1.2311
18068TIP3   OH275618   3.383   3.877   4.147 -0.4485 -0.6925 -0.0902
18068TIP3    H175619   3.416   3.944   4.087  1.2293 -1.6127 -0.2396
18068TIP3    H275620   3.365   3.925   4.228  0.8856 -0.0626 -0.1392
18069TIP3   OH275621   0.590   5.399   2.933 -0.0939 -0.5313  0.0378
18069TIP3    H175622   0.641   5.367   3.007  2.7068  2.5048 -0.3680
18069TIP3    H275623   0.535   5.469   2.969  1.0893  0.7840 -0.6241
18070TIP3   OH275624   2.975   1.973   3.486 -0.3273  0.0317 -0.0183
18070TIP3    H175625   2.993   1.940   3.573  2.4332  0.2097 -0.4400
18070TIP3    H275626   3.030   2.051   3.478 -0.5332  0.0289 -1.9013
18071TIP3   OH275627   0.805   3.355   4.202  0.8210  0.5324 -0.0435
18071TIP3    H175628   0.807   3.339   4.297 -2.1482  1.1485  0.2294
18071TIP3    H275629   0.803   3.450   4.194  0.2451  0.4775 -0.6505
18072TIP3   OH275630   6.668   2.456   0.317  0.0723 -0.2463 -0.0449
18072TIP3    H175631   6.735   2.415   0.372 -1.5871 -2.9812  0.1495
18072TIP3    H275632   6.611   2.383   0.291 -0.6902  1.3211 -3.3314
18073TIP3   OH275633   2.308   0.163  13.721  0.0465  0.6466  0.6531
18073TIP3    H175634   2.371   0.140  13.652 -1.3526 -0.0974 -0.4338
18073TIP3    H275635   2.244   0.218  13.676 -0.5110  0.7443  1.5555
18074TIP3   OH275636   3.900   5.806  15.311 -0.3608 -0.7027 -0.2477
18074TIP3    H175637   3.896   5.739  15.243  0.9840  0.0696 -1.1238
18074TIP3    H275638   3.831   5.781  15.373 -2.0138 -1.1280 -2.1500
18075TIP3   OH275639   2.145   4.110   4.502 -0.4471 -0.0448 -0.2420
18075TIP3    H175640   2.133   4.203   4.487 -1.1384 -0.2821 -1.2242
18075TIP3    H275641   2.240   4.096   4.496 -0.3093  0.6395  0.2622
18076TIP3   OH275642   3.492   3.310  11.691 -0.2557 -0.0652 -0.5825
18076TIP3    H175643   3.566   3.278  11.639 -0.5138 -0.2149 -0.8680
18076TIP3    H275644   3.523   3.391  11.731 -0.7665  1.3312 -2.8190
18077TIP3   OH275645   1.706   6.223   1.018  0.2542 -0.3612  0.3502
18077TIP3    H175646   1.621   6.211   0.977  1.0574 -0.4158 -1.3862
18077TIP3    H275647   1.724   6.317   1.009  1.6835 -0.7740 -2.1684
18078TIP3   OH275648   5.173   2.820   2.276 -0.1710 -0.1132 -0.3496
18078TIP3    H175649   5.168   2.753   2.344 -1.6013  0.4455  0.1281
18078TIP3    H275650   5.256   2.864   2.292  0.1896 -0.9501  0.1188
18079TIP3   OH275651   5.362   4.642   5.311 -0.8183  0.0372 -0.0835
18079TIP3    H175652   5.347   4.693   5.390  3.5057  0.5015  0.6917
18079TIP3    H275653   5.452   4.610   5.319 -1.0559 -2.1508 -3.6286
18080TIP3   OH275654   1.887   2.470   5.160  0.0068  0.7033 -0.2617
18080TIP3    H175655   1.942   2.491   5.085  2.3726  1.0509  1.4431
18080TIP3    H275656   1.929   2.393   5.200 -1.3595  0.3458  0.5588
18081TIP3   OH275657   2.630   3.119   1.808 -0.2594  0.4185  0.0365
18081TIP3    H175658   2.549   3.087   1.770 -0.0468 -0.5742  0.3768
18081TIP3    H275659   2.698   3.061   1.773  0.0894  0.2456  0.9450
18082TIP3   OH275660   5.097   4.126   0.782  0.1770  0.3538 -0.2797
18082TIP3    H175661   5.098   4.211   0.827  0.1536 -0.7624  1.9922
18082TIP3    H275662   5.067   4.146   0.694 -2.2246  2.4119  0.8660
18083TIP3   OH275663   3.596   5.903  16.660 -0.1300 -0.6533 -0.3614
18083TIP3    H175664   3.520   5.871  16.708 -1.3229  3.3454  0.8032
18083TIP3    H275665   3.570   5.899  16.568 -2.0150  0.9837  0.0315
18084TIP3   OH275666   4.701   2.577   3.844  0.1438  0.1420 -0.5992
18084TIP3    H175667   4.728   2.645   3.783  1.7769  1.2047  1.1811
18084TIP3    H275668   4.617   2.605   3.878  0.2662  0.6822 -0.7434
18085TIP3   OH275669   6.454   4.977   2.311 -0.3316  0.1220 -0.3724
18085TIP3    H175670   6.471   5.071   2.321  0.2302 -0.0967  1.0973
18085TIP3    H275671   6.433   4.948   2.400  2.4963 -1.6739 -0.1623
18086TIP3   OH275672   6.535   0.624   0.746 -0.0365 -0.0628  0.1743
18086TIP3    H175673   6.601   0.555   0.756  1.2580  1.1086 -0.0027
18086TIP3    H275674   6.550   0.683   0.819 -0.1258  0.8234 -0.5045
18087TIP3   OH275675   5.608   0.630  11.963  0.1069  0.0935 -1.2313
18087TIP3    H175676   5.522   0.672  11.971  1.1063  2.2152 -0.9997
18087TIP3    H275677   5.626   0.630  11.869 -0.5692 -1.3670 -1.3957
18088TIP3   OH275678   5.907   2.989  11.009  0.0511 -0.7650  0.1300
18088TIP3    H175679   5.902   3.055  10.940 -0.5664 -1.5307 -0.5898
18088TIP3    H275680   5.882   2.907  10.965 -4.2193 -0.7245  2.0200
18089TIP3   OH275681   4.165   3.855   4.050 -0.2421  0.3437  0.6938
18089TIP3    H175682   4.139   3.870   3.959  0.1256 -1.0414  0.3330
18089TIP3    H275683   4.098   3.900   4.101  0.1531  2.0858 -0.2444
18090TIP3   OH275684   3.221   0.670  16.271  0.7053 -0.1756  0.1007
18090TIP3    H175685   3.172   0.682  16.190  0.8269 -0.9301 -0.0916
18090TIP3    H275686   3.162   0.622  16.329  0.1966  1.3385  0.8843
18091TIP3   OH275687   3.961   5.849   2.598  0.3563  0.0727 -0.0854
18091TIP3    H175688   3.979   5.756   2.611 -2.0045 -0.5364 -0.6365
18091TIP3    H275689   3.920   5.853   2.512 -0.1979  1.5169  0.2193
18092TIP3   OH275690   5.856   1.988   3.278 -0.6587  0.5791  0.2536
18092TIP3    H175691   5.830   2.035   3.199 -0.1185 -0.1040 -0.3457
18092TIP3    H275692   5.879   1.900   3.247  2.0417  1.0137  0.7532
18093TIP3   OH275693   0.485   2.899   2.731 -0.6067  0.4863 -0.2674
18093TIP3    H175694   0.559   2.901   2.670  0.8901  0.3396  1.4446
18093TIP3    H275695   0.422   2.840   2.690 -0.1423  1.2205 -2.1435
18094TIP3   OH275696   2.614   2.078  10.439  0.3135 -0.0596  0.2824
18094TIP3    H175697   2.662   2.012  10.489  0.1932  1.0241  1.9020
18094TIP3    H275698   2.675   2.151  10.430 -0.3827  0.5837  0.6913
18095TIP3   OH275699   4.937   6.484   5.024 -1.2394  0.1273  0.3120
18095TIP3    H175700   4.887   6.431   4.962  0.2746  1.2443 -2.0045
18095TIP3    H275701   5.027   6.457   5.011 -0.8271  0.7406  1.7243
18096TIP3   OH275702   3.307   3.929   5.312  0.4313  0.5281 -0.1135
18096TIP3    H175703   3.232   3.900   5.364  1.4258 -1.4781  0.2920
18096TIP3    H275704   3.384   3.906   5.366  1.4519 -0.6246 -1.9585
18097TIP3   OH275705   1.007   4.549   2.429 -0.0491  0.3061  0.3118
18097TIP3    H175706   1.055   4.475   2.393 -0.1266  0.4453 -0.0819
18097TIP3    H275707   1.037   4.624   2.378 -0.4669  0.4419  0.2623
18098TIP3   OH275708   1.540   1.369   5.930  0.5887  0.2561 -0.2691
18098TIP3    H175709   1.485   1.432   5.884  0.7679  0.3905 -0.3020
18098TIP3    H275710   1.602   1.423   5.979 -0.2547  0.1572  0.9651
18099TIP3   OH275711   3.241   2.395   3.347  0.3070  0.1735  0.6032
18099TIP3    H175712   3.315   2.455   3.358  0.0091  0.2321  2.7473
18099TIP3    H275713   3.164   2.451   3.344  0.2179  0.0251  0.0844
18100TIP3   OH275714   2.802   4.176   3.728 -0.2536  0.1704  0.0291
18100TIP3    H175715   2.833   4.093   3.764 -0.8859 -0.4950 -0.9164
18100TIP3    H275716   2.870   4.202   3.666  0.7159  1.1928  1.4526
18101TIP3   OH275717   5.762   5.801   0.335  0.2191 -0.3078  0.4681
18101TIP3    H175718   5.846   5.782   0.377 -0.4815 -1.5519  1.3809
18101TIP3    H275719   5.759   5.741   0.261  0.7336  0.7369 -0.4259
18102TIP3   OH275720   0.310   3.735   2.167  0.3197 -0.5372  0.0270
18102TIP3    H175721   0.307   3.702   2.077  2.2478  2.6134 -1.3546
18102TIP3    H275722   0.396   3.709   2.199  0.1311 -0.5745  0.5116
18103TIP3   OH275723   0.240   0.226   1.333  0.1605 -0.4076  0.5003
18103TIP3    H175724   0.246   0.261   1.421  0.7605  0.9710 -0.0623
18103TIP3    H275725   0.187   0.147   1.342  1.5961 -1.2313  2.3451
18104TIP3   OH275726   2.650   1.951  14.341 -0.4768 -0.4854 -0.0629
18104TIP3    H175727   2.609   1.877  14.385  2.0513 -3.1041 -1.7655
18104TIP3    H275728   2.616   1.950  14.252  0.2315 -0.1924 -0.3502
18105TIP3   OH275729   0.087   3.667   0.050  0.5108 -0.1992  0.1050
18105TIP3    H175730   0.010   3.679   0.105 -0.6195 -0.8317 -1.2946
18105TIP3    H275731   0.131   3.752   0.052  0.5614 -0.2293  2.0300
18106TIP3   OH275732   1.980   6.249  10.407 -0.3648  0.9644  0.8141
18106TIP3    H175733   1.976   6.336  10.368 -2.3525  1.1430  1.2687
18106TIP3    H275734   1.917   6.252  10.479  0.3938 -0.5053  1.5881
18107TIP3   OH275735   0.092   6.058  10.182 -0.1129  0.0708 -0.5550
18107TIP3    H175736   0.133   6.122  10.240  0.0747 -1.7251  1.4290
18107TIP3    H275737  -0.000   6.060  10.206  0.2242 -1.9325  1.2246
18108TIP3   OH275738   4.839   1.329   0.728  0.2395  0.1474 -1.1934
18108TIP3    H175739   4.928   1.315   0.696  0.8710 -1.2525  0.9349
18108TIP3    H275740   4.848   1.395   0.796  0.2387 -2.0548  1.0750
18109TIP3   OH275741   5.089   6.311  12.375  0.4387  0.1835 -0.2135
18109TIP3    H175742   5.071   6.293  12.468 -1.7872  0.8601 -0.4368
18109TIP3    H275743   5.067   6.229  12.330  2.9459 -0.6433 -0.0742
18110TIP3   OH275744   6.504   1.340  15.355  0.1930 -0.5603 -0.0583
18110TIP3    H175745   6.527   1.405  15.422  0.7761 -2.3856  1.6266
18110TIP3    H275746   6.497   1.390  15.274 -0.5749  1.7757  1.3536
18111TIP3   OH275747   5.793   5.630   4.193  0.0219 -1.0958  0.0020
18111TIP3    H175748   5.877   5.620   4.150  0.1391  1.4870 -0.5339
18111TIP3    H275749   5.739   5.679   4.130 -1.1565 -0.8422  1.1618
18112TIP3   OH275750   0.210   6.580   1.688 -0.0213  0.0779  0.0408
18112TIP3    H175751   0.248   6.518   1.626  0.8664  0.6972 -0.0486
18112TIP3    H275752   0.147   6.528   1.738  0.1011 -0.6942 -0.5879
18113TIP3   OH275753   4.735   6.047   3.862  0.8122  0.0696  0.4944
18113TIP3    H175754   4.728   6.142   3.872  1.2518  0.0423  1.0915
18113TIP3    H275755   4.710   6.031   3.771 -3.0780  0.3864  1.3046
18114TIP3   OH275756   3.101   5.372  16.705  0.5953  0.5803  0.2480
18114TIP3    H175757   3.113   5.313  16.780 -1.0889  3.0618  2.6833
18114TIP3    H275758   3.008   5.368  16.686  0.5166  2.1112  0.2114
18115TIP3   OH275759   4.477   3.257   4.468  0.1692 -0.0882 -0.0642
18115TIP3    H175760   4.423   3.303   4.532 -0.5812  0.1440 -0.8426
18115TIP3    H275761   4.492   3.321   4.399  1.2384 -0.2327  0.0110
18116TIP3   OH275762   6.161   6.664  12.605  0.5786  0.1221  0.3732
18116TIP3    H175763   6.180   6.585  12.655  0.2349  0.4770  1.0911
18116TIP3    H275764   6.240   6.717  12.613  1.1981 -0.5452 -0.9464
18117TIP3   OH275765   6.447   1.845  14.639  0.2570 -0.0587  0.3581
18117TIP3    H175766   6.382   1.804  14.696 -0.0519 -0.1464 -0.0626
18117TIP3    H275767   6.514   1.878  14.700  2.4157 -4.2708  0.6647
18118TIP3   OH275768   4.147   2.472  13.903 -0.9137 -0.2567 -0.2790
18118TIP3    H175769   4.104   2.524  13.971  1.8966  1.3895  0.3921
18118TIP3    H275770   4.146   2.528  13.825  0.3829  0.0391 -0.1063
18119TIP3   OH275771   0.058   4.850  13.966 -0.4705  0.6646 -0.1786
18119TIP3    H175772  -0.035   4.829  13.958 -0.4308  0.0220  0.8181
18119TIP3    H275773   0.074   4.918  13.900 -1.2871 -0.3130 -1.4163
18120TIP3   OH275774   4.720   4.234  13.826 -0.4338 -0.2370  0.0646
18120TIP3    H175775   4.792   4.293  13.807 -1.1932  0.7681  0.2358
18120TIP3    H275776   4.762   4.150  13.844  0.6013 -0.0257 -1.2080
18121TIP3   OH275777   1.310   5.530   4.758 -0.5979  0.2872 -0.2103
18121TIP3    H175778   1.399   5.503   4.778 -1.0081 -0.8635  0.1371
18121TIP3    H275779   1.265   5.528   4.842 -0.9112  1.0676 -0.3462
18122TIP3   OH275780   1.441   1.188  11.682 -0.2946 -0.4505  0.0098
18122TIP3    H175781   1.482   1.119  11.630 -1.1419 -2.9148  2.3269
18122TIP3    H275782   1.357   1.204  11.639  0.1759 -0.3832 -0.9099
18123TIP3   OH275783   3.111   2.856  14.149  0.3741 -0.3231  0.5915
18123TIP3    H175784   3.173   2.919  14.112  1.9411 -0.7933  2.2809
18123TIP3    H275785   3.066   2.818  14.073  1.2196  0.9796 -0.5905
18124TIP3   OH275786   6.369   5.422   5.247  0.5178 -0.9367  0.5272
18124TIP3    H175787   6.428   5.370   5.193 -0.3511 -1.4015  0.0006
18124TIP3    H275788   6.304   5.456   5.186 -0.4897 -1.4845  1.2635
18125TIP3   OH275789   4.604   5.644  15.968  0.0569 -0.5590  0.4916
18125TIP3    H175790   4.588   5.606  16.055 -1.0529 -0.4349  0.3527
18125TIP3    H275791   4.663   5.717  15.985 -1.9057  0.8833  1.4945
18126TIP3   OH275792   2.410   4.513  14.135  0.5528 -0.1785 -0.1948
18126TIP3    H175793   2.398   4.423  14.108 -3.2830  0.2927 -0.5053
18126TIP3    H275794   2.386   4.566  14.059 -2.2228  1.0601  1.3968
18127TIP3   OH275795   2.535   5.594  16.038 -0.0739  0.0964 -0.3759
18127TIP3    H175796   2.447   5.632  16.031  0.1309  0.5290 -0.6384
18127TIP3    H275797   2.521   5.499  16.031 -0.2626  0.2497 -3.2091
18128TIP3   OH275798   4.438   5.386  10.842  0.0831 -0.1442 -0.2000
18128TIP3    H175799   4.462   5.461  10.897  0.6370  0.0812 -0.7326
18128TIP3    H275800   4.510   5.324  10.853 -2.1005 -2.3927  3.2982
18129TIP3   OH275801   3.517   6.125  14.584 -0.9630 -0.0666 -0.2053
18129TIP3    H175802   3.432   6.103  14.547 -1.4327 -0.6288  1.1568
18129TIP3    H275803   3.516   6.087  14.672  1.0738 -0.9351 -0.5066
18130TIP3   OH275804   2.068   2.536  15.753 -0.2104 -0.1683 -0.3227
18130TIP3    H175805   1.996   2.473  15.751  2.0073 -2.8829 -1.0840
18130TIP3    H275806   2.086   2.550  15.846 -1.3167  0.1139 -0.1393
18131TIP3   OH275807   6.479   4.926  16.042  0.1546 -0.2012 -0.3895
18131TIP3    H175808   6.418   4.854  16.059  0.6679 -0.6240 -0.2885
18131TIP3    H275809   6.437   5.003  16.080  0.1715 -0.6853  0.6576
18132TIP3   OH275810   3.617   6.270  16.818  0.2937  0.5698 -0.0859
18132TIP3    H175811   3.567   6.255  16.738 -1.9087  0.9851  1.1305
18132TIP3    H275812   3.655   6.185  16.839 -0.4621  0.0630 -0.7087
18133TIP3   OH275813   6.615   5.142   2.531 -0.2762 -0.0367  0.9113
18133TIP3    H175814   6.567   5.163   2.611  0.2321  0.7771  1.0145
18133TIP3    H275815   6.676   5.073   2.557 -2.1598 -1.9446  0.5036
18134TIP3   OH275816   5.934   2.397  12.662  0.1402  0.1581  0.1618
18134TIP3    H175817   5.869   2.334  12.632  1.6099 -0.4844 -1.8365
18134TIP3    H275818   5.912   2.479  12.618  1.1923 -0.3062 -1.2930
18135TIP3   OH275819   5.035   1.010  13.596 -0.0795 -0.0374 -0.1276
18135TIP3    H175820   5.051   1.083  13.656 -2.0143  1.2679 -1.0953
18135TIP3    H275821   5.007   0.938  13.652 -1.6395  1.0837  0.6154
18136TIP3   OH275822   6.622   3.042  11.666 -0.1028 -0.0819 -0.1274
18136TIP3    H175823   6.688   3.073  11.604 -1.3992  0.7219 -1.1587
18136TIP3    H275824   6.671   2.992  11.730  1.3756 -0.3788 -1.4402
18137TIP3   OH275825   5.345   5.355   5.614 -0.1292  0.0019 -0.3769
18137TIP3    H175826   5.428   5.314   5.588 -0.4724 -0.0460 -1.4850
18137TIP3    H275827   5.279   5.287   5.596 -0.5081  0.4018 -0.5056
18138TIP3   OH275828   3.871   0.184   0.573  0.2388 -0.0935 -0.0857
18138TIP3    H175829   3.790   0.200   0.525 -0.7794  0.4423  1.7261
18138TIP3    H275830   3.905   0.272   0.593  0.5440 -0.3014  0.3310
18139TIP3   OH275831   1.440   6.150  15.502  0.2443  0.3683 -0.3302
18139TIP3    H175832   1.427   6.074  15.446 -1.3982  0.5467 -0.2162
18139TIP3    H275833   1.406   6.123  15.588  1.7643  0.4589  0.3361
18140TIP3   OH275834   5.594   1.424   5.232 -0.2008  0.0822  0.1573
18140TIP3    H175835   5.567   1.339   5.198  0.8518  0.1395 -0.8838
18140TIP3    H275836   5.519   1.481   5.217 -0.9863 -0.6733  1.0310
18141TIP3   OH275837   3.091   1.397  15.598  0.4323  0.1087  0.1940
18141TIP3    H175838   3.063   1.367  15.512  1.2984  0.4465 -0.2137
18141TIP3    H275839   3.081   1.492  15.595 -0.8765  0.0205  0.9666
18142TIP3   OH275840   1.873   6.649  16.331 -0.6520  0.0391 -0.3560
18142TIP3    H175841   1.810   6.685  16.394 -0.5131 -0.1531 -0.1074
18142TIP3    H275842   1.955   6.642  16.380 -0.4117  0.3589 -0.6981
18143TIP3   OH275843   6.715   0.585   2.256  0.1815  0.0458  0.1333
18143TIP3    H175844   6.643   0.608   2.196  0.4428  2.2157  0.5643
18143TIP3    H275845   6.744   0.669   2.291 -0.3220 -1.1361  3.7564
18144TIP3   OH275846   2.568   2.327  12.066  0.2659  0.0081  0.2623
18144TIP3    H175847   2.550   2.393  12.134 -1.3517 -0.7177  0.5907
18144TIP3    H275848   2.590   2.378  11.988  1.4144  0.8721  1.1161
18145TIP3   OH275849   1.436   0.801   4.427 -0.2521 -0.0682 -0.4172
18145TIP3    H175850   1.399   0.724   4.471  0.3272  0.9275  2.0037
18145TIP3    H275851   1.374   0.822   4.358 -1.2940 -1.6952 -0.0269
18146TIP3   OH275852   3.337   1.088   4.785 -0.2138 -0.0688  0.1208
18146TIP3    H175853   3.339   1.097   4.689 -2.0958 -2.3038 -0.2214
18146TIP3    H275854   3.357   1.175   4.818  2.0635  0.4308 -2.2546
18147TIP3   OH275855   1.623   0.779  12.835  0.4579 -0.1350 -0.2877
18147TIP3    H175856   1.607   0.868  12.804 -0.9349 -0.5181 -0.7609
18147TIP3    H275857   1.552   0.762  12.897  1.3210 -0.5535  0.6042
18148TIP3   OH275858   3.756   6.238   1.369  0.2793 -0.2956  0.0898
18148TIP3    H175859   3.808   6.295   1.311  2.0641 -0.3612  1.5464
18148TIP3    H275860   3.690   6.200   1.311  1.0454  0.7838 -1.5931
18149TIP3   OH275861   5.150   3.718  14.143  0.1050  0.1126  0.0408
18149TIP3    H175862   5.190   3.767  14.071  0.4629  1.6386  1.2293
18149TIP3    H275863   5.185   3.630  14.134 -0.6685 -0.0343 -2.2558
18150TIP3   OH275864   3.720   1.172  15.061  0.4226 -0.1506  0.8547
18150TIP3    H175865   3.674   1.178  14.977 -0.8275  1.8469  1.6018
18150TIP3    H275866   3.805   1.134  15.039  0.4801  1.1317 -1.4809
18151TIP3   OH275867   6.218   2.470   3.448  0.1853  0.3589  0.1064
18151TIP3    H175868   6.174   2.391   3.418  1.3465 -0.2021 -0.1625
18151TIP3    H275869   6.263   2.504   3.370  1.7580 -0.1258  0.7692
18152TIP3   OH275870   0.932   2.005  12.972 -0.2250  0.4257  0.1749
18152TIP3    H175871   1.018   1.967  12.992 -0.0932  0.4688 -0.2934
18152TIP3    H275872   0.877   1.980  13.046  0.7282  2.2183  1.5683
18153TIP3   OH275873   4.081   3.233  11.249  0.1870  0.0778 -0.5345
18153TIP3    H175874   4.105   3.147  11.284  0.2312  0.6181  0.8170
18153TIP3    H275875   4.130   3.240  11.167 -1.1048 -1.8694 -1.5568
18154TIP3   OH275876   4.095   1.460  17.221 -0.2742  0.3876 -0.1148
18154TIP3    H175877   4.093   1.555  17.233 -0.1045  0.2083  1.5815
18154TIP3    H275878   4.136   1.427  17.300 -1.3057 -1.1830 -0.1897
18155TIP3   OH275879   5.173   0.179  12.825  0.5789 -0.0563 -0.3238
18155TIP3    H175880   5.166   0.138  12.738 -0.2235 -0.3118 -0.1469
18155TIP3    H275881   5.128   0.118  12.884  1.2522  0.0392  0.3096
18156TIP3   OH275882   6.751   0.634  15.008  0.3154  0.2330 -0.3776
18156TIP3    H175883   6.774   0.644  15.101  0.4846 -1.8925 -0.1589
18156TIP3    H275884   6.834   0.612  14.965 -0.0216 -0.2299 -0.7938
18157TIP3   OH275885   6.479   4.789   4.298  0.0722  0.8993  0.3646
18157TIP3    H175886   6.530   4.859   4.340  0.5342 -0.5974  2.4550
18157TIP3    H275887   6.494   4.712   4.353 -0.7521 -0.7694 -1.6204
18158TIP3   OH275888   0.124   2.143  13.295  0.5292  0.0280  0.4438
18158TIP3    H175889   0.083   2.221  13.332 -2.9296 -0.7062 -1.3741
18158TIP3    H275890   0.157   2.173  13.210 -0.4985 -0.3508 -0.1065
18159TIP3   OH275891   3.273   2.475  14.980 -0.2664 -0.1695  0.2019
18159TIP3    H175892   3.241   2.385  14.989 -2.0300  0.4495  0.4751
18159TIP3    H275893   3.238   2.521  15.056  0.4329  0.8078 -0.0525
18160TIP3   OH275894   4.658   2.173   3.213  0.3754  0.3212  0.4981
18160TIP3    H175895   4.570   2.171   3.250  0.9913  1.5795  2.1542
18160TIP3    H275896   4.658   2.248   3.153  0.0892 -0.2169 -0.1905
18161TIP3   OH275897   4.565   4.028   0.530  0.1279  0.7383  0.1797
18161TIP3    H175898   4.590   3.944   0.492 -2.0606 -0.8618  2.0260
18161TIP3    H275899   4.625   4.041   0.604  0.4151  0.7883 -0.0597
18162TIP3   OH275900   0.338   1.574   0.213  0.0747 -0.4988  0.2492
18162TIP3    H175901   0.429   1.573   0.240  0.4416 -0.1040 -0.9139
18162TIP3    H275902   0.332   1.646   0.149 -1.2093 -0.0260  0.8598
18163TIP3   OH275903   3.778   3.432  11.583  0.1543 -0.6282 -0.6642
18163TIP3    H175904   3.851   3.420  11.523 -1.1022  0.8205 -2.6017
18163TIP3    H275905   3.729   3.351  11.578 -0.7330 -0.0225 -2.8337
18164TIP3   OH275906   1.039   6.366   5.164  0.0624  0.4147 -0.1128
18164TIP3    H175907   1.079   6.392   5.247  0.4582 -0.3834 -0.0456
18164TIP3    H275908   1.094   6.407   5.097  0.2498  0.3537  0.0025
18165TIP3   OH275909   2.662   2.373  13.591  0.6480  0.5273  0.1040
18165TIP3    H175910   2.753   2.356  13.617  0.9694 -0.0845 -1.3216
18165TIP3    H275911   2.629   2.433  13.658  1.3717 -1.0490  1.9633
18166TIP3   OH275912   1.755   4.694   0.052  0.3798 -0.2832  0.2749
18166TIP3    H175913   1.771   4.663  -0.037  0.6536  1.1550 -0.2009
18166TIP3    H275914   1.678   4.751   0.044  0.4204 -0.1281  0.9496
18167TIP3   OH275915   1.789   1.436   3.764 -0.2400  0.5247  0.5141
18167TIP3    H175916   1.723   1.399   3.705 -2.0213  0.3706  2.4432
18167TIP3    H275917   1.743   1.506   3.810  0.9260  0.4067  1.9463
18168TIP3   OH275918   2.086   3.104  14.384  0.1173  0.3866  0.2403
18168TIP3    H175919   2.013   3.098  14.446  0.7153  1.8424  1.1200
18168TIP3    H275920   2.133   3.182  14.410 -0.1234  1.6102 -2.6558
18169TIP3   OH275921   4.074   2.616  11.696 -0.0645  0.0063  0.1594
18169TIP3    H175922   4.167   2.599  11.683 -0.2894 -1.1391 -0.0521
18169TIP3    H275923   4.070   2.667  11.777  0.7784  0.4891 -0.0965
18170TIP3   OH275924   0.079   4.240  13.279 -0.0750 -0.0800 -0.0375
18170TIP3    H175925   0.133   4.162  13.277 -0.1016 -0.0903 -0.4295
18170TIP3    H275926   0.080   4.268  13.371  1.5074  0.5487 -0.2071
18171TIP3   OH275927   5.920   4.288   4.292 -0.4623 -0.0991 -0.8665
18171TIP3    H175928   5.989   4.304   4.356 -2.0077 -0.5479  0.9936
18171TIP3    H275929   5.948   4.208   4.247  1.5130  1.1699 -2.1135
18172TIP3   OH275930   5.713   5.688  11.630  0.3015 -0.3375  0.2419
18172TIP3    H175931   5.637   5.630  11.638  0.4922 -0.4451  1.4599
18172TIP3    H275932   5.784   5.640  11.674  0.0591  1.5050  2.7988
18173TIP3   OH275933   6.698   5.150   3.379 -0.0964 -0.1283  0.4664
18173TIP3    H175934   6.649   5.220   3.422 -1.9831 -2.2050  1.9295
18173TIP3    H275935   6.637   5.114   3.315  1.4438  0.5917 -1.4888
18174TIP3   OH275936   2.373   1.735  15.707 -0.1634 -0.6166  0.3317
18174TIP3    H175937   2.415   1.659  15.667 -2.0974 -1.0476 -0.9883
18174TIP3    H275938   2.342   1.703  15.792  1.8483 -0.3516  1.2322
18175TIP3   OH275939   2.371   2.226   5.435  0.5154  0.2355  0.2384
18175TIP3    H175940   2.407   2.142   5.407  0.1398 -0.6802  2.3177
18175TIP3    H275941   2.277   2.209   5.445  0.3427  1.0760  0.0988
18176TIP3   OH275942   4.389   5.060  11.175  0.0173  0.5601  0.0222
18176TIP3    H175943   4.298   5.088  11.165 -0.8546 -1.3165  1.9342
18176TIP3    H275944   4.424   5.058  11.085 -1.6993  1.6038 -0.7205
18177TIP3   OH275945   6.307   1.366   1.150  0.2813  0.1830  0.3114
18177TIP3    H175946   6.294   1.308   1.075  0.0270 -0.0140  0.5086
18177TIP3    H275947   6.229   1.354   1.204 -0.5019  1.8079 -0.3708
18178TIP3   OH275948   4.762   6.475  10.928  0.3593  0.6242  0.4253
18178TIP3    H175949   4.834   6.419  10.960  0.2856  0.6411  0.6252
18178TIP3    H275950   4.684   6.419  10.934  0.6289 -0.0443 -1.5908
18179TIP3   OH275951   3.570   4.869  11.657 -0.0184  0.0485 -0.1771
18179TIP3    H175952   3.540   4.906  11.740 -2.7534 -2.3518  0.0450
18179TIP3    H275953   3.528   4.924  11.591 -0.2890  0.1574  0.0800
18180TIP3   OH275954   5.617   2.546  13.435  0.3774 -0.3540 -0.4032
18180TIP3    H175955   5.584   2.549  13.524  0.2672  1.8724 -0.4609
18180TIP3    H275956   5.540   2.527  13.381  0.2065 -0.4729 -0.1143
18181TIP3   OH275957   3.923   6.443  12.037 -0.8286 -0.1267 -0.9459
18181TIP3    H175958   3.928   6.420  11.944  0.6296 -1.3222 -0.6194
18181TIP3    H275959   3.911   6.360  12.082 -0.8696  0.3669 -0.0131
18182TIP3   OH275960   4.508   2.205   0.844  0.3975  0.0970  0.6468
18182TIP3    H175961   4.451   2.137   0.880 -0.9330  1.1353  0.5868
18182TIP3    H275962   4.477   2.286   0.884  2.8776  0.5567  1.8626
18183TIP3   OH275963   4.337   0.451   0.885 -0.0471 -0.6939  0.1460
18183TIP3    H175964   4.244   0.474   0.883  0.2168  0.4408  0.0553
18183TIP3    H275965   4.349   0.407   0.969 -0.6081 -0.5940  0.2840
18184TIP3   OH275966   2.123   0.839   3.012 -0.1255 -0.1185 -0.1414
18184TIP3    H175967   2.040   0.883   3.033 -1.7732 -2.5266 -1.1246
18184TIP3    H275968   2.163   0.822   3.097 -1.7932 -0.9190  0.5422
18185TIP3   OH275969   5.111   5.604  12.390 -0.0509 -0.1391 -0.0652
18185TIP3    H175970   5.075   5.516  12.382  1.1433 -0.7324  0.7574
18185TIP3    H275971   5.071   5.653  12.319 -2.3103 -0.7995  0.6725
18186TIP3   OH275972   3.851   1.378  12.338 -0.4485  0.3196  0.1755
18186TIP3    H175973   3.771   1.426  12.357  0.5839  0.9489  3.6156
18186TIP3    H275974   3.921   1.444  12.343  0.5305 -0.6410 -0.2406
18187TIP3   OH275975   2.001   2.354   5.912  0.0243 -0.0982  0.0797
18187TIP3    H175976   1.978   2.331   6.002  1.0440 -0.8349  0.1704
18187TIP3    H275977   1.918   2.380   5.872 -0.2690  1.4197  1.5578
18188TIP3   OH275978   2.584   1.758   1.851  0.4366  0.5547 -0.5510
18188TIP3    H175979   2.521   1.713   1.795  0.8989 -0.9161  0.0663
18188TIP3    H275980   2.530   1.796   1.921 -0.0065  1.3956 -1.3302
18189TIP3   OH275981   4.161   6.284  14.069  0.1049 -0.1875 -0.6673
18189TIP3    H175982   4.193   6.298  14.158 -3.1295 -2.8316  1.1271
18189TIP3    H275983   4.212   6.210  14.037  1.6504  1.1020 -1.3476
18190TIP3   OH275984   2.558   1.722  11.518  0.0598  0.0327 -0.4936
18190TIP3    H175985   2.514   1.654  11.466  0.5764  0.6689 -1.8005
18190TIP3    H275986   2.580   1.790  11.455  0.1788  1.1129  0.6791
18191TIP3   OH275987   2.125   1.634   3.956  0.5442 -0.5343 -0.3571
18191TIP3    H175988   2.210   1.661   3.991 -0.4356  1.0160  0.9217
18191TIP3    H275989   2.103   1.701   3.892  0.1957 -0.8328 -0.5536
18192TIP3   OH275990   1.670   6.408  12.346  0.2151  0.2783  0.0485
18192TIP3    H175991   1.666   6.314  12.364  0.5394  0.0839 -0.8670
18192TIP3    H275992   1.578   6.434  12.336  0.0874  0.1884  0.8671
18193TIP3   OH275993   5.175   0.405  15.909  0.8991  0.3946  0.2520
18193TIP3    H175994   5.183   0.469  15.839 -2.0151  1.2984  0.6322
18193TIP3    H275995   5.213   0.325  15.873 -0.2877  0.8781 -2.2939
18194TIP3   OH275996   4.346   2.223  14.323  0.1521  0.2186 -0.4453
18194TIP3    H175997   4.254   2.197  14.318  0.2626 -0.0564 -1.0802
18194TIP3    H275998   4.367   2.217  14.416 -0.1014 -1.0238 -0.4515
18195TIP3   OH275999   4.606   6.344   6.619  0.2807 -0.5659 -0.0519
18195TIP3    H176000   4.608   6.276   6.552  1.6615 -0.2938 -0.3066
18195TIP3    H276001   4.588   6.297   6.700 -0.7012 -0.9819 -0.4826
18196TIP3   OH276002   4.803   2.506  15.990 -0.4958  0.8370  0.7889
18196TIP3    H176003   4.761   2.591  15.973 -1.2020  0.1976 -0.8110
18196TIP3    H276004   4.732   2.442  15.979  0.4928 -0.1260 -0.1490
18197TIP3   OH276005   4.994   6.429   3.833  0.4607  0.3053 -0.1858
18197TIP3    H176006   5.065   6.491   3.815  1.8237 -1.4582 -1.2092
18197TIP3    H276007   4.983   6.381   3.751 -3.4083  1.8237 -0.7983
18198TIP3   OH276008   4.166   4.959  12.476  0.0996  0.3032 -0.0928
18198TIP3    H176009   4.072   4.945  12.488  0.1156  1.7874  2.2884
18198TIP3    H276010   4.202   4.872  12.459 -1.3847 -0.6682  1.5482
18199TIP3   OH276011   1.609   4.059  16.062  0.2750 -0.1739  0.4957
18199TIP3    H176012   1.621   4.146  16.099  1.3782 -0.5147  0.9832
18199TIP3    H276013   1.514   4.047  16.060  0.0860  1.2131 -0.0294
18200TIP3   OH276014   2.674   4.501   2.581 -0.1392  0.4241  0.3889
18200TIP3    H176015   2.764   4.528   2.602 -0.9691  3.3514  0.6221
18200TIP3    H276016   2.685   4.420   2.532  2.4870 -0.5584  2.3072
18201TIP3   OH276017   0.653   2.823   1.051  0.0771  0.5262 -0.1482
18201TIP3    H176018   0.660   2.775   1.134  2.7546  1.0946  0.0634
18201TIP3    H276019   0.569   2.868   1.056  0.0239  0.2858  2.1530
18202TIP3   OH276020   2.497   3.072  12.047  0.3251  0.2936 -0.0870
18202TIP3    H176021   2.572   3.118  12.010  0.0350  1.2975  0.5176
18202TIP3    H276022   2.478   3.120  12.128  0.4849 -1.3692  0.9872
18203TIP3   OH276023   6.526   1.923  11.312 -0.0700  0.1987 -0.1844
18203TIP3    H176024   6.566   1.839  11.288  1.0487  0.5357  0.3974
18203TIP3    H276025   6.440   1.922  11.271 -0.0216 -1.1784 -0.2903
18204TIP3   OH276026   2.170   5.324   6.375 -0.0567  0.0672  0.2929
18204TIP3    H176027   2.200   5.290   6.291  1.1103  0.1962  0.6406
18204TIP3    H276028   2.092   5.375   6.354 -0.1119 -0.3725 -0.6291
18205TIP3   OH276029   1.854   2.110  17.094  0.0988  0.6959 -0.4793
18205TIP3    H176030   1.783   2.105  17.157 -0.2584 -0.2190 -0.9293
18205TIP3    H276031   1.820   2.162  17.022  0.4046  1.4922 -0.0601
18206TIP3   OH276032   6.687   3.192   1.589  0.0540 -0.4775  0.2307
18206TIP3    H176033   6.608   3.198   1.642 -0.9384  0.5710 -1.2874
18206TIP3    H276034   6.719   3.282   1.584 -1.2213 -0.0740 -2.8149
18207TIP3   OH276035   2.211   4.313  13.972  0.1362  0.1505  0.1459
18207TIP3    H176036   2.253   4.227  13.981 -4.4087 -2.1218  4.3204
18207TIP3    H276037   2.164   4.308  13.889  2.7370  0.2615 -1.4495
18208TIP3   OH276038   5.354   5.290   3.428  0.2632  0.2544 -0.2615
18208TIP3    H176039   5.436   5.338   3.439  0.2732  0.3933 -0.9583
18208TIP3    H276040   5.322   5.313   3.341 -0.0539 -0.5059 -0.3629
18209TIP3   OH276041   3.070   6.709  11.913 -0.1200 -0.2141 -0.2906
18209TIP3    H176042   3.037   6.620  11.924 -1.1805  0.2450  0.4393
18209TIP3    H276043   3.037   6.736  11.827 -1.7175  0.2422  0.4338
18210TIP3   OH276044   1.175   3.005   5.771  0.3677 -0.6124 -0.7049
18210TIP3    H176045   1.227   3.046   5.841  0.2410  0.8234 -1.4181
18210TIP3    H276046   1.238   2.948   5.726  0.0218 -3.1147  1.6864
18211TIP3   OH276047   0.830   6.275  14.715  0.7844  0.1309 -0.7011
18211TIP3    H176048   0.846   6.309  14.803  2.1494 -1.3991 -0.3030
18211TIP3    H276049   0.736   6.254  14.714  0.6899  0.4487  0.2902
18212TIP3   OH276050   6.081   2.971  16.869 -0.1822 -0.2711  0.1769
18212TIP3    H176051   6.081   2.888  16.916 -0.4077  0.5323  1.6432
18212TIP3    H276052   6.071   2.946  16.777 -1.1596 -1.8102  0.6630
18213TIP3   OH276053   1.247   3.714  11.037  0.0327 -0.0779  0.4794
18213TIP3    H176054   1.311   3.782  11.014 -1.3502  1.2230  0.3388
18213TIP3    H276055   1.273   3.638  10.986  0.6337  0.8661 -0.6603
18214TIP3   OH276056   5.934   5.683  16.517  0.1685  0.5792 -0.7989
18214TIP3    H176057   6.025   5.666  16.540  0.8433  0.5845 -3.2068
18214TIP3    H276058   5.890   5.598  16.525  0.6531  0.3347 -0.7517
18215TIP3   OH276059   6.223   6.033   5.842 -0.1566 -0.0601  0.1984
18215TIP3    H176060   6.264   5.954   5.807  2.1783  1.5589 -0.9530
18215TIP3    H276061   6.161   6.060   5.775 -1.8848 -1.5237  1.1398
18216TIP3   OH276062   4.842   0.470  13.651  0.5286  0.3782 -0.1050
18216TIP3    H176063   4.768   0.416  13.680  0.8366 -0.3589 -0.6271
18216TIP3    H276064   4.809   0.559  13.651 -0.8543 -0.0697 -1.7125
18217TIP3   OH276065   3.626   2.288   6.174  0.4298 -0.7222 -0.2115
18217TIP3    H176066   3.648   2.300   6.267 -0.3109 -0.1696 -0.0915
18217TIP3    H276067   3.632   2.194   6.159  1.0844 -0.7582  0.2614
18218TIP3   OH276068   5.742   4.872  11.358  0.0451 -0.5040  0.3081
18218TIP3    H176069   5.650   4.893  11.342 -0.4423 -1.7745  1.2471
18218TIP3    H276070   5.779   4.862  11.270 -0.7196 -0.0040 -0.0832
18219TIP3   OH276071   4.168   0.351  10.843 -0.5175 -0.0907  0.5050
18219TIP3    H176072   4.107   0.321  10.910  0.2581  0.0472  1.2970
18219TIP3    H276073   4.112   0.385  10.773 -1.3512  1.0041  1.6512
18220TIP3   OH276074   4.927   3.150   0.753 -0.8570  0.5524 -0.8744
18220TIP3    H176075   4.991   3.106   0.697  1.1064  1.7347  0.2923
18220TIP3    H276076   4.890   3.081   0.807  0.7711  0.0337 -0.3742
18221TIP3   OH276077   2.357   2.322   1.370  0.8880  0.0481  0.2365
18221TIP3    H176078   2.328   2.342   1.459 -0.5035 -0.1218 -0.1524
18221TIP3    H276079   2.298   2.373   1.313  0.1655 -1.6741 -0.6368
18222TIP3   OH276080   1.171   4.897  16.766  0.0741  0.1462  0.5935
18222TIP3    H176081   1.250   4.938  16.801  0.2320 -0.9134  1.5045
18222TIP3    H276082   1.108   4.969  16.760  0.8778  0.8609  0.5339
18223TIP3   OH276083   5.598   5.241   5.534  0.3161  0.3885  0.0451
18223TIP3    H176084   5.679   5.259   5.485  2.0743 -0.4664  2.4518
18223TIP3    H276085   5.552   5.177   5.479  1.8134  0.0436 -0.8828
18224TIP3   OH276086   0.922   5.095  16.002 -0.3587 -0.0562 -0.3835
18224TIP3    H176087   0.849   5.036  16.019  2.0598 -3.0816  0.4652
18224TIP3    H276088   0.952   5.071  15.914  1.1838 -0.8293  0.3082
18225TIP3   OH276089   2.245   6.369  15.392  0.1147  0.0879 -0.3826
18225TIP3    H176090   2.211   6.326  15.314  0.1878 -0.3049 -0.1989
18225TIP3    H276091   2.318   6.314  15.421  2.2032  1.9090 -1.8599
18226TIP3   OH276092   1.768   5.726  11.805 -0.1805  0.5528 -0.0301
18226TIP3    H176093   1.758   5.727  11.900 -0.2998  1.1362 -0.0439
18226TIP3    H276094   1.793   5.816  11.783  1.0089  0.1407 -0.4309
18227TIP3   OH276095   5.684   3.878  16.857  0.4305 -0.3437  0.2135
18227TIP3    H176096   5.718   3.931  16.929 -0.3553  2.8092 -1.5519
18227TIP3    H276097   5.760   3.861  16.801  0.3054  1.0943 -0.4334
18228TIP3   OH276098   0.493   0.136   1.547  0.0754 -0.1065  0.2222
18228TIP3    H176099   0.577   0.182   1.533 -0.5430  0.3625 -2.5185
18228TIP3    H276100   0.517   0.058   1.598  1.9545  0.6367  0.5870
18229TIP3   OH276101   2.567   3.928   0.750 -0.2225 -0.0719  0.1763
18229TIP3    H176102   2.631   3.861   0.726  0.2818  0.8575 -1.1824
18229TIP3    H276103   2.619   4.002   0.781 -0.7130  0.2301  0.3007
18230TIP3   OH276104   2.267   1.834   4.152 -0.0257  0.1954  0.0488
18230TIP3    H176105   2.336   1.845   4.087 -0.5287  0.1804 -0.4902
18230TIP3    H276106   2.214   1.913   4.145  0.4909  0.6734  1.1558
18231TIP3   OH276107   1.714   2.371  12.576  0.1357 -0.6593  0.0623
18231TIP3    H176108   1.670   2.409  12.651  1.7524 -0.6205  1.0248
18231TIP3    H276109   1.643   2.329  12.526 -0.9973 -0.5225  1.4801
18232TIP3   OH276110   6.533   6.700  11.257 -0.5764 -0.0467  0.1125
18232TIP3    H176111   6.485   6.694  11.341 -1.1210 -0.8152 -0.2370
18232TIP3    H276112   6.573   6.614  11.247 -1.1488 -0.2233 -0.7796
18233TIP3   OH276113   4.404   5.417   0.175 -0.4437  0.4049 -0.2292
18233TIP3    H176114   4.317   5.455   0.159 -0.4266  0.8193  0.6007
18233TIP3    H276115   4.444   5.411   0.089 -0.1609  2.9825 -0.3443
18234TIP3   OH276116   6.349   3.207   5.222  0.1441  0.2275  0.3505
18234TIP3    H176117   6.361   3.142   5.291  0.3347 -0.8987 -0.7206
18234TIP3    H276118   6.312   3.159   5.149 -0.2894  1.4496 -0.2666
18235TIP3   OH276119   5.770   2.471  13.807 -0.0406  0.1469  0.6186
18235TIP3    H176120   5.801   2.383  13.787  0.9417  0.8002 -0.9273
18235TIP3    H276121   5.745   2.467  13.899 -1.2297 -2.0634  0.2695
18236TIP3   OH276122   1.040   2.901   2.568  0.1660 -0.9027 -0.4783
18236TIP3    H176123   1.016   2.872   2.480 -0.6962 -0.6043 -0.3435
18236TIP3    H276124   1.006   2.832   2.626 -1.6080  0.1740 -0.1807
18237TIP3   OH276125   4.441   0.990  12.653 -0.2109  0.2108  0.6224
18237TIP3    H176126   4.388   0.923  12.695  0.2939 -1.7065 -1.5930
18237TIP3    H276127   4.517   0.943  12.618 -0.0834  1.7935 -1.4865
18238TIP3   OH276128   6.567   4.061   1.940 -0.1108  0.3841  0.7048
18238TIP3    H176129   6.602   4.150   1.947 -1.3875  0.8020  3.5922
18238TIP3    H276130   6.604   4.015   2.015  0.4186 -1.5435 -0.6599
18239TIP3   OH276131   4.262   2.653  15.074  0.2703 -0.6394  0.4727
18239TIP3    H176132   4.260   2.685  15.164  1.8624  0.0463  0.3171
18239TIP3    H276133   4.355   2.655  15.050 -0.1709 -0.1058 -1.4174
18240TIP3   OH276134   2.382   3.749  10.942 -0.1849  0.2514 -0.3332
18240TIP3    H176135   2.417   3.734  10.854  0.5326 -0.1362  0.0095
18240TIP3    H276136   2.459   3.758  10.998 -0.6163 -0.7990  0.4685
18241TIP3   OH276137   2.172   5.215  16.721  0.8784 -0.0389  0.0833
18241TIP3    H176138   2.267   5.220  16.710  0.7833 -1.9292 -2.3041
18241TIP3    H276139   2.161   5.168  16.804  1.9939  0.4774  0.5502
18242TIP3   OH276140   5.584   6.271  15.216  0.1016  1.1241 -0.3017
18242TIP3    H176141   5.645   6.324  15.267 -0.6034  0.4192  1.3453
18242TIP3    H276142   5.575   6.318  15.133  1.0244  2.4952  0.3291
18243TIP3   OH276143   3.281   1.262   3.928 -0.1508  0.5041  0.5956
18243TIP3    H176144   3.320   1.349   3.913  0.8511  0.0425  0.4006
18243TIP3    H276145   3.238   1.270   4.013  1.9243  0.5690  1.7226
18244TIP3   OH276146   2.180   1.947   1.282 -0.1191  0.1974 -0.0205
18244TIP3    H176147   2.271   1.962   1.309 -0.4702  0.3389  1.1579
18244TIP3    H276148   2.143   2.035   1.275 -0.7070  0.1113  1.5529
18245TIP3   OH276149   6.121   1.669   0.250 -0.5388 -0.3796  0.3230
18245TIP3    H176150   6.039   1.636   0.287  0.3674 -1.1667  1.7412
18245TIP3    H276151   6.167   1.707   0.325  0.3761  0.0781 -0.4559
18246TIP3   OH276152   4.515   0.356   0.681  0.2544  0.4891 -0.3456
18246TIP3    H176153   4.500   0.261   0.686 -0.4035  0.5460 -1.0726
18246TIP3    H276154   4.473   0.391   0.760  1.2603  0.1016  0.3871
18247TIP3   OH276155   4.800   1.944  10.791  0.1574 -0.6103 -0.2576
18247TIP3    H176156   4.808   2.037  10.769  1.0274 -0.7982 -0.7941
18247TIP3    H276157   4.708   1.923  10.775  0.0280  0.0759 -0.4569
18248TIP3   OH276158   4.718   2.153  11.810  0.2172  0.2234  0.1919
18248TIP3    H176159   4.647   2.118  11.865  1.0688  0.3124  1.3620
18248TIP3    H276160   4.798   2.115  11.846  0.7580 -0.2145 -1.3799
18249TIP3   OH276161   5.614   1.637  14.725 -0.4072  0.2914 -0.8522
18249TIP3    H176162   5.609   1.587  14.807  1.1447  1.8293  0.2611
18249TIP3    H276163   5.555   1.712  14.740  1.7107  1.9043 -0.0581
18250TIP3   OH276164   2.075   4.588  11.475  0.5168  0.0242 -0.3802
18250TIP3    H176165   2.171   4.593  11.465  0.5721 -1.9700 -1.1762
18250TIP3    H276166   2.042   4.600  11.387 -0.0635  1.5874  0.0142
18251TIP3   OH276167   2.278   4.064  13.644 -0.2897  0.3298 -0.1833
18251TIP3    H176168   2.201   4.120  13.630 -0.6722 -0.3622 -0.9512
18251TIP3    H276169   2.295   4.027  13.558 -0.1188 -0.8323  0.3374
18252TIP3   OH276170   0.738   6.068  15.638 -0.7137 -0.0834  0.0814
18252TIP3    H176171   0.751   6.153  15.680  1.5708  0.8773 -2.2980
18252TIP3    H276172   0.708   6.090  15.550  0.3927 -1.7042 -0.7296
18253TIP3   OH276173   2.394   0.992   0.044 -0.0517 -0.1059  0.4255
18253TIP3    H176174   2.333   1.032  -0.018  1.0511 -1.5981 -1.7278
18253TIP3    H276175   2.476   1.040   0.031  0.2503 -0.5871  0.5338
18254TIP3   OH276176   3.126   3.592  10.824 -0.2534  0.1792  0.6308
18254TIP3    H176177   3.120   3.613  10.917 -0.7527 -0.8270  0.8426
18254TIP3    H276178   3.074   3.513  10.815  0.4777 -0.1980 -0.3616
18255TIP3   OH276179   1.386   3.675   1.202 -0.0268  0.4373 -0.6704
18255TIP3    H176180   1.371   3.584   1.176 -0.7911  1.1021 -2.7678
18255TIP3    H276181   1.480   3.689   1.185  0.1848 -0.0575  0.0501
18256TIP3   OH276182   3.560   2.653   2.808 -0.3392  0.5789  0.9249
18256TIP3    H176183   3.644   2.644   2.852  1.5119  4.2218 -1.2723
18256TIP3    H276184   3.499   2.680   2.876  0.9063  0.2401  2.2042
18257TIP3   OH276185   1.581   5.697  16.606  0.3123  0.6740  0.0647
18257TIP3    H176186   1.551   5.701  16.515 -2.0604  1.6616  0.8139
18257TIP3    H276187   1.654   5.758  16.610  1.9412 -1.0176 -1.6184
18258TIP3   OH276188   4.939   4.561   1.151 -0.0641  0.5144  0.1527
18258TIP3    H176189   5.026   4.586   1.120 -0.7249  2.9102  0.0872
18258TIP3    H276190   4.882   4.574   1.075 -0.5239 -1.1323  0.1638
18259TIP3   OH276191   2.498   1.492  15.602 -0.0094 -0.3996  0.1216
18259TIP3    H176192   2.481   1.537  15.519 -1.3114  1.7893  1.4746
18259TIP3    H276193   2.569   1.542  15.643 -0.5652 -0.3738  1.0793
18260TIP3   OH276194   6.777   2.459  10.796  0.4490 -0.2017 -0.4163
18260TIP3    H176195   6.687   2.460  10.764  1.2340  1.2074 -2.7909
18260TIP3    H276196   6.771   2.421  10.884 -2.1821 -1.9598 -1.2468
18261TIP3   OH276197   1.142   5.937  14.183  0.3930  0.2516 -0.5986
18261TIP3    H176198   1.202   5.998  14.139  0.6569  1.0391  0.7927
18261TIP3    H276199   1.062   5.939  14.129  0.9997  0.5021 -1.5154
18262TIP3   OH276200   6.476   2.583  16.929  0.3442 -0.0048 -0.5863
18262TIP3    H176201   6.425   2.502  16.936  0.1283  0.0859 -1.0774
18262TIP3    H276202   6.414   2.647  16.893  0.1593  0.6946  0.8853
18263TIP3   OH276203   2.060   0.273   1.344 -0.2649 -0.0248  0.2243
18263TIP3    H176204   2.149   0.307   1.332 -0.5690  0.1264 -1.8076
18263TIP3    H276205   2.073   0.188   1.387  0.9740 -0.5540 -1.0989
18264TIP3   OH276206   4.407   5.254   2.092 -0.4350  0.3729  0.2225
18264TIP3    H176207   4.476   5.196   2.122  2.9027  2.6894 -2.2716
18264TIP3    H276208   4.352   5.269   2.169  1.7309 -1.7204  2.3055
18265TIP3   OH276209   3.569   4.924  12.775  0.3524 -0.9755  0.1340
18265TIP3    H176210   3.568   4.988  12.846 -1.3830  0.4350 -1.0704
18265TIP3    H276211   3.636   4.956  12.715 -0.4424 -0.3403 -0.4185
18266TIP3   OH276212   5.126   2.204  13.768  0.3045 -0.1575  0.1253
18266TIP3    H176213   5.095   2.265  13.836  1.6446 -0.1253  0.7306
18266TIP3    H276214   5.171   2.259  13.705  1.7286 -0.5120  0.7944
18267TIP3   OH276215   0.860   0.813   1.529 -0.0362 -0.0297 -0.1763
18267TIP3    H176216   0.834   0.814   1.621  0.8863 -1.1556  0.1252
18267TIP3    H276217   0.867   0.905   1.505  2.4534  0.3683  1.7038
18268TIP3   OH276218   2.980   6.424   1.479  0.3319  0.3953  0.0859
18268TIP3    H176219   2.884   6.415   1.478  0.4564 -1.1000  0.0104
18268TIP3    H276220   2.999   6.465   1.563 -0.3030 -0.3265  0.5953
18269TIP3   OH276221   4.016   0.431   0.888  0.4596  0.2332 -0.5278
18269TIP3    H176222   4.022   0.354   0.945 -0.2908  0.1547 -0.5398
18269TIP3    H276223   3.950   0.486   0.930  0.4601  0.5326 -0.9144
18270TIP3   OH276224   3.350   1.450   6.600 -0.0834  0.0055  0.1574
18270TIP3    H176225   3.404   1.457   6.679  0.1275  1.1440 -0.0658
18270TIP3    H276226   3.265   1.485   6.627 -1.0152 -2.5382  0.7366
18271TIP3   OH276227   1.991   5.386   4.839 -0.4685 -0.0843  0.1251
18271TIP3    H176228   2.015   5.298   4.810 -4.3148 -0.9501 -0.9428
18271TIP3    H276229   1.998   5.381   4.935 -1.1741 -1.7552  0.1263
18272TIP3   OH276230   3.074   5.502  13.912  0.2874 -0.3996 -0.5550
18272TIP3    H176231   3.078   5.590  13.874 -1.1348  0.6515  1.5369
18272TIP3    H276232   2.981   5.482  13.916  0.4790 -1.1654  0.7768
18273TIP3   OH276233   1.211   6.713   4.194 -0.8750  0.1340 -0.2377
18273TIP3    H176234   1.147   6.688   4.260 -0.4831 -3.0311 -0.8996
18273TIP3    H276235   1.290   6.664   4.218  0.2106  1.2463 -1.3996
18274TIP3   OH276236   1.735   4.572  14.313 -0.2549 -0.1386  0.0835
18274TIP3    H176237   1.726   4.499  14.253 -2.2292 -0.4739  0.7041
18274TIP3    H276238   1.785   4.537  14.387  0.9335 -0.1287 -0.6930
18275TIP3   OH276239   0.583   2.742  12.957  0.4192  0.4731  0.1070
18275TIP3    H176240   0.644   2.785  12.898 -2.1198  1.0979 -2.2606
18275TIP3    H276241   0.599   2.648  12.943  0.2919  0.6169 -1.1725
18276TIP3   OH276242   6.607   5.370  11.334 -0.0659 -0.8326  0.3939
18276TIP3    H176243   6.592   5.363  11.428  0.9356 -1.7705  0.4982
18276TIP3    H276244   6.658   5.292  11.312  1.5981  0.4414 -0.5115
18277TIP3   OH276245   3.631   6.546  15.223 -0.4402 -0.1471 -0.5266
18277TIP3    H176246   3.640   6.592  15.307  1.0274  0.2906 -0.8895
18277TIP3    H276247   3.627   6.453  15.247  0.4268 -0.0565  0.0219
18278TIP3   OH276248   3.668   6.272   1.642 -0.3669  0.5303  0.2925
18278TIP3    H176249   3.758   6.267   1.675 -0.1522  2.3352  0.0747
18278TIP3    H276250   3.677   6.270   1.547 -0.7572 -1.4655  0.2512
18279TIP3   OH276251   3.985   5.992  11.045  0.7091  0.2120  0.3116
18279TIP3    H176252   3.906   5.987  11.100  0.4561  4.2902  0.6336
18279TIP3    H276253   3.952   5.992  10.955  0.7408 -1.7015  0.2537
18280TIP3   OH276254   3.428   1.795  13.409 -0.3753  0.3312 -0.7663
18280TIP3    H176255   3.372   1.778  13.334  0.3573  0.1713 -1.2866
18280TIP3    H276256   3.422   1.716  13.462 -0.6308  0.3120 -0.8234
18281TIP3   OH276257   4.028   1.903   4.204 -0.5390 -0.0266 -0.7205
18281TIP3    H176258   4.101   1.888   4.143  1.8383  0.5829  1.7681
18281TIP3    H276259   3.988   1.817   4.215  1.8768 -1.1278  0.2287
18282TIP3   OH276260   2.695   0.538   5.705 -0.0027 -0.7535  0.3884
18282TIP3    H176261   2.789   0.556   5.696 -0.0212 -1.4661 -2.1092
18282TIP3    H276262   2.653   0.621   5.684  0.0112 -0.0784  2.7488
18283TIP3   OH276263   5.017   4.227   3.883  0.2051  0.8637  0.3488
18283TIP3    H176264   5.103   4.217   3.925 -0.4642 -0.0286  1.5659
18283TIP3    H276265   4.955   4.191   3.946 -0.9660  0.4757 -0.9675
18284TIP3   OH276266   6.324   5.872  11.163 -0.2322  0.3398 -0.3698
18284TIP3    H176267   6.318   5.776  11.162 -0.0777  0.3241 -1.2979
18284TIP3    H276268   6.234   5.902  11.150 -0.0455  0.2742 -2.0802
18285TIP3   OH276269   0.170   2.810  15.723  0.6432  0.0545 -0.3545
18285TIP3    H176270   0.231   2.864  15.774  0.2058  0.3161 -0.0904
18285TIP3    H276271   0.094   2.867  15.710  0.8881  0.1033 -1.6088
18286TIP3   OH276272   3.739   4.099   0.609 -0.1009  0.0323  0.0802
18286TIP3    H176273   3.714   4.186   0.580 -1.1114 -0.5069 -0.7378
18286TIP3    H276274   3.707   4.092   0.698  0.0266  0.5073  0.1630
18287TIP3   OH276275   3.288   5.376  11.498 -0.3487 -0.5572  0.1273
18287TIP3    H176276   3.299   5.281  11.494  0.6818 -0.4294 -0.7891
18287TIP3    H276277   3.329   5.401  11.581  2.7755 -0.5904 -1.2385
18288TIP3   OH276278   3.205   1.462   1.192  0.0915  0.0681  0.4080
18288TIP3    H176279   3.265   1.536   1.189  0.6466 -0.2912  1.9434
18288TIP3    H276280   3.260   1.386   1.208 -0.5098 -0.6484 -0.7915
18289TIP3   OH276281   4.652   1.025   3.112  0.4374 -0.0915  0.2295
18289TIP3    H176282   4.726   1.082   3.134  1.2270 -0.5218 -1.1370
18289TIP3    H276283   4.588   1.083   3.072 -0.2217  0.3756  1.9026
18290TIP3   OH276284   0.825   4.376  14.924 -0.0032 -0.3078 -0.1687
18290TIP3    H176285   0.920   4.384  14.914 -0.0671  1.1114  0.0768
18290TIP3    H276286   0.810   4.283  14.938  1.4122 -0.4939  0.2956
18291TIP3   OH276287   3.077   4.520   1.382 -0.2484 -0.3960 -0.4914
18291TIP3    H176288   2.992   4.542   1.343  0.2575  1.8954 -0.4318
18291TIP3    H276289   3.140   4.539   1.313  0.2358 -2.2299 -0.5858
18292TIP3   OH276290   0.711   1.532  15.703 -0.2716 -0.7686 -0.1540
18292TIP3    H176291   0.716   1.619  15.740 -0.2206 -0.2761 -1.2704
18292TIP3    H276292   0.790   1.524  15.649 -0.7892 -1.0907 -0.8844
18293TIP3   OH276293   0.592   2.629  13.646  0.3242 -0.7564  0.1038
18293TIP3    H176294   0.630   2.586  13.569 -0.7765 -0.5079 -0.6062
18293TIP3    H276295   0.547   2.559  13.692 -0.0893 -0.6777 -0.1734
18294TIP3   OH276296   5.317   5.174  13.510  0.1872 -0.3387 -0.8708
18294TIP3    H176297   5.223   5.166  13.493 -0.2914  1.0663  0.8314
18294TIP3    H276298   5.333   5.112  13.581 -0.2990  2.0466  1.4488
18295TIP3   OH276299   5.188   6.685   5.388 -0.0297  0.3326 -0.0913
18295TIP3    H176300   5.209   6.597   5.418  1.1188  0.2849 -0.9561
18295TIP3    H276301   5.104   6.675   5.342 -0.5067 -0.0637  0.8487
18296TIP3   OH276302   3.803   5.343   1.099 -0.0607  0.2766 -0.9411
18296TIP3    H176303   3.802   5.321   1.192  1.5104  0.1877 -0.9103
18296TIP3    H276304   3.755   5.272   1.057  0.3372 -0.3767 -0.3208
18297TIP3   OH276305   3.818   4.802  11.891 -0.2269 -0.4987  0.1416
18297TIP3    H176306   3.812   4.831  11.800  0.4585  2.5614  0.9597
18297TIP3    H276307   3.781   4.874  11.942  0.6659 -1.5267  2.3748
18298TIP3   OH276308   3.884   5.714  12.609  0.1635 -0.5887  0.0255
18298TIP3    H176309   3.938   5.777  12.656  0.3571  0.9345 -2.0809
18298TIP3    H276310   3.942   5.680  12.540 -0.9961 -0.2424 -1.1648
18299TIP3   OH276311   1.274   4.449  13.144  0.4284 -0.1863 -0.2263
18299TIP3    H176312   1.184   4.417  13.154 -0.0310  0.8514 -0.8779
18299TIP3    H276313   1.264   4.541  13.119  1.6690 -0.1436 -0.6214
18300TIP3   OH276314   4.625   3.235   6.584 -0.4846 -0.0865  0.2886
18300TIP3    H176315   4.565   3.263   6.654  1.0328 -0.2311  1.7017
18300TIP3    H276316   4.698   3.297   6.589 -0.8782  0.6461 -2.0041
18301TIP3   OH276317   6.018   3.209  12.110 -0.9823  0.1850 -1.1458
18301TIP3    H176318   5.982   3.297  12.122 -0.8108  0.2101 -0.7987
18301TIP3    H276319   6.062   3.190  12.193 -0.5941 -0.0310 -1.4016
18302TIP3   OH276320   4.427   4.842   1.833  0.1687 -0.2261  0.1982
18302TIP3    H176321   4.410   4.816   1.743 -1.7332 -0.3716  0.5631
18302TIP3    H276322   4.456   4.761   1.876 -1.1909 -0.7281  0.2307
18303TIP3   OH276323   6.313   1.168  13.377  0.5701 -0.1290 -0.2526
18303TIP3    H176324   6.309   1.260  13.406  0.8904 -0.0119 -0.5695
18303TIP3    H276325   6.375   1.127  13.438 -0.3405 -0.3825  0.5249
18304TIP3   OH276326   3.139   3.297  12.589  0.0367  0.2960 -0.4055
18304TIP3    H176327   3.110   3.206  12.585  0.5354  0.1318 -0.4043
18304TIP3    H276328   3.128   3.330  12.500  0.0906  0.1612 -0.4619
18305TIP3   OH276329   4.571   0.361  12.261  0.3190  0.3462  0.1041
18305TIP3    H176330   4.606   0.403  12.182  0.1046  0.0053 -0.1782
18305TIP3    H276331   4.648   0.329  12.308  0.7648  3.5231  1.8054
18306TIP3   OH276332   0.562   1.205   1.162 -0.6041 -0.8702 -0.0077
18306TIP3    H176333   0.569   1.116   1.129  0.3674 -0.9745  0.4500
18306TIP3    H276334   0.486   1.242   1.115  0.0826 -1.3409 -1.5650
18307TIP3   OH276335   5.938   1.424  16.427  0.0234 -0.1683 -0.1199
18307TIP3    H176336   5.999   1.409  16.499 -1.6016 -0.1907  1.3231
18307TIP3    H276337   5.993   1.435  16.350  1.7813 -1.2707  0.9222
18308TIP3   OH276338   5.042   3.635  17.261 -0.0694  0.4171  0.4106
18308TIP3    H176339   5.051   3.622  17.167  0.7262  1.6576  0.2838
18308TIP3    H276340   5.132   3.639  17.294 -0.3312  0.4707  1.1503
18309TIP3   OH276341   3.342   2.979   4.587 -0.0491 -0.2767  0.1177
18309TIP3    H176342   3.436   2.987   4.568  0.2254  2.7511  2.1142
18309TIP3    H276343   3.332   3.017   4.675 -3.4354  1.6996 -0.9494
18310TIP3   OH276344   0.007   6.002  11.141  0.5352  0.1265 -0.0826
18310TIP3    H176345   0.048   5.924  11.104  1.6403 -0.0341  1.3828
18310TIP3    H276346   0.071   6.035  11.204  0.2918  2.5018 -0.9876
18311TIP3   OH276347   1.746   2.722  13.517 -0.1759  0.4040  0.2083
18311TIP3    H176348   1.782   2.800  13.558 -0.7216  0.4953  0.5185
18311TIP3    H276349   1.802   2.651  13.548 -1.3194  0.2837  2.1486
18312TIP3   OH276350   4.277   1.394   3.523  0.0679  0.0042  0.1746
18312TIP3    H176351   4.193   1.403   3.479 -0.1969  0.9474  0.8507
18312TIP3    H276352   4.322   1.326   3.473 -1.3416 -0.9929  0.1982
18313TIP3   OH276353   1.755   6.665  14.672  0.0308 -0.2234  0.3157
18313TIP3    H176354   1.744   6.607  14.597 -0.1876 -0.3271  0.4284
18313TIP3    H276355   1.827   6.723  14.647 -0.3157  0.0174 -0.1465
18314TIP3   OH276356   4.955   3.814  15.083  0.1860 -0.1620  0.9039
18314TIP3    H176357   5.030   3.873  15.076  1.1299 -1.2051  1.8082
18314TIP3    H276358   4.913   3.838  15.166  0.6601 -0.8296  1.3500
18315TIP3   OH276359   1.042   0.598   4.470 -0.1141  0.3860  0.2863
18315TIP3    H176360   0.975   0.530   4.462 -1.1402  1.1970  1.4703
18315TIP3    H276361   1.124   0.554   4.447 -0.8757 -0.9688  0.0334
18316TIP3   OH276362   3.778   5.178   3.191 -0.6915 -0.2993  0.6019
18316TIP3    H176363   3.737   5.092   3.181 -1.4898  0.1096  0.2475
18316TIP3    H276364   3.793   5.207   3.101  1.3595 -0.8757  0.7087
18317TIP3   OH276365   0.398   3.196   2.212  0.5788  0.4387  0.6235
18317TIP3    H176366   0.322   3.191   2.154  0.1745  0.0656  1.1767
18317TIP3    H276367   0.473   3.182   2.155  0.4226  2.9273 -0.3443
18318TIP3   OH276368   1.845   0.295   2.035 -0.3692 -0.1483  0.3797
18318TIP3    H176369   1.861   0.370   1.978  0.2696  0.2712  1.0812
18318TIP3    H276370   1.930   0.250   2.039  0.0467  0.6756  2.1601
18319TIP3   OH276371   3.085   0.649   2.146 -0.3829 -0.8503 -0.2423
18319TIP3    H176372   3.028   0.648   2.069  0.8516 -0.4249 -1.2024
18319TIP3    H276373   3.153   0.585   2.126 -1.0099 -2.0450  1.2967
18320TIP3   OH276374   2.380   3.826   4.591  0.6014 -0.9910 -0.1482
18320TIP3    H176375   2.405   3.913   4.561  0.7260 -1.4298 -1.3690
18320TIP3    H276376   2.457   3.794   4.637 -0.0145  0.1678  1.8011
18321TIP3   OH276377   3.492   5.365   4.527 -0.2222  0.3141  0.2836
18321TIP3    H176378   3.451   5.376   4.613 -1.7885 -0.3808 -0.3300
18321TIP3    H276379   3.580   5.400   4.538 -1.1983  2.6462  1.4746
18322TIP3   OH276380   2.075   4.978  14.033  0.4584 -0.3828 -0.1202
18322TIP3    H176381   2.062   4.940  14.120 -1.0248  0.7967  0.2201
18322TIP3    H276382   2.020   4.926  13.975  0.3601 -0.3013 -0.1006
18323TIP3   OH276383   0.560   3.190  16.746  0.4141 -0.0073  0.3114
18323TIP3    H176384   0.561   3.123  16.814 -2.1640  1.0701  1.5470
18323TIP3    H276385   0.524   3.267  16.789 -1.2723  0.7440 -2.2255
18324TIP3   OH276386   4.977   3.067   4.143  0.9602 -0.3208  0.2107
18324TIP3    H176387   5.041   3.091   4.211  2.4074  1.0940 -1.5569
18324TIP3    H276388   4.901   3.122   4.162 -0.7900 -3.4603  3.5774
18325TIP3   OH276389   6.115   4.384  13.791  0.0395 -0.3577 -0.0570
18325TIP3    H176390   6.089   4.333  13.714  0.4315  0.4325 -0.7271
18325TIP3    H276391   6.067   4.343  13.864 -0.6131 -0.8965 -0.7655
18326TIP3   OH276392   0.748   1.310  13.508  0.3133  0.3507  0.1166
18326TIP3    H176393   0.809   1.378  13.537 -1.6363  2.8599 -1.1878
18326TIP3    H276394   0.695   1.291  13.585 -0.4966  1.9657 -0.0001
18327TIP3   OH276395   5.985   0.336   2.625 -0.5719 -0.7126  0.4935
18327TIP3    H176396   5.976   0.422   2.584  0.0272  0.1904  2.1578
18327TIP3    H276397   6.027   0.282   2.558  0.7184  0.8028  0.0211
18328TIP3   OH276398   6.135   0.160  11.562 -0.3202  1.0298  0.4305
18328TIP3    H176399   6.106   0.248  11.541 -0.2722  0.7848 -0.7364
18328TIP3    H276400   6.128   0.112  11.479  1.0809  0.3319  0.6894
18329TIP3   OH276401   1.253   6.296  14.514 -0.0627  0.1137 -0.3699
18329TIP3    H176402   1.309   6.228  14.551 -0.2218  0.2226  0.0803
18329TIP3    H276403   1.164   6.259  14.519 -0.7324  1.7641  3.4699
18330TIP3   OH276404   0.102   2.388  16.339  0.5846  0.0514  0.2635
18330TIP3    H176405   0.048   2.422  16.410 -1.6477 -2.4553 -0.0857
18330TIP3    H276406   0.047   2.393  16.261  2.1540  0.6323 -0.8624
18331TIP3   OH276407   3.571   3.762  12.459  0.5494  0.0477  0.2514
18331TIP3    H176408   3.543   3.671  12.464  0.5764 -0.0402 -0.9951
18331TIP3    H276409   3.665   3.759  12.479  0.0493  0.2020  3.1975
18332TIP3   OH276410   1.505   5.222   0.275  0.2300 -0.5267 -0.4131
18332TIP3    H176411   1.585   5.267   0.301  1.0338 -0.0055 -3.4557
18332TIP3    H276412   1.479   5.263   0.193 -3.0790 -0.8620  0.3113
18333TIP3   OH276413   0.301   0.917  15.723 -0.3017  0.1857  0.1517
18333TIP3    H176414   0.260   1.003  15.713 -1.3464 -0.2277  0.7922
18333TIP3    H276415   0.248   0.872  15.788 -1.1391 -1.7683 -1.7685
18334TIP3   OH276416   4.684   5.828   1.249  0.4518  0.2929  0.1630
18334TIP3    H176417   4.712   5.767   1.181 -0.6931 -0.3284  0.2302
18334TIP3    H276418   4.669   5.773   1.326 -2.7598  0.2069 -0.3639
18335TIP3   OH276419   6.336   0.268   5.945 -0.4292 -0.7116 -0.0137
18335TIP3    H176420   6.375   0.194   5.898 -0.4303 -0.4098 -0.5057
18335TIP3    H276421   6.303   0.231   6.026 -0.3490 -1.2350 -0.2164
18336TIP3   OH276422   5.400   4.053   5.552  0.0267 -0.2441 -0.2456
18336TIP3    H176423   5.413   4.024   5.643  0.1426  0.6702  0.0415
18336TIP3    H276424   5.478   4.021   5.506 -0.3542 -1.3083 -0.1913
18337TIP3   OH276425   2.677   1.720   3.604  0.0133 -0.1448  0.0851
18337TIP3    H176426   2.639   1.659   3.540 -1.9030  0.4879  0.5642
18337TIP3    H276427   2.606   1.781   3.625  1.2366  0.9559  1.2416
18338TIP3   OH276428   4.066   6.270   0.489  0.4795  0.6320 -0.2112
18338TIP3    H176429   4.056   6.216   0.411  0.3939 -0.5015  0.5709
18338TIP3    H276430   4.086   6.209   0.559 -1.1335  1.4237  1.0192
18339TIP3   OH276431   3.878   2.920  13.178  0.2931  0.5937  0.7526
18339TIP3    H176432   3.893   2.870  13.258 -1.6248  1.0941  1.4968
18339TIP3    H276433   3.935   2.881  13.113 -0.4691 -1.9828  1.5316
18340TIP3   OH276434   3.547   2.515  11.691 -0.5502  0.0379  0.0152
18340TIP3    H176435   3.494   2.438  11.711 -1.2168  0.4042 -0.2776
18340TIP3    H276436   3.633   2.496  11.728 -0.3841 -1.3078 -0.9707
18341TIP3   OH276437   0.722   3.830  16.342 -0.5423 -0.1552 -0.4048
18341TIP3    H176438   0.810   3.821  16.378  0.2612 -0.6875 -2.3754
18341TIP3    H276439   0.723   3.914  16.296 -1.4332  0.3531  0.4663
18342TIP3   OH276440   0.363   3.395  14.860 -0.1656 -0.0951  0.0441
18342TIP3    H176441   0.411   3.355  14.788  0.6955 -0.0051  0.5595
18342TIP3    H276442   0.302   3.328  14.889 -1.0640  0.1237 -1.2510
18343TIP3   OH276443   0.452   2.935  11.876  0.2897 -0.0134 -0.3131
18343TIP3    H176444   0.462   2.854  11.926  0.9772  0.3574  0.1772
18343TIP3    H276445   0.534   2.983  11.893 -0.0095  0.6747 -0.7830
18344TIP3   OH276446   1.312   1.794   1.802  0.3346  0.5558  0.4362
18344TIP3    H176447   1.324   1.887   1.784  1.7014  0.1172 -1.1870
18344TIP3    H276448   1.339   1.750   1.721 -1.0215 -1.2232  0.8777
18345TIP3   OH276449   2.753   6.428  16.570 -0.3867 -0.1924  0.0290
18345TIP3    H176450   2.681   6.390  16.519 -0.5471  0.4219 -0.2103
18345TIP3    H276451   2.774   6.362  16.635 -0.5857 -0.7400 -0.4539
18346TIP3   OH276452   3.211   6.264   2.911 -0.7614  0.1191  0.2010
18346TIP3    H176453   3.293   6.244   2.866 -0.7789  3.9271 -2.0078
18346TIP3    H276454   3.144   6.226   2.855 -0.5907  1.1289 -0.7453
18347TIP3   OH276455   4.980   2.124   4.143 -0.1266  0.2805  0.2556
18347TIP3    H176456   4.952   2.180   4.215 -0.1631  0.3103  0.2179
18347TIP3    H276457   5.015   2.046   4.186 -1.9620 -0.5907  0.2839
18348TIP3   OH276458   5.228   2.778   4.639 -1.0234 -0.5032 -0.4527
18348TIP3    H176459   5.280   2.858   4.649 -1.5328 -0.1266 -0.7913
18348TIP3    H276460   5.275   2.727   4.573 -0.8954 -0.3199 -0.5038
18349TIP3   OH276461   1.749   3.892  16.821 -0.1917  0.6060 -0.2203
18349TIP3    H176462   1.719   3.952  16.890 -1.4731  0.0423 -0.2681
18349TIP3    H276463   1.676   3.888  16.759  0.4061  0.0242 -0.9057
18350TIP3   OH276464   5.784   5.036   3.134  0.5508  0.2581 -0.3451
18350TIP3    H176465   5.768   4.986   3.055  3.3197  0.8823 -1.3807
18350TIP3    H276466   5.738   5.119   3.119  1.2042  0.4431 -1.3900
18351TIP3   OH276467   3.180   5.733  14.323 -0.0003  0.0750  0.8418
18351TIP3    H176468   3.124   5.656  14.312  0.5180 -0.4994  2.0183
18351TIP3    H276469   3.203   5.732  14.416  1.2608  0.7819  0.5507
18352TIP3   OH276470   5.845   6.377   5.183  0.5965  0.0166 -0.0023
18352TIP3    H176471   5.799   6.457   5.211  0.0344 -0.3502  0.1482
18352TIP3    H276472   5.895   6.404   5.106  1.6086  0.8710  0.9340
18353TIP3   OH276473   4.708   1.866   0.900 -0.3186 -0.0487  0.3382
18353TIP3    H176474   4.743   1.835   0.983  2.5477  0.9050 -0.3812
18353TIP3    H276475   4.705   1.788   0.845 -0.8677 -0.4307  0.9015
18354TIP3   OH276476   6.637   5.072   1.588  0.2786 -0.1747 -0.1716
18354TIP3    H176477   6.732   5.064   1.589  0.2892  0.0062  0.4939
18354TIP3    H276478   6.620   5.165   1.601 -0.0012 -0.2984  0.3633
18355TIP3   OH276479   4.783   4.276   3.587  0.0966  0.0915  0.3222
18355TIP3    H176480   4.759   4.188   3.556 -0.8402  0.1437  0.8401
18355TIP3    H276481   4.805   4.263   3.679 -0.2382  0.4223  0.4505
18356TIP3   OH276482   5.330   0.567   2.722 -0.0656 -0.2183  0.2593
18356TIP3    H176483   5.385   0.625   2.668 -0.7616 -0.2452 -0.4964
18356TIP3    H276484   5.303   0.622   2.796  0.2219  0.0772  0.1477
18357TIP3   OH276485   4.932   1.900   2.933  0.4960 -0.0571 -0.4831
18357TIP3    H176486   4.951   1.976   2.988  1.9173 -0.4413 -0.3891
18357TIP3    H276487   4.952   1.825   2.989 -3.3140 -0.6602  0.3312
18358TIP3   OH276488   3.544   1.692  11.829 -0.4274  0.3256 -0.0328
18358TIP3    H176489   3.513   1.738  11.908  0.7420 -0.1707  0.7333
18358TIP3    H276490   3.576   1.608  11.862 -0.7640 -0.2608 -1.1728
18359TIP3   OH276491   4.611   6.349  16.698 -0.3150  0.1854  0.2595
18359TIP3    H176492   4.695   6.388  16.725 -0.4948 -0.2989  1.5812
18359TIP3    H276493   4.545   6.399  16.747 -0.8955  1.1136 -1.3988
18360TIP3   OH276494   3.996   0.332   5.579  0.7124 -0.5821 -0.5511
18360TIP3    H176495   3.960   0.348   5.492 -1.0366  0.8594  0.3695
18360TIP3    H276496   4.089   0.318   5.564  0.4798 -0.2255 -2.6368
18361TIP3   OH276497   6.527   0.531   4.630  0.0044  0.2530  0.4176
18361TIP3    H176498   6.488   0.608   4.671  0.2593  0.0506  1.0495
18361TIP3    H276499   6.512   0.543   4.536 -3.4554 -0.7758  0.6852
18362TIP3   OH276500   0.949   2.591  15.297 -0.1608 -0.3349 -0.3006
18362TIP3    H176501   0.924   2.501  15.277  0.7566 -0.2650 -1.9892
18362TIP3    H276502   1.045   2.590  15.293 -0.1647  0.9127 -1.3702
18363TIP3   OH276503   4.033   2.600  11.358 -0.0253  0.2165 -0.4067
18363TIP3    H176504   4.091   2.529  11.330  2.4143  0.9498  2.3506
18363TIP3    H276505   4.068   2.628  11.442 -2.9067  2.5164  0.1818
18364TIP3   OH276506   0.912   5.884  16.076 -0.1029 -0.4135  0.3593
18364TIP3    H176507   0.880   5.855  15.990 -2.1485 -1.8673  1.5130
18364TIP3    H276508   0.972   5.815  16.104 -0.3870 -0.5618  0.6061
18365TIP3   OH276509   2.213   3.156   0.136 -0.2755  0.2680  0.1943
18365TIP3    H176510   2.129   3.109   0.133 -0.7257  1.0948 -1.8278
18365TIP3    H276511   2.198   3.228   0.197 -0.4505 -0.5853  1.1888
18366TIP3   OH276512   6.221   4.785   3.873  0.2291 -0.2990 -0.3216
18366TIP3    H176513   6.232   4.691   3.856  1.1980 -0.2991  0.2197
18366TIP3    H276514   6.301   4.810   3.920 -0.8529  0.3861  1.2516
18367TIP3   OH276515   3.152   3.040  14.895  0.1801  0.6217  0.3960
18367TIP3    H176516   3.081   3.003  14.843 -0.3126  0.3370  1.2634
18367TIP3    H276517   3.192   3.105  14.837 -1.7441  1.9027  0.3946
18368TIP3   OH276518   4.061   4.153  14.752 -0.3263 -0.6180  0.7283
18368TIP3    H176519   4.149   4.152  14.789 -0.1421  0.8684  0.3792
18368TIP3    H276520   4.066   4.092  14.678  0.5238 -0.2614  0.4804
18369TIP3   OH276521   0.174   4.875  11.789 -0.2222 -0.1664  0.0548
18369TIP3    H176522   0.207   4.811  11.726  0.8661  1.4292 -1.0779
18369TIP3    H276523   0.145   4.949  11.735 -1.0275  0.4898  1.3455
18370TIP3   OH276524   2.619   2.612   3.715  0.3880 -0.5621  0.2228
18370TIP3    H176525   2.582   2.540   3.766 -1.7001 -1.3164 -2.1356
18370TIP3    H276526   2.578   2.604   3.629  0.8025  2.9013 -0.4508
18371TIP3   OH276527   5.476   4.522   1.938 -0.6598 -0.2785  0.4093
18371TIP3    H176528   5.400   4.556   1.985 -0.8005 -0.8561  0.6086
18371TIP3    H276529   5.441   4.488   1.856 -0.4217  0.6803 -0.1042
18372TIP3   OH276530   6.748   5.272   4.336  0.5743 -0.5419 -0.1344
18372TIP3    H176531   6.689   5.321   4.278  0.5967 -0.6366 -0.2385
18372TIP3    H276532   6.823   5.250   4.280 -0.5326 -2.8950 -0.8585
18373TIP3   OH276533   3.961   0.896  11.734 -0.3433  0.5809 -0.3319
18373TIP3    H176534   4.056   0.895  11.750 -0.4934 -0.7814  0.6822
18373TIP3    H276535   3.926   0.956  11.799 -0.3922 -0.8017  0.9770
18374TIP3   OH276536   0.788   6.329  10.518 -0.3812 -0.5217  0.5389
18374TIP3    H176537   0.728   6.398  10.548 -2.2391 -1.7063 -0.2309
18374TIP3    H276538   0.846   6.313  10.592  0.8612  2.5999  0.3758
18375TIP3   OH276539   5.176   4.541  16.520  0.6604 -0.2274  0.1999
18375TIP3    H176540   5.224   4.495  16.451  1.4522  0.8159  0.0364
18375TIP3    H276541   5.193   4.634  16.503 -1.2635  0.1813  0.2464
18376TIP3   OH276542   2.615   0.832  14.329 -0.5188 -0.2913 -0.1344
18376TIP3    H176543   2.663   0.836  14.412 -1.1447  0.9990  0.1863
18376TIP3    H276544   2.683   0.823  14.262  0.3764  2.8811  0.1889
18377TIP3   OH276545   3.752   6.485  15.656  0.3803  0.5213 -0.4450
18377TIP3    H176546   3.736   6.572  15.620 -0.3280 -0.1897 -1.9253
18377TIP3    H276547   3.826   6.498  15.716  0.7258  2.0125 -1.1223
18378TIP3   OH276548   6.349   1.754   4.242  0.3693  0.5743 -0.4897
18378TIP3    H176549   6.413   1.821   4.220  0.0444  0.8073 -0.7282
18378TIP3    H276550   6.365   1.735   4.335  0.9396  0.4577 -0.6123
18379TIP3   OH276551   0.311   2.160   2.712 -0.4996 -0.3977  0.4758
18379TIP3    H176552   0.375   2.138   2.780 -1.3937 -0.3526  1.3655
18379TIP3    H276553   0.300   2.079   2.662 -1.2731 -1.0318  1.6221
18380TIP3   OH276554   5.641   3.819   4.305 -0.4964 -0.4561  0.3997
18380TIP3    H176555   5.734   3.831   4.325 -0.0613 -1.3415 -0.9605
18380TIP3    H276556   5.600   3.900   4.334  1.2394  1.4631 -2.0326
18381TIP3   OH276557   1.496   6.756   5.499 -0.2853  0.3017 -0.2722
18381TIP3    H176558   1.572   6.777   5.553  2.1364  1.2175 -3.6364
18381TIP3    H276559   1.429   6.818   5.525  0.5318  0.3205  1.9554
18382TIP3   OH276560   3.827   4.315  11.149  0.1132  0.1816  0.2477
18382TIP3    H176561   3.880   4.346  11.076  1.7695 -0.8453  0.9520
18382TIP3    H276562   3.757   4.264  11.108 -0.3372  1.4996 -0.6946
18383TIP3   OH276563   6.686   0.303   6.542 -0.0911  0.3971  0.2344
18383TIP3    H176564   6.655   0.234   6.601  0.2305 -1.4108 -1.6043
18383TIP3    H276565   6.606   0.350   6.516 -0.5618 -0.4606  0.0913
18384TIP3   OH276566   6.604   6.412  16.458 -0.1614  0.0812  0.0550
18384TIP3    H176567   6.693   6.446  16.467  0.5255 -1.9396  1.8555
18384TIP3    H276568   6.550   6.489  16.439  1.7916  1.5270  0.0840
18385TIP3   OH276569   6.671   4.763   6.221 -0.5107  0.7043 -0.0009
18385TIP3    H176570   6.720   4.703   6.166  2.1939  2.7820 -0.0388
18385TIP3    H276571   6.582   4.762   6.184 -0.2074 -2.0279 -0.8980
18386TIP3   OH276572   5.820   4.576   0.609  0.3748 -0.2110  0.3134
18386TIP3    H176573   5.727   4.570   0.587  0.2660 -0.7699  0.9296
18386TIP3    H276574   5.862   4.512   0.551  0.1696 -1.1822  1.2229
18387TIP3   OH276575   1.512   3.873   3.730 -0.4722  0.2611  0.0411
18387TIP3    H176576   1.478   3.912   3.650  0.1813 -1.2609 -1.0471
18387TIP3    H276577   1.607   3.888   3.726 -0.1391 -1.7332 -0.6479
18388TIP3   OH276578   1.499   0.757  11.479  0.1735  0.4629 -0.1543
18388TIP3    H176579   1.480   0.849  11.499  0.3225  0.1309  1.6339
18388TIP3    H276580   1.530   0.759  11.388  0.5179  2.2276 -0.0460
18389TIP3   OH276581   1.517   2.868   4.301  0.1300 -0.2758 -0.6731
18389TIP3    H176582   1.595   2.911   4.335 -2.0169  5.1464 -1.6715
18389TIP3    H276583   1.464   2.848   4.378  0.8359 -0.4466 -0.2239
18390TIP3   OH276584   3.780   2.600  15.478 -0.1388 -0.5191  0.1741
18390TIP3    H176585   3.728   2.583  15.399 -0.2551  1.1039 -0.1325
18390TIP3    H276586   3.863   2.633  15.445 -0.3337  0.5538  0.7295
18391TIP3   OH276587   6.765   4.213   1.285 -0.8884 -0.2309 -1.1152
18391TIP3    H176588   6.696   4.261   1.331 -0.6420  0.4474 -1.4482
18391TIP3    H276589   6.769   4.128   1.330  0.1417  0.8169  0.8924
18392TIP3   OH276590   1.250   2.509   1.495 -0.9736  0.1032  0.4399
18392TIP3    H176591   1.219   2.419   1.488 -4.2203  1.0203  1.3946
18392TIP3    H276592   1.247   2.543   1.406 -1.9766 -0.1136  0.3805
18393TIP3   OH276593   1.307   4.483  11.924  0.1492 -0.6336  0.2865
18393TIP3    H176594   1.302   4.481  12.019  1.5004 -0.3693  0.3872
18393TIP3    H276595   1.364   4.409  11.901  0.1845 -0.4397 -0.2798
18394TIP3   OH276596   2.051   5.876   2.894  0.2769 -0.0522  0.1408
18394TIP3    H176597   2.112   5.806   2.915 -1.0420 -1.3965 -0.3687
18394TIP3    H276598   1.984   5.834   2.840 -1.1315  1.3638  0.7326
18395TIP3   OH276599   2.885   1.837   0.886 -0.0308  0.1383  0.4378
18395TIP3    H176600   2.884   1.906   0.819 -0.7241 -0.8167 -0.5741
18395TIP3    H276601   2.892   1.884   0.969  0.4547  1.3775 -0.2769
18396TIP3   OH276602   4.190   0.444   2.874 -0.7649  0.3502 -0.3040
18396TIP3    H176603   4.262   0.485   2.826  1.0613 -0.6654  1.4116
18396TIP3    H276604   4.233   0.401   2.949 -3.2716  0.4416  1.2776
18397TIP3   OH276605   1.214   0.597  13.108 -0.6254 -0.1739  0.0481
18397TIP3    H176606   1.301   0.597  13.149 -1.2261 -1.6067  1.3954
18397TIP3    H276607   1.229   0.638  13.023  0.8851  1.9327  1.2148
18398TIP3   OH276608   5.248   6.336   2.375 -0.0737  0.5218 -0.1169
18398TIP3    H176609   5.167   6.308   2.417  0.5613  0.6114  1.2136
18398TIP3    H276610   5.249   6.289   2.292  0.2814 -2.4755  1.4300
18399TIP3   OH276611   3.278   4.895   2.689  0.0416  0.0126  0.1531
18399TIP3    H176612   3.239   4.980   2.708 -2.4768 -0.8578 -0.6973
18399TIP3    H276613   3.262   4.843   2.768 -3.0085 -1.0987 -1.0316
18400TIP3   OH276614   2.156   1.737  17.021 -0.4349  0.0012  0.1146
18400TIP3    H176615   2.180   1.711  16.932  1.6046 -0.9679  0.8976
18400TIP3    H276616   2.075   1.788  17.010  0.5627  1.1997 -2.4314
18401TIP3   OH276617   3.154   5.976   5.428  0.3364  0.4196 -0.2139
18401TIP3    H176618   3.059   5.987   5.434  0.5663  2.2411  0.5444
18401TIP3    H276619   3.189   6.065   5.429  2.0720 -0.2256 -0.3812
18402TIP3   OH276620   5.771   1.374  14.487 -0.2309 -0.4750  0.2578
18402TIP3    H176621   5.742   1.389  14.397  1.0950 -2.4026 -0.5439
18402TIP3    H276622   5.782   1.279  14.494  0.0209 -0.3491  2.3708
18403TIP3   OH276623   4.618   0.306  13.269  0.1471 -0.5039  0.0606
18403TIP3    H176624   4.560   0.249  13.220 -1.8765  1.0251  0.5555
18403TIP3    H276625   4.651   0.369  13.204  0.6701 -0.9048 -0.0712
18404TIP3   OH276626   3.947   5.088   3.406 -0.4954 -0.0712 -0.4994
18404TIP3    H176627   3.967   5.164   3.462  0.3913  0.3541 -1.3647
18404TIP3    H276628   3.879   5.120   3.347 -0.2432  0.0012 -0.7519
18405TIP3   OH276629   0.436   3.125   0.563  0.5380  0.1524  0.1251
18405TIP3    H176630   0.382   3.084   0.494  0.3254 -0.0109  0.3864
18405TIP3    H276631   0.385   3.200   0.591  1.0594  0.7774 -0.5543
18406TIP3   OH276632   2.455   1.345  11.070  0.3367 -0.0413  0.2531
18406TIP3    H176633   2.520   1.277  11.085 -0.3515 -0.7523  0.0979
18406TIP3    H276634   2.503   1.416  11.027  1.1768 -0.2036  0.9199
18407TIP3   OH276635   1.786   6.385   3.309  0.2173 -0.4899  0.4785
18407TIP3    H176636   1.762   6.444   3.238  0.8005 -1.3815 -0.4973
18407TIP3    H276637   1.881   6.381   3.305  0.2325 -0.7969  1.1036
18408TIP3   OH276638   2.888   5.971   0.250 -0.7078 -0.0519  0.1044
18408TIP3    H176639   2.947   6.009   0.184  0.9856 -0.5663  1.2621
18408TIP3    H276640   2.805   5.959   0.203  0.0382  0.8382 -1.5485
18409TIP3   OH276641   0.908   1.239   2.744  0.1099 -0.0893  0.0672
18409TIP3    H176642   0.830   1.187   2.725 -0.0446  0.4142 -0.7326
18409TIP3    H276643   0.968   1.221   2.671 -0.8595  2.5855 -1.5520
18410TIP3   OH276644   5.728   4.508   4.527  0.2558 -0.3271 -0.5437
18410TIP3    H176645   5.786   4.442   4.488 -1.8745 -2.2806 -0.6231
18410TIP3    H276646   5.687   4.463   4.601  0.5295  1.7466  0.9487
18411TIP3   OH276647   2.202   4.423   4.665 -0.0509 -0.3531 -0.0749
18411TIP3    H176648   2.135   4.463   4.721 -0.0038  1.2293 -1.1013
18411TIP3    H276649   2.163   4.424   4.577  1.0265 -0.1323 -0.5560
18412TIP3   OH276650   5.881   3.444  12.145 -0.5010 -0.4091  0.3768
18412TIP3    H176651   5.788   3.435  12.123 -0.7585 -3.2653  2.1078
18412TIP3    H276652   5.885   3.521  12.202 -1.2165  1.5579 -2.0379
18413TIP3   OH276653   1.940   6.570   0.371  0.2654  0.0775 -0.2266
18413TIP3    H176654   1.848   6.590   0.351  0.5798  0.0851 -1.8677
18413TIP3    H276655   1.959   6.621   0.450 -1.1288  0.1050  0.1154
18414TIP3   OH276656   1.320   0.175   4.089  0.2711 -0.2194  0.4189
18414TIP3    H176657   1.282   0.098   4.132 -0.3024  0.4481  1.1379
18414TIP3    H276658   1.381   0.210   4.154  1.5949 -0.8412 -0.4337
18415TIP3   OH276659   5.848   5.121  12.185  0.3229 -0.3062 -0.2613
18415TIP3    H176660   5.938   5.111  12.215  0.8171 -1.5858 -1.9697
18415TIP3    H276661   5.848   5.202  12.135 -0.0225  0.7879  1.4467
18416TIP3   OH276662   0.317   6.033  14.614 -0.1366 -0.0864 -0.3901
18416TIP3    H176663   0.287   6.015  14.703 -0.3432 -1.6262 -0.7400
18416TIP3    H276664   0.260   5.980  14.558  1.6451 -1.2252 -1.2455
18417TIP3   OH276665   5.726   0.156   2.640  0.3737 -0.1020 -0.3820
18417TIP3    H176666   5.744   0.211   2.716  0.6591 -0.3921 -0.2346
18417TIP3    H276667   5.761   0.070   2.664 -0.0866 -0.3545 -0.5985
18418TIP3   OH276668   2.472   2.442  12.285  0.5053  0.3845  0.1478
18418TIP3    H176669   2.491   2.382  12.358  2.2154  0.3516 -0.2820
18418TIP3    H276670   2.378   2.430  12.269  0.5851 -1.4473  0.7152
18419TIP3   OH276671   4.988   1.177   1.660 -0.1255  0.3413 -0.3669
18419TIP3    H176672   5.061   1.115   1.653 -1.7971 -1.6183 -1.5981
18419TIP3    H276673   5.028   1.263   1.647  2.2521 -0.4414  1.1425
18420TIP3   OH276674   3.820   5.559  16.889  0.1200 -0.2747  0.0439
18420TIP3    H176675   3.833   5.531  16.980  1.3603 -2.6322 -0.7809
18420TIP3    H276676   3.731   5.531  16.868 -0.2390  0.4475  0.5762
18421TIP3   OH276677   2.593   1.042   6.420  0.1921  0.0811  0.3459
18421TIP3    H176678   2.510   1.072   6.458 -0.3066 -1.6779  0.7314
18421TIP3    H276679   2.646   1.121   6.415 -1.8774  1.4974 -0.9444
18422TIP3   OH276680   5.834   0.797   1.193  0.2323 -0.1648  0.6029
18422TIP3    H176681   5.807   0.821   1.105  0.0152 -2.3050  0.0347
18422TIP3    H276682   5.899   0.728   1.181  0.6857 -0.0488  2.1135
18423TIP3   OH276683   1.879   2.459   6.142 -0.0957 -0.0096  0.4483
18423TIP3    H176684   1.955   2.408   6.170 -0.6602 -0.6245  0.8887
18423TIP3    H276685   1.900   2.549   6.167  1.4709  0.2183 -1.4797
18424TIP3   OH276686   3.521   4.296   0.823 -0.2223 -0.3405 -0.1329
18424TIP3    H176687   3.566   4.360   0.768 -1.4140  0.8233  0.1940
18424TIP3    H276688   3.542   4.323   0.913  1.6966 -2.2158  0.0629
18425TIP3   OH276689   1.031   3.441  13.959  0.1967 -0.2943 -0.2723
18425TIP3    H176690   1.021   3.482  13.873 -1.0529  1.3175  0.5797
18425TIP3    H276691   1.117   3.470  13.989 -0.7250  2.0441  0.3920
18426TIP3   OH276692   2.054   4.251   6.100 -0.0879 -0.0115  0.0319
18426TIP3    H176693   2.127   4.198   6.131  1.1298  0.0713 -2.4641
18426TIP3    H276694   1.984   4.188   6.083  0.0958 -0.3530  0.5527
18427TIP3   OH276695   1.465   2.518   3.472  0.0010  0.2825 -0.4280
18427TIP3    H176696   1.523   2.575   3.521 -0.8959  0.5855  0.3114
18427TIP3    H276697   1.404   2.578   3.429 -0.3293 -0.0669 -0.4532
18428TIP3   OH276698   3.328   4.082  15.362 -0.3887  0.0739  0.5638
18428TIP3    H176699   3.360   4.092  15.452  0.2509 -1.1842  0.5053
18428TIP3    H276700   3.265   4.010  15.366 -0.8289  0.4299  0.1163
18429TIP3   OH276701   3.822   5.614   5.290  0.1869 -0.2951 -0.2944
18429TIP3    H176702   3.796   5.629   5.380  2.1727  0.4206  0.2045
18429TIP3    H276703   3.797   5.694   5.244 -3.0320 -1.5665 -0.9885
18430TIP3   OH276704   5.601   6.262   3.746 -0.3413 -0.7040 -0.2776
18430TIP3    H176705   5.520   6.273   3.797  1.4779  1.4919  2.4834
18430TIP3    H276706   5.625   6.352   3.721  2.2355 -0.9935  0.8176
18431TIP3   OH276707   5.936   0.426  16.334  0.5516  0.4203 -0.1829
18431TIP3    H176708   5.903   0.388  16.252  0.1767 -1.1560  0.6613
18431TIP3    H276709   5.988   0.502  16.306 -1.1218  1.0581 -1.7487
18432TIP3   OH276710   2.017   2.077   4.228  0.1188  0.5021 -0.2047
18432TIP3    H176711   2.039   2.140   4.297 -0.6365 -0.2885  0.7743
18432TIP3    H276712   1.969   2.008   4.273  1.2284 -0.9633 -1.2002
18433TIP3   OH276713   2.115   0.924   1.535  0.0134  0.7622 -0.3609
18433TIP3    H176714   2.061   0.937   1.457 -1.9362  2.8602  1.2045
18433TIP3    H276715   2.058   0.947   1.608  2.0429 -0.2222  1.6719
18434TIP3   OH276716   1.036   3.985  13.184  0.4861  0.2160 -0.2898
18434TIP3    H176717   0.986   3.906  13.163 -1.1772  0.8510  1.0171
18434TIP3    H276718   1.124   3.954  13.202  0.2246 -1.1490 -1.2580
18435TIP3   OH276719   1.555   4.048   4.461  0.4345 -0.2617 -0.2285
18435TIP3    H176720   1.617   4.004   4.519  0.5006 -0.7167 -0.6301
18435TIP3    H276721   1.567   4.004   4.376 -2.0987 -2.0257  0.2018
18436TIP3   OH276722   1.611   4.719   3.400  0.4632 -0.0633 -0.2328
18436TIP3    H176723   1.611   4.642   3.343  1.1687  0.3731 -0.8400
18436TIP3    H276724   1.637   4.686   3.485 -0.9320 -0.7829 -0.0501
18437TIP3   OH276725   6.256   5.134   3.749  0.0539  0.4141  0.3390
18437TIP3    H176726   6.168   5.132   3.787 -0.7289  0.0854 -1.3880
18437TIP3    H276727   6.312   5.161   3.821 -1.2799 -0.5357  1.8073
18438TIP3   OH276728   0.418   0.936  16.328  0.0273 -0.0658  0.0559
18438TIP3    H176729   0.425   0.949  16.423 -2.1527 -0.5940  0.3510
18438TIP3    H276730   0.506   0.953  16.294  0.9279 -0.1936  2.2040
18439TIP3   OH276731   1.636   3.315   5.077  0.2703 -0.4479 -0.2735
18439TIP3    H176732   1.677   3.398   5.103 -0.9864  0.7022 -1.7719
18439TIP3    H276733   1.582   3.291   5.152  1.0918 -0.2382  0.4036
18440TIP3   OH276734   6.653   5.986   2.752  0.2109  0.2742 -0.0624
18440TIP3    H176735   6.699   5.946   2.679 -0.5252 -0.3749 -0.1824
18440TIP3    H276736   6.696   6.071   2.764  0.3249  0.3945 -1.2503
18441TIP3   OH276737   5.939   0.424  14.596 -0.1053  0.4203 -0.0106
18441TIP3    H176738   5.970   0.489  14.660 -0.3172  2.0880 -1.5273
18441TIP3    H276739   6.019   0.383  14.563 -0.0088 -0.6784  1.5014
18442TIP3   OH276740   0.834   3.659   1.669  0.2764 -0.1757  0.1732
18442TIP3    H176741   0.743   3.652   1.698 -0.0298  1.3791 -0.2894
18442TIP3    H276742   0.842   3.595   1.598 -0.3668 -0.5337  0.4149
18443TIP3   OH276743   1.788   5.269  10.608 -0.5858 -0.1551  0.3284
18443TIP3    H176744   1.756   5.228  10.528  0.2699 -1.1834  0.4760
18443TIP3    H276745   1.867   5.316  10.582  1.3176 -2.7706  0.9524
18444TIP3   OH276746   4.229   4.402   1.120  0.4540  0.3198 -0.2935
18444TIP3    H176747   4.248   4.313   1.090  0.7266  0.4800 -0.6014
18444TIP3    H276748   4.315   4.446   1.122  0.1730  0.9738 -1.4506
18445TIP3   OH276749   4.716   2.775   2.961  0.2736 -0.5061  0.3495
18445TIP3    H176750   4.740   2.720   2.887  1.2067  0.8251 -0.3978
18445TIP3    H276751   4.624   2.755   2.978  0.0263 -0.7935 -1.2273
18446TIP3   OH276752   6.677   2.463  15.218 -0.1610  0.2316  0.7474
18446TIP3    H176753   6.629   2.472  15.136 -2.9433 -3.3262  1.7138
18446TIP3    H276754   6.768   2.482  15.195 -0.8334 -0.4453 -3.1428
18447TIP3   OH276755   3.974   3.192  16.543 -0.0759  0.1590 -0.0513
18447TIP3    H176756   3.963   3.206  16.637 -2.8140  0.0217 -0.2691
18447TIP3    H276757   3.986   3.280  16.508 -2.2447  0.6108  0.1637
18448TIP3   OH276758   5.411   0.685   2.066  0.0629 -0.7670  0.2631
18448TIP3    H176759   5.439   0.755   2.008  0.0559 -0.0876  1.0543
18448TIP3    H276760   5.485   0.624   2.069  1.3063  0.7218  1.8840
18449TIP3   OH276761   6.707   5.655  12.937  0.5725 -0.5983  0.1821
18449TIP3    H176762   6.638   5.605  12.978  0.4880 -0.0172  0.7639
18449TIP3    H276763   6.705   5.628  12.845 -1.2473  0.3012 -0.0887
18450TIP3   OH276764   1.705   0.418   4.441 -0.2216  0.8689 -0.0780
18450TIP3    H176765   1.730   0.326   4.427  0.7810  0.5909  2.8298
18450TIP3    H276766   1.610   0.416   4.449 -0.2545  0.1911 -0.5148
18451TIP3   OH276767   5.978   6.166   5.975  0.8277 -0.3976  0.8564
18451TIP3    H176768   6.010   6.219   6.048  0.0040 -1.4743  2.0397
18451TIP3    H276769   6.057   6.131   5.934  1.2810 -1.0453  2.2243
18452TIP3   OH276770   4.257   3.694   2.657 -0.3792  0.0737 -0.1933
18452TIP3    H176771   4.344   3.729   2.674 -0.1754 -0.6631  0.3285
18452TIP3    H276772   4.252   3.615   2.711 -1.1362 -0.2349 -0.6981
18453TIP3   OH276773   4.718   5.376   6.444  0.7971 -0.7559  0.2552
18453TIP3    H176774   4.627   5.404   6.444  1.4919  1.9049  1.9541
18453TIP3    H276775   4.717   5.289   6.483 -0.9539 -0.5200  0.7980
18454TIP3   OH276776   1.730   2.051  14.123 -0.1351 -0.1170 -0.2478
18454TIP3    H176777   1.659   2.021  14.067 -2.6126  1.6628  1.7116
18454TIP3    H276778   1.733   1.987  14.194  0.4376 -0.3404 -0.4675
18455TIP3   OH276779   5.556   1.345   5.498  0.0010  0.3919 -0.5371
18455TIP3    H176780   5.616   1.413   5.470  0.9249  0.4472  1.4659
18455TIP3    H276781   5.576   1.271   5.441  1.6148  0.5796 -0.2598
18456TIP3   OH276782   5.243   0.050   3.769 -0.0705  0.0664 -0.0800
18456TIP3    H176783   5.253  -0.029   3.823  0.7391 -0.3664 -0.8455
18456TIP3    H276784   5.158   0.040   3.727  0.6638 -1.1745 -1.3608
18457TIP3   OH276785   2.823   3.653  11.134 -0.4112  0.6813 -0.1353
18457TIP3    H176786   2.826   3.645  11.230 -1.5041 -0.7260 -0.2037
18457TIP3    H276787   2.783   3.572  11.104  0.6900  0.7354 -1.8649
18458TIP3   OH276788   2.767   6.178  13.578 -0.2305 -0.3073  0.1270
18458TIP3    H176789   2.741   6.261  13.620  0.5654 -1.0719  2.2773
18458TIP3    H276790   2.853   6.159  13.615  0.2778 -1.3549 -1.5166
18459TIP3   OH276791   6.182   2.216  13.523  0.1709  0.2869  0.3550
18459TIP3    H176792   6.180   2.183  13.433  0.8988 -1.1974  0.8478
18459TIP3    H276793   6.214   2.306  13.514 -2.6831  1.2970 -1.1146
18460TIP3   OH276794   3.829   6.625   1.546 -0.1931  0.2829  0.4417
18460TIP3    H176795   3.876   6.550   1.509 -0.4123 -0.0242  0.7833
18460TIP3    H276796   3.812   6.681   1.470 -0.1810 -0.0957  0.1513
18461TIP3   OH276797   6.416   0.110  12.163  0.2242  0.7366 -0.8557
18461TIP3    H176798   6.438   0.120  12.256 -0.1771 -0.6447 -0.5822
18461TIP3    H276799   6.326   0.078  12.164  0.0866  1.0839 -1.7453
18462TIP3   OH276800   0.888   2.604   1.472 -0.3272  0.2406 -0.5414
18462TIP3    H176801   0.870   2.519   1.512 -0.5618  0.5225 -0.0356
18462TIP3    H276802   0.915   2.660   1.546  0.5513  0.4063 -0.9749
18463TIP3   OH276803   2.957   2.980  12.146 -0.3135  0.1455 -0.5811
18463TIP3    H176804   2.943   3.042  12.075  3.0456  0.8794 -0.7581
18463TIP3    H276805   2.974   2.897  12.101 -0.5679  0.0523 -0.5089
18464TIP3   OH276806   3.851   3.295  15.096  0.1713 -0.1758  0.1785
18464TIP3    H176807   3.819   3.312  15.008 -2.2383 -0.2503  0.9620
18464TIP3    H276808   3.875   3.381  15.130  1.2360 -0.1628 -0.5628
18465TIP3   OH276809   1.903   5.457  12.312  0.4821  0.0160  0.0642
18465TIP3    H176810   1.823   5.489  12.270  1.5554  1.1734 -1.1927
18465TIP3    H276811   1.909   5.508  12.393 -0.1175 -0.1883  0.2465
18466TIP3   OH276812   4.221   2.964  15.787 -0.1409  0.0108 -0.1718
18466TIP3    H176813   4.244   2.871  15.782  1.0276  0.1897  1.2081
18466TIP3    H276814   4.305   3.010  15.778 -0.3669  0.8204  1.4290
18467TIP3   OH276815   4.358   2.213  11.664  0.1839  0.4547 -0.0186
18467TIP3    H176816   4.439   2.161  11.664  0.2386  0.5380 -0.7040
18467TIP3    H276817   4.289   2.149  11.681  0.3327  0.2935 -0.0142
18468TIP3   OH276818   6.357   5.636  16.790  0.3489  0.3257  0.3647
18468TIP3    H176819   6.402   5.681  16.719 -0.0473 -2.7195 -2.0101
18468TIP3    H276820   6.264   5.646  16.770  0.2177 -0.1086  0.7412
18469TIP3   OH276821   1.942   3.129  10.847 -0.0905 -0.6081  0.3778
18469TIP3    H176822   1.879   3.123  10.775  1.0415  0.6566 -0.7670
18469TIP3    H276823   1.950   3.039  10.879 -0.2521 -1.3068 -1.4216
18470TIP3   OH276824   6.423   6.772   5.863  0.0897 -0.2216  0.0681
18470TIP3    H176825   6.484   6.759   5.790 -0.9883  1.0511 -1.1096
18470TIP3    H276826   6.459   6.718   5.934 -0.2483 -3.7234 -2.1690
18471TIP3   OH276827   0.831   5.493  11.960  0.2820 -0.3189 -0.4813
18471TIP3    H176828   0.783   5.415  11.934  0.0885 -0.2966 -0.1904
18471TIP3    H276829   0.920   5.479  11.926  0.3202 -0.7885 -0.1930
18472TIP3   OH276830   5.727   4.061   2.182 -0.3484  0.1800 -0.4422
18472TIP3    H176831   5.650   4.116   2.168  2.0878  3.7615 -0.9333
18472TIP3    H276832   5.739   4.016   2.098 -1.8535 -0.4594 -0.3458
18473TIP3   OH276833   2.393   4.547   6.507 -0.0018 -0.0149  0.0860
18473TIP3    H176834   2.408   4.460   6.544 -0.5699 -0.3192 -0.3908
18473TIP3    H276835   2.426   4.607   6.573 -1.2218 -0.5369  1.2090
18474TIP3   OH276836   5.381   0.528  15.373 -0.1677  0.6091 -0.2355
18474TIP3    H176837   5.449   0.537  15.306  0.1995  1.4791  0.2372
18474TIP3    H276838   5.412   0.456  15.428 -0.8426 -0.6226 -1.4019
18475TIP3   OH276839   5.477   0.077  13.245  0.8333 -0.5053  0.3207
18475TIP3    H176840   5.559   0.028  13.249  0.2396 -1.6921 -1.1344
18475TIP3    H276841   5.501   0.161  13.204  1.0497 -1.5515 -1.7991
18476TIP3   OH276842   6.656   5.228  12.552  0.2827 -0.0694  0.5278
18476TIP3    H176843   6.660   5.155  12.491 -0.1969  0.4526 -0.1608
18476TIP3    H276844   6.624   5.190  12.634 -0.4548 -0.5466  0.0332
18477TIP3   OH276845   2.272   2.568   5.152  0.2297 -0.1843  0.0476
18477TIP3    H176846   2.234   2.501   5.094  0.5875 -0.2148 -0.1592
18477TIP3    H276847   2.359   2.533   5.174  1.1397  1.0131 -1.4775
18478TIP3   OH276848   5.587   2.165  13.237 -0.5748  0.3179 -0.3410
18478TIP3    H176849   5.657   2.168  13.301  0.2678 -0.3255 -1.2004
18478TIP3    H276850   5.546   2.080  13.251 -0.4598  0.2224 -0.5752
18479TIP3   OH276851   4.592   1.067  11.417  0.2403  0.4290  0.2770
18479TIP3    H176852   4.610   1.006  11.346 -1.7050 -0.7314  0.7123
18479TIP3    H276853   4.591   1.153  11.374  1.8480  0.0720 -0.5584
18480TIP3   OH276854   5.374   3.215  11.957 -0.1795  0.4223 -0.2961
18480TIP3    H176855   5.353   3.236  12.048 -2.5692  1.0389 -0.9123
18480TIP3    H276856   5.383   3.300  11.914  3.1072  0.1943 -0.2866
18481TIP3   OH276857   6.378   3.687   4.465 -0.0789 -0.1248 -0.2378
18481TIP3    H176858   6.312   3.619   4.452 -0.7712  0.7209 -1.2074
18481TIP3    H276859   6.362   3.719   4.554 -1.4114  0.5416 -0.7136
18482TIP3   OH276860   4.930   6.082  13.018 -0.3554  0.3866 -0.1962
18482TIP3    H176861   4.903   6.115  13.104 -1.7614 -1.7610  0.2568
18482TIP3    H276862   4.869   6.123  12.957 -1.2249 -0.2838  0.1976
18483TIP3   OH276863   4.717   0.282   1.430 -0.5686 -0.2766  0.9426
18483TIP3    H176864   4.694   0.208   1.486  2.0521 -0.7111  1.5502
18483TIP3    H276865   4.789   0.250   1.376 -0.1279  1.4782  0.4338
18484TIP3   OH276866   4.872   2.294   0.118 -0.4897 -0.6611 -0.0563
18484TIP3    H176867   4.954   2.246   0.108  0.0598  0.2644 -0.1231
18484TIP3    H276868   4.836   2.263   0.202 -0.6188 -1.8492 -0.5352
18485TIP3   OH276869   0.160   4.096  11.696  0.6994 -0.1916 -0.8441
18485TIP3    H176870   0.121   4.137  11.774 -1.8172  0.6952 -2.4610
18485TIP3    H276871   0.160   4.002  11.716 -1.1467 -0.0986 -0.2419
18486TIP3   OH276872   4.834   2.713  12.704 -0.7948 -0.0243  0.4009
18486TIP3    H176873   4.747   2.675  12.694 -0.3421 -1.0231  0.2321
18486TIP3    H276874   4.891   2.639  12.725  0.2292  0.4360 -0.6862
18487TIP3   OH276875   6.191   5.767   5.116  0.1362  0.2847  0.2914
18487TIP3    H176876   6.193   5.821   5.195  1.1380 -1.1266  1.2808
18487TIP3    H276877   6.159   5.682   5.146  0.6508 -0.3165 -0.7969
18488TIP3   OH276878   0.938   2.265  13.714  0.2840  0.0866  0.0521
18488TIP3    H176879   0.962   2.242  13.624 -0.5879 -1.3382  0.1516
18488TIP3    H276880   0.899   2.185  13.750 -0.5155  0.9933  1.2973
18489TIP3   OH276881   5.656   0.743   4.724 -0.1222  0.5954 -0.0269
18489TIP3    H176882   5.621   0.689   4.794 -1.0723  1.3373  0.1028
18489TIP3    H276883   5.684   0.824   4.767  0.7630  0.4405 -0.2913
18490TIP3   OH276884   3.741   5.785   1.798 -0.7199  0.0765  0.0502
18490TIP3    H176885   3.688   5.806   1.875 -0.3721  0.3472  0.2146
18490TIP3    H276886   3.788   5.866   1.778  0.6272 -0.5239  0.6821
18491TIP3   OH276887   0.202   4.969  15.251 -0.6793 -0.3050  0.2289
18491TIP3    H176888   0.193   5.037  15.185  0.3459 -0.5302 -0.1650
18491TIP3    H276889   0.128   4.910  15.235 -0.6439 -0.1636 -0.4871
18492TIP3   OH276890   6.255   5.076  10.664  0.5197  0.4608 -0.0649
18492TIP3    H176891   6.347   5.055  10.649  0.4990  0.8302 -0.7834
18492TIP3    H276892   6.255   5.133  10.741  0.7211 -0.8879  0.9568
18493TIP3   OH276893   2.515   4.599   0.362  0.6276  0.1346 -0.3512
18493TIP3    H176894   2.481   4.667   0.420 -0.6580 -1.7098  1.1598
18493TIP3    H276895   2.458   4.602   0.285 -0.6261 -0.4630  0.5385
18494TIP3   OH276896   5.456   4.540  13.773 -0.3246  0.3379 -0.2368
18494TIP3    H176897   5.400   4.481  13.823  0.4929  0.4309  0.8166
18494TIP3    H276898   5.542   4.498  13.772 -0.2117  0.5464 -1.2120
18495TIP3   OH276899   6.692   3.656   2.580 -0.2204  0.0133 -0.2066
18495TIP3    H176900   6.679   3.573   2.626 -1.1821 -0.7516 -1.7779
18495TIP3    H276901   6.766   3.697   2.625 -0.2171 -1.3324  1.0869
18496TIP3   OH276902   2.262   0.472   1.457 -0.8218  0.2714 -0.6363
18496TIP3    H176903   2.223   0.527   1.525 -2.2374 -2.4558  0.9528
18496TIP3    H276904   2.276   0.388   1.500  2.9899 -0.1904 -2.3840
18497TIP3   OH276905   5.366   4.356   5.752  0.2798  0.0138  0.0324
18497TIP3    H176906   5.330   4.369   5.664 -0.8862  1.5641  0.6836
18497TIP3    H276907   5.455   4.323   5.737 -0.6504 -1.9414 -1.6760
18498TIP3   OH276908   2.080   4.776   3.401 -0.0291 -0.4048 -0.1128
18498TIP3    H176909   2.016   4.839   3.370  0.6965 -0.2964 -1.4845
18498TIP3    H276910   2.033   4.722   3.464 -1.2037  0.2488 -0.4106
18499TIP3   OH276911   6.062   0.926   3.574  0.5483 -0.0862 -0.6404
18499TIP3    H176912   6.128   0.869   3.536  1.6946  1.4147 -0.9866
18499TIP3    H276913   6.092   1.014   3.555 -0.6402  0.6730  0.7645
18500TIP3   OH276914   5.777   3.776   1.664 -0.1901 -0.0359 -0.0872
18500TIP3    H176915   5.816   3.689   1.650 -0.5082 -0.0540 -0.9139
18500TIP3    H276916   5.693   3.757   1.705 -0.5453 -0.1723 -0.8511
18501TIP3   OH276917   3.388   3.303  16.771 -0.3239 -0.1054 -0.1231
18501TIP3    H176918   3.331   3.371  16.736  1.3854  1.6792  0.3646
18501TIP3    H276919   3.426   3.260  16.694 -0.1226  0.6563 -0.4521
18502TIP3   OH276920   5.536   5.729   6.270  0.7116 -0.4152  0.4592
18502TIP3    H176921   5.620   5.727   6.317  1.1486 -0.8871 -0.3141
18502TIP3    H276922   5.518   5.637   6.250  1.3954 -0.1325 -1.7432
18503TIP3   OH276923   2.473   6.568  12.734  0.2401 -0.2423 -0.2902
18503TIP3    H176924   2.513   6.481  12.728 -1.4962 -1.1905  0.9204
18503TIP3    H276925   2.509   6.605  12.815 -0.4396 -0.6509  0.2157
18504TIP3   OH276926   0.012   5.379   1.597 -0.1464 -0.0781  0.0809
18504TIP3    H176927  -0.078   5.373   1.631  0.1279 -0.4779  0.7380
18504TIP3    H276928   0.036   5.470   1.613 -0.9539  0.4464 -1.4499
18505TIP3   OH276929   1.608   4.842   0.608 -0.0064  0.6691 -0.6040
18505TIP3    H176930   1.653   4.770   0.563 -2.3166 -0.5339 -1.1644
18505TIP3    H276931   1.647   4.844   0.695  0.6550 -0.7668 -0.8360
18506TIP3   OH276932   5.076   3.270   3.586 -0.0258  0.3055  0.4145
18506TIP3    H176933   5.000   3.261   3.643 -0.6191  2.1123 -0.0118
18506TIP3    H276934   5.039   3.272   3.497  0.8007 -1.5892 -0.0100
18507TIP3   OH276935   1.791   2.647   5.561 -0.4563 -0.0336 -0.2648
18507TIP3    H176936   1.711   2.699   5.565 -0.5469 -0.1755 -0.2051
18507TIP3    H276937   1.860   2.708   5.585 -0.7702 -0.4029  1.7699
18508TIP3   OH276938   5.990   5.671  16.896 -0.1513  0.0406  0.3038
18508TIP3    H176939   6.003   5.630  16.981 -0.5098 -0.5136  0.0978
18508TIP3    H276940   5.944   5.605  16.844  2.2979 -0.6372 -1.1439
18509TIP3   OH276941   3.144   5.446   2.527  0.0014 -0.3357 -0.4954
18509TIP3    H176942   3.202   5.516   2.498 -1.0836  0.0359 -1.8726
18509TIP3    H276943   3.084   5.432   2.454 -0.2803 -2.2139  0.0362
18510TIP3   OH276944   6.645   4.539  16.236 -0.0778 -0.3562  0.0751
18510TIP3    H176945   6.648   4.612  16.298  1.3364 -0.5719  0.2921
18510TIP3    H276946   6.712   4.561  16.171  1.9259 -2.4287  1.2963
18511TIP3   OH276947   2.244   3.949  13.025 -0.2150  0.8403 -0.7407
18511TIP3    H176948   2.270   3.867  13.066 -1.0704  0.2525 -1.3177
18511TIP3    H276949   2.256   3.934  12.931  1.2730  1.9970 -0.7629
18512TIP3   OH276950   5.099   3.517   5.081 -0.4660 -0.4671  0.0192
18512TIP3    H176951   5.141   3.433   5.060  0.4443  0.3209 -1.5253
18512TIP3    H276952   5.118   3.530   5.174  0.9711 -1.1371 -0.1399
18513TIP3   OH276953   6.200   6.415   2.434  0.3715  0.1825  0.3150
18513TIP3    H176954   6.129   6.371   2.388 -0.4539 -0.3978  2.0816
18513TIP3    H276955   6.277   6.400   2.379 -0.9748  1.5768 -2.1018
18514TIP3   OH276956   0.698   4.715   4.240 -0.2283 -0.0230 -0.1390
18514TIP3    H176957   0.657   4.753   4.162  0.2786  1.8156  0.4457
18514TIP3    H276958   0.737   4.789   4.286 -0.3558 -1.0792  1.8007
18515TIP3   OH276959   5.219   2.641  11.133  0.2156  0.2679 -0.4716
18515TIP3    H176960   5.158   2.630  11.206  0.6976 -0.1047 -0.1222
18515TIP3    H276961   5.163   2.638  11.055 -0.0798 -1.4179 -0.2332
18516TIP3   OH276962   5.261   0.684   1.339 -0.0838  0.0693  0.0167
18516TIP3    H176963   5.323   0.628   1.293 -0.2477  0.7027 -1.0041
18516TIP3    H276964   5.185   0.687   1.282 -0.6911  0.0867  0.8009
18517TIP3   OH276965   4.509   1.031   4.436 -0.0205 -0.0960  0.3769
18517TIP3    H176966   4.452   1.016   4.512  0.3914 -1.2238  0.4800
18517TIP3    H276967   4.490   0.958   4.377  0.6785  0.0063  0.0181
18518TIP3   OH276968   5.275   1.449  16.543 -0.0164 -0.1964 -0.7781
18518TIP3    H176969   5.218   1.372  16.546  0.1605 -0.3546 -1.3923
18518TIP3    H276970   5.341   1.433  16.611 -1.7865  0.8765  1.3198
18519TIP3   OH276971   3.809   4.487   2.938  0.0350  0.1708 -0.3136
18519TIP3    H176972   3.778   4.577   2.925  1.3873  0.4405 -2.0948
18519TIP3    H276973   3.736   4.432   2.912 -0.0333  0.7876 -1.5037
18520TIP3   OH276974   2.113   4.914  11.459 -0.1038 -1.0958  0.2173
18520TIP3    H176975   2.162   4.849  11.509 -0.3670 -1.0924  0.4807
18520TIP3    H276976   2.181   4.971  11.421  0.2058 -2.2724 -1.0855
18521TIP3   OH276977   0.887   2.507   0.188 -0.2648 -0.2453  0.0495
18521TIP3    H176978   0.863   2.599   0.188 -0.9866 -0.3814 -2.2657
18521TIP3    H276979   0.818   2.464   0.240 -0.5107  0.3654  0.2334
18522TIP3   OH276980   2.135   0.506   2.967 -0.0504 -0.6263 -0.0040
18522TIP3    H176981   2.199   0.564   2.925  0.1845 -1.4022 -0.7398
18522TIP3    H276982   2.059   0.562   2.984  0.5616  0.1476  0.2722
18523TIP3   OH276983   5.331   0.105  16.714  0.3195  0.0776  0.2033
18523TIP3    H176984   5.308   0.084  16.805  2.3188  2.1158  1.2686
18523TIP3    H276985   5.249   0.136  16.676 -0.1698  1.1375  1.9642
18524TIP3   OH276986   2.552   4.494  11.700  0.1045 -0.4939 -0.2891
18524TIP3    H176987   2.572   4.561  11.765 -0.1276 -1.6575  1.0209
18524TIP3    H276988   2.636   4.452  11.682 -0.1675 -1.6828  1.0235
18525TIP3   OH276989   5.287   5.025   4.676  0.0824  0.1631  0.2210
18525TIP3    H176990   5.235   4.966   4.621  0.1774  0.4853 -0.2187
18525TIP3    H276991   5.339   5.075   4.614  0.3382  0.3923  0.6212
18526TIP3   OH276992   5.259   2.551  15.490  0.0590 -0.3024  0.3074
18526TIP3    H176993   5.198   2.493  15.537  0.4327  0.0623  1.2499
18526TIP3    H276994   5.229   2.546  15.399 -0.1823 -1.6494  0.4280
18527TIP3   OH276995   5.744   0.658  12.868 -0.0627 -0.1978  0.4312
18527TIP3    H176996   5.708   0.609  12.794 -0.5729  1.5017 -0.4974
18527TIP3    H276997   5.837   0.637  12.868 -0.3247 -1.4073  0.2730
18528TIP3   OH276998   1.289   2.465   4.156  0.4543 -0.2566  0.0052
18528TIP3    H176999   1.343   2.487   4.232  1.4136 -2.8721  0.1658
18528TIP3    H277000   1.200   2.489   4.182  0.9931  0.4037  1.3069
18529TIP3   OH277001   3.676   0.497  15.343  0.4132 -0.1044 -0.0269
18529TIP3    H177002   3.739   0.534  15.405 -0.1776  2.4481 -0.8136
18529TIP3    H277003   3.608   0.458  15.397 -0.1663  2.1900  1.0357
18530TIP3   OH277004   2.098   2.159   2.574  0.7382 -0.3294 -0.1943
18530TIP3    H177005   2.192   2.143   2.564  0.6266 -1.2320  0.0955
18530TIP3    H277006   2.083   2.243   2.530  1.7282 -0.0261  0.0217
18531TIP3   OH277007   3.786   5.402  14.088  0.1567 -0.0950 -0.0778
18531TIP3    H177008   3.867   5.352  14.088  0.7235  0.8011  0.3839
18531TIP3    H277009   3.717   5.336  14.089  0.8717 -0.8657 -0.6369
18532TIP3   OH277010   0.770   2.440   4.982 -0.8865  0.2478 -0.4808
18532TIP3    H177011   0.738   2.505   4.921 -1.1210  1.9070  1.3295
18532TIP3    H277012   0.812   2.490   5.052  1.2091 -1.6332 -0.2404
18533TIP3   OH277013   6.276   0.857  16.588 -0.0411  0.0805 -0.3968
18533TIP3    H177014   6.290   0.787  16.525 -1.2689 -0.6313  0.0954
18533TIP3    H277015   6.268   0.936  16.534 -2.1909 -0.6595 -1.2869
18534TIP3   OH277016   6.175   1.024   1.039 -0.5918  0.0028  0.0959
18534TIP3    H177017   6.245   1.042   0.976 -0.7107  2.0970  0.4843
18534TIP3    H277018   6.094   1.030   0.988 -0.5728 -1.2846 -0.1198
18535TIP3   OH277019   0.507   2.906  16.466  0.0237 -0.4263 -0.1356
18535TIP3    H177020   0.597   2.930  16.445 -0.7332  1.7466 -1.2425
18535TIP3    H277021   0.476   2.975  16.524 -0.0609 -2.7816  2.8409
18536TIP3   OH277022   2.874   5.472   2.064 -0.2414 -0.1075  0.1101
18536TIP3    H177023   2.864   5.490   1.971  0.8499 -0.1140 -0.0140
18536TIP3    H277024   2.790   5.497   2.102 -0.4489  0.5759 -0.7675
18537TIP3   OH277025   3.837   6.687  16.381 -0.6039  0.0762  0.6118
18537TIP3    H177026   3.742   6.681  16.383 -0.8309  2.5815  1.7419
18537TIP3    H277027   3.855   6.756  16.317  0.2869  0.8423  1.6390
18538TIP3   OH277028   1.078   4.550   3.566 -0.2999  0.1617 -0.7898
18538TIP3    H177029   1.124   4.585   3.489 -0.2936  1.2504 -0.3067
18538TIP3    H277030   1.091   4.616   3.634 -2.8135  0.7029 -0.7232
18539TIP3   OH277031   5.275   4.897   4.937  0.1255 -0.3421  0.1744
18539TIP3    H177032   5.277   4.951   4.858  0.2223  1.5793  1.4517
18539TIP3    H277033   5.208   4.936   4.993  3.1923  1.3104  3.0168
18540TIP3   OH277034   3.316   5.230  12.641  0.9533 -0.3546 -0.0510
18540TIP3    H177035   3.349   5.313  12.607 -0.6350 -0.1736 -1.2756
18540TIP3    H277036   3.238   5.254  12.691 -0.5491 -1.1784 -1.8533
18541TIP3   OH277037   2.750   5.880  10.508 -0.0735 -0.3680  0.1856
18541TIP3    H177038   2.713   5.968  10.505  2.6459  0.9853  1.9760
18541TIP3    H277039   2.845   5.894  10.508  0.6127 -3.5498 -3.4626
18542TIP3   OH277040   5.752   0.938  12.082  0.1403  0.7360  0.3440
18542TIP3    H177041   5.782   0.945  12.173  0.5873  0.9804  0.1780
18542TIP3    H277042   5.747   1.028  12.051 -0.2829  0.6696  0.2099
18543TIP3   OH277043   2.066   1.885   3.828 -0.2169  0.5056  0.2037
18543TIP3    H177044   2.118   1.859   3.752  0.5871 -0.0104  0.9170
18543TIP3    H277045   1.977   1.892   3.795 -0.2246 -1.7071 -0.3548
18544TIP3   OH277046   3.144   0.106   0.122 -0.1253  0.0521  0.1041
18544TIP3    H177047   3.177   0.153   0.046 -2.3500  0.8664 -0.4520
18544TIP3    H277048   3.135   0.016   0.093 -0.0732  0.1741 -0.2893
18545TIP3   OH277049   1.151   3.660   5.196  0.2271 -0.4699 -0.5193
18545TIP3    H177050   1.091   3.728   5.163 -0.9799 -1.5559 -0.6449
18545TIP3    H277051   1.125   3.649   5.287  2.0016  0.8707  0.1947
18546TIP3   OH277052   1.257   4.818  14.460  0.1643 -0.0827 -0.0436
18546TIP3    H177053   1.167   4.850  14.454  0.1960  0.1890  0.7134
18546TIP3    H277054   1.253   4.745  14.521  0.2820 -0.7944 -0.8767
18547TIP3   OH277055   3.045   3.849  15.270 -0.3766  0.1225  0.5060
18547TIP3    H177056   2.951   3.833  15.258 -0.1091 -3.5861  1.8629
18547TIP3    H277057   3.055   3.859  15.365  0.8080 -2.1431  0.6759
18548TIP3   OH277058   0.095   6.576  13.505  0.1267 -0.4538 -0.5624
18548TIP3    H177059   0.041   6.506  13.470  1.0658 -0.8549 -1.2698
18548TIP3    H277060   0.173   6.531  13.539  0.4786  0.1948 -0.5000
18549TIP3   OH277061   4.928   0.139   5.262 -0.0764 -0.1877 -0.4702
18549TIP3    H177062   4.842   0.124   5.301 -0.0075  1.1566  0.2844
18549TIP3    H277063   4.913   0.210   5.199  0.8711  1.9346  1.5231
18550TIP3   OH277064   1.107   1.215  15.011 -0.9691  0.6426 -0.4278
18550TIP3    H177065   1.042   1.270  14.967 -1.5119 -0.5070 -1.1035
18550TIP3    H277066   1.065   1.129  15.018  0.6704 -0.2914 -1.3671
18551TIP3   OH277067   2.685   2.044   1.961 -0.0608  0.1675  0.3296
18551TIP3    H177068   2.744   2.091   2.020  1.1138 -0.0184 -0.6548
18551TIP3    H277069   2.679   2.100   1.884 -0.7192 -0.0846  0.1979
18552TIP3   OH277070   1.749   6.502   5.392  0.1970  0.0290 -0.1683
18552TIP3    H177071   1.711   6.471   5.475 -0.9558 -0.5575 -0.8861
18552TIP3    H277072   1.836   6.464   5.390 -0.2308 -1.0034  0.2061
18553TIP3   OH277073   3.647   4.493  12.269  0.0292 -0.4021  0.0363
18553TIP3    H177074   3.717   4.534  12.219  0.4076 -2.3138 -1.0875
18553TIP3    H277075   3.575   4.483  12.206 -0.2274 -0.9775  0.4106
18554TIP3   OH277076   5.062   0.256  11.749 -0.0883 -0.2803 -0.1232
18554TIP3    H177077   5.121   0.285  11.819 -0.4637 -0.2799  0.1927
18554TIP3    H277078   5.114   0.194  11.698  0.5342  0.5125 -0.4663
18555TIP3   OH277079   5.304   5.536  16.806 -0.3476  0.2003 -0.2280
18555TIP3    H177080   5.225   5.544  16.753 -0.1641  0.6629 -0.4281
18555TIP3    H277081   5.336   5.447  16.787 -0.7490  0.0577 -0.2419
18556TIP3   OH277082   5.766   0.347   3.891 -0.5513 -1.2476  0.6627
18556TIP3    H177083   5.824   0.386   3.956  0.9003 -1.1020 -0.6834
18556TIP3    H277084   5.678   0.371   3.920  0.1962  1.6933  0.7377
18557TIP3   OH277085   3.577   1.401   0.179 -0.7341 -0.1489 -0.2246
18557TIP3    H177086   3.563   1.495   0.196 -1.5216 -0.4741  1.0665
18557TIP3    H277087   3.659   1.382   0.224 -0.2026  0.0588 -1.0869
18558TIP3   OH277088   6.592   2.615  13.161 -0.2847 -0.3562 -0.1481
18558TIP3    H177089   6.632   2.662  13.088  0.1916 -2.5347 -1.3904
18558TIP3    H277090   6.638   2.648  13.239  1.3298 -0.1222 -1.1542
18559TIP3   OH277091   6.578   2.972   1.002 -0.2678  0.3857  0.2161
18559TIP3    H177092   6.670   2.951   1.020 -0.8753 -3.0453 -0.0744
18559TIP3    H277093   6.539   2.984   1.088  0.5233  2.6882  0.3287
18560TIP3   OH277094   6.370   5.538   4.384  0.0405 -0.3022  0.2001
18560TIP3    H177095   6.345   5.570   4.471 -1.2964 -0.8867  0.0456
18560TIP3    H277096   6.355   5.613   4.326  2.4926  0.6565  0.6339
18561TIP3   OH277097   2.472   2.477  13.116  0.9488  0.0283 -0.0708
18561TIP3    H177098   2.485   2.479  13.211 -0.5845  0.4626  0.1594
18561TIP3    H277099   2.383   2.509  13.103  1.4570  0.8958 -1.7367
18562TIP3   OH277100   0.421   0.890  14.691  0.1416 -0.1941  0.1101
18562TIP3    H177101   0.407   0.963  14.752 -0.6882 -1.6739  1.7801
18562TIP3    H277102   0.515   0.891  14.674 -0.0914  2.4692 -1.5514
18563TIP3   OH277103   5.525   0.671   2.562 -0.0484  0.0704  0.1709
18563TIP3    H177104   5.595   0.715   2.514  0.4985 -1.0722 -0.0991
18563TIP3    H277105   5.459   0.652   2.496  1.4796 -3.1472 -0.6345
18564TIP3   OH277106   4.803   1.614   0.193  0.4846 -0.0317  0.1509
18564TIP3    H177107   4.832   1.539   0.140  0.8451  1.2047 -1.5100
18564TIP3    H277108   4.708   1.616   0.181  0.7413  1.5626 -2.4720
18565TIP3   OH277109   3.416   3.181  16.516 -0.1527  0.2587  0.1849
18565TIP3    H177110   3.323   3.206  16.508 -0.1211  0.2254 -0.3720
18565TIP3    H277111   3.460   3.235  16.450 -0.5172 -3.5120 -3.5521
18566TIP3   OH277112   2.209   4.208  12.289 -0.0618  0.0729  0.2499
18566TIP3    H177113   2.124   4.188  12.328  0.7806 -2.4076  0.9721
18566TIP3    H277114   2.267   4.224  12.364  0.1834  1.6933 -0.2322
18567TIP3   OH277115   4.228   0.183  17.165  1.3762  0.3643  0.4852
18567TIP3    H177116   4.261   0.231  17.089  0.5723 -0.2366 -0.2545
18567TIP3    H277117   4.142   0.152  17.139  1.2981 -0.2895  1.4633
18568TIP3   OH277118   3.147   4.838  14.110 -0.1496 -0.3028  0.6916
18568TIP3    H177119   3.208   4.789  14.165  0.4358  0.5783  0.8613
18568TIP3    H277120   3.121   4.912  14.165 -1.0486 -0.4463  0.4598
18569TIP3   OH277121   5.419   2.773   3.303 -0.0274 -0.2792 -0.2228
18569TIP3    H177122   5.474   2.850   3.290 -1.5480  1.1035  0.9573
18569TIP3    H277123   5.416   2.730   3.218  1.1710  0.7685 -0.8209
18570TIP3   OH277124   4.826   2.913   2.333 -0.2128 -0.0006 -0.0658
18570TIP3    H177125   4.870   2.851   2.392 -0.5369 -0.5561 -0.3996
18570TIP3    H277126   4.769   2.858   2.279  0.6576  0.3993 -1.4346
18571TIP3   OH277127   4.125   2.080   5.222 -0.7556  0.2316  0.2649
18571TIP3    H177128   4.097   1.996   5.186 -0.3890  0.3610 -0.3436
18571TIP3    H277129   4.127   2.066   5.317 -3.3134  0.3538  0.4225
18572TIP3   OH277130   6.296   0.024   3.831 -0.0618 -0.0091 -0.2361
18572TIP3    H177131   6.242   0.053   3.905 -4.0699 -3.6541 -1.2856
18572TIP3    H277132   6.329  -0.062   3.859  1.0038 -0.0661 -1.5693
18573TIP3   OH277133   3.894   4.970   5.460 -0.0319  0.4699  0.3972
18573TIP3    H177134   3.963   5.032   5.437  2.1827 -1.6197  1.0282
18573TIP3    H277135   3.852   5.009   5.537  0.7902  1.5377  0.3400
18574TIP3   OH277136   0.029   2.957   5.880  0.0035 -0.2897  0.3189
18574TIP3    H177137  -0.039   2.914   5.931  0.4898 -2.3930 -0.6792
18574TIP3    H277138  -0.014   2.981   5.798  0.3972 -1.5860 -0.2968
18575TIP3   OH277139   4.874   3.600  11.891  0.1572  0.4487 -0.1122
18575TIP3    H177140   4.899   3.588  11.800 -0.8137  0.0341 -0.3358
18575TIP3    H277141   4.837   3.516  11.918  2.0648 -0.0263  1.2151
18576TIP3   OH277142   3.687   3.579  14.600  0.0834  0.1506  0.4300
18576TIP3    H177143   3.627   3.528  14.655  0.2585 -2.2689 -1.4617
18576TIP3    H277144   3.630   3.626  14.539  0.0344 -0.0044  0.3579
18577TIP3   OH277145   1.987   0.307  14.571  0.4998 -0.4002 -0.4634
18577TIP3    H177146   2.050   0.376  14.550 -1.7350  1.4490 -1.5829
18577TIP3    H277147   1.909   0.329  14.519 -0.6867 -3.2184 -0.0544
18578TIP3   OH277148   0.601   0.721   5.535 -0.0959  0.3481 -0.0630
18578TIP3    H177149   0.580   0.811   5.510 -1.9292  0.3009  1.1543
18578TIP3    H277150   0.578   0.669   5.459  1.5675  0.9091 -1.0207
18579TIP3   OH277151   0.363   2.071   0.458 -0.8079 -0.0983 -0.1097
18579TIP3    H177152   0.341   2.125   0.533  2.0993  1.3316 -0.1480
18579TIP3    H277153   0.358   2.131   0.383  0.8532 -0.2489 -0.3797
18580TIP3   OH277154   5.604   6.093  16.688 -0.4242 -0.0447 -0.2996
18580TIP3    H177155   5.508   6.093  16.684 -0.3849  0.0435 -2.1223
18580TIP3    H277156   5.625   6.036  16.761 -1.8749  0.8337  0.8701
18581TIP3   OH277157   6.669   6.073   1.252 -0.2655  0.4483 -0.1030
18581TIP3    H177158   6.576   6.096   1.260  0.0079  1.0108  1.9182
18581TIP3    H277159   6.690   6.030   1.334  1.0092 -0.7353 -1.0139
18582TIP3   OH277160   3.706   4.993  14.511 -0.4052  0.1239 -0.0882
18582TIP3    H177161   3.627   4.994  14.565 -1.1174 -0.2492 -1.0923
18582TIP3    H277162   3.754   4.915  14.538 -0.2268  0.5031  0.7196
18583TIP3   OH277163   4.920   5.773   0.977  0.1119 -0.4536 -0.5851
18583TIP3    H177164   4.870   5.724   1.043 -2.3749 -1.4275 -2.9736
18583TIP3    H277165   5.011   5.750   0.994 -0.4264 -0.7918  2.3364
18584TIP3   OH277166   5.930   5.201   5.326  0.2119 -0.2611 -0.1435
18584TIP3    H177167   5.902   5.120   5.370 -2.2763  0.1137 -0.9093
18584TIP3    H277168   5.963   5.257   5.397  0.2749 -1.2457  0.6282
18585TIP3   OH277169   0.140   6.065   3.766  0.0955 -0.3200 -0.5850
18585TIP3    H177170   0.072   6.131   3.755  1.5150  1.0607 -1.5506
18585TIP3    H277171   0.150   6.056   3.861 -1.1470 -0.2633 -0.4374
18586TIP3   OH277172   3.523   1.722  12.463  0.2973 -0.2582 -0.7224
18586TIP3    H177173   3.537   1.677  12.546  1.0266  0.0710 -0.6633
18586TIP3    H277174   3.428   1.730  12.456  0.2249 -0.4234  0.0030
18587TIP3   OH277175   0.912   5.253   6.152  0.5286  0.1799  0.6359
18587TIP3    H177176   0.932   5.192   6.223  0.1276 -1.1294 -0.3233
18587TIP3    H277177   0.820   5.277   6.165 -0.1808 -1.6609 -0.5142
18588TIP3   OH277178   3.254   2.064   0.873  0.2041 -0.4643 -0.3647
18588TIP3    H177179   3.185   2.095   0.932  0.4759 -0.1932 -0.1796
18588TIP3    H277180   3.253   2.126   0.800  0.3005 -0.4145 -0.3244
18589TIP3   OH277181   2.112   2.101   0.555 -0.1685 -0.0689  0.0075
18589TIP3    H177182   2.206   2.095   0.570 -0.3169  1.2569  1.7190
18589TIP3    H277183   2.074   2.034   0.612 -0.3486  0.5067  0.5691
18590TIP3   OH277184   2.307   0.733  11.262 -0.3166  0.4935  0.9486
18590TIP3    H177185   2.397   0.713  11.285 -0.1572  0.3320  0.2007
18590TIP3    H277186   2.268   0.648  11.240 -0.5280  0.6135  0.8516
18591TIP3   OH277187   2.125   0.455  14.780 -0.0548 -0.0140 -0.6805
18591TIP3    H177188   2.168   0.425  14.701 -0.2316  0.9699 -1.1703
18591TIP3    H277189   2.157   0.397  14.849  0.2903 -0.7213 -1.4239
18592TIP3   OH277190   2.649   1.771   5.077 -0.0457 -0.1218 -0.3318
18592TIP3    H177191   2.616   1.683   5.094 -0.1906  0.0407  0.2414
18592TIP3    H277192   2.570   1.824   5.066 -0.0538  0.4993  2.1824
18593TIP3   OH277193   0.463   2.060   5.782  0.1198 -0.1912  0.5224
18593TIP3    H177194   0.384   2.071   5.834 -0.8359 -2.9260 -0.2081
18593TIP3    H277195   0.525   2.017   5.841 -0.0393 -0.8773  0.1960
18594TIP3   OH277196   2.281   1.528  12.153  0.8040  0.3964  0.5308
18594TIP3    H177197   2.348   1.460  12.147  0.1136 -0.2934  0.4828
18594TIP3    H277198   2.330   1.610  12.156  1.6422 -0.0893  0.3584
18595TIP3   OH277199   2.987   1.902   0.074 -0.3116  0.7531  0.1063
18595TIP3    H177200   2.985   1.816   0.031 -1.2372  1.1654 -0.7233
18595TIP3    H277201   3.009   1.883   0.165  1.5523 -0.1583 -0.4949
18596TIP3   OH277202   6.282   0.721   3.836 -0.1817 -0.1795  0.0457
18596TIP3    H177203   6.233   0.741   3.756  0.2411  0.7712  0.0027
18596TIP3    H277204   6.310   0.807   3.868  2.8915 -0.7251 -0.8304
18597TIP3   OH277205   4.978   1.418  13.430  0.3987  0.4821  0.1288
18597TIP3    H177206   4.888   1.407  13.460  0.1046  0.6891 -0.6616
18597TIP3    H277207   4.984   1.366  13.350  0.2001  2.5107 -1.3081
18598TIP3   OH277208   6.371   4.059  15.920 -0.1634 -0.0849  0.5300
18598TIP3    H177209   6.380   3.966  15.897  0.1767 -0.5596  2.4516
18598TIP3    H277210   6.415   4.068  16.004 -1.1378  1.5999  0.9061
18599TIP3   OH277211   3.817   2.621   0.739 -0.3976  0.7379  0.6546
18599TIP3    H177212   3.838   2.642   0.647 -2.8871 -0.8125 -0.3643
18599TIP3    H277213   3.883   2.557   0.764 -1.1845 -0.8093 -0.9919
18600TIP3   OH277214   2.428   0.244  15.858 -0.1419 -0.5329  0.0362
18600TIP3    H177215   2.399   0.184  15.789  2.1553 -1.7086  0.0100
18600TIP3    H277216   2.486   0.192  15.912  0.0895  1.0745  1.4144
18601TIP3   OH277217   6.430   1.904  16.941  0.5646  0.4258 -0.8304
18601TIP3    H177218   6.472   1.848  16.875 -0.4004  0.1932 -1.2664
18601TIP3    H277219   6.473   1.881  17.023  0.2322 -0.9115 -1.0116
18602TIP3   OH277220   3.017   6.607  15.475 -0.0658  0.4566  0.7508
18602TIP3    H177221   3.076   6.543  15.514  2.9197  2.8640  0.6100
18602TIP3    H277222   3.031   6.598  15.380  0.5487  1.3975  0.7382
18603TIP3   OH277223   2.286   4.318   5.433  0.0619 -0.3945 -0.2406
18603TIP3    H177224   2.363   4.271   5.402  1.0336  0.5184  0.7382
18603TIP3    H277225   2.274   4.389   5.370 -0.9611 -1.4440 -1.2917
18604TIP3   OH277226   0.546   0.106  14.069 -0.0171  0.1651  0.1891
18604TIP3    H177227   0.500   0.084  14.150 -1.2195  1.5651 -0.0683
18604TIP3    H277228   0.542   0.026  14.017  0.0672 -0.5043  1.1722
18605TIP3   OH277229   3.442   5.169   3.848  0.2329  0.1826 -0.5384
18605TIP3    H177230   3.443   5.096   3.787  2.3607 -0.9829  0.7606
18605TIP3    H277231   3.398   5.134   3.926  0.6379  0.5001 -0.1603
18606TIP3   OH277232   4.450   0.221   5.281 -0.5166  0.0851  0.0663
18606TIP3    H177233   4.512   0.181   5.342  1.4731  1.1115 -1.1997
18606TIP3    H277234   4.405   0.146   5.240  3.5205 -1.1387 -2.6815
18607TIP3   OH277235   2.100   1.823   2.158  0.5786 -0.1144  0.2040
18607TIP3    H177236   2.146   1.815   2.242  0.9567 -0.1454 -0.0010
18607TIP3    H277237   2.013   1.788   2.175  0.2894  0.9120  0.8704
18608TIP3   OH277238   3.035   5.136   2.271  0.0162 -0.5358 -0.1294
18608TIP3    H177239   3.011   5.157   2.181  0.4082 -2.4204 -0.7183
18608TIP3    H277240   2.962   5.169   2.324 -0.5084  0.0498 -1.1869
18609TIP3   OH277241   0.194   1.877  12.971  0.1427  0.3899 -0.4714
18609TIP3    H177242   0.285   1.848  12.971 -0.0868 -0.3721 -1.2192
18609TIP3    H277243   0.195   1.960  13.019  1.0348 -0.1801  0.5167
18610TIP3   OH277244   6.730   0.157   4.694  0.5870  0.0670  0.1922
18610TIP3    H177245   6.793   0.169   4.623 -0.2683 -1.6493 -0.9121
18610TIP3    H277246   6.717   0.245   4.730  0.4392  1.1482 -2.3020
18611TIP3   OH277247   0.858   1.175   3.305 -0.1476 -0.0067  0.0913
18611TIP3    H177248   0.782   1.117   3.303 -1.0250  1.1244 -1.7685
18611TIP3    H277249   0.933   1.117   3.298 -0.9591 -0.9975 -0.6130
18612TIP3   OH277250   2.411   5.020  12.000 -0.4618  0.0875  0.2932
18612TIP3    H177251   2.445   4.931  12.012 -2.5587 -0.5779  2.0334
18612TIP3    H277252   2.449   5.070  12.072  1.4134  0.9148 -1.1807
18613TIP3   OH277253   0.962   6.509  17.184  0.0179  0.3514  0.1460
18613TIP3    H177254   0.923   6.596  17.199  1.5572  0.8455  1.6209
18613TIP3    H277255   0.924   6.453  17.251  1.3270  0.6976  1.2260
18614TIP3   OH277256   5.896   3.868  11.654 -0.3306 -0.2892 -0.0019
18614TIP3    H177257   5.840   3.917  11.594  0.9984 -0.7332 -1.7021
18614TIP3    H277258   5.873   3.776  11.638 -0.0397 -0.4059  0.2473
18615TIP3   OH277259   3.343   4.073  12.788 -0.7950 -0.1651 -0.2287
18615TIP3    H177260   3.320   4.003  12.727  0.2228 -1.5320  0.8798
18615TIP3    H277261   3.435   4.091  12.771 -1.3915  2.0113 -1.5111
18616TIP3   OH277262   3.917   5.743  13.944  0.2091 -0.0064 -0.9037
18616TIP3    H177263   3.957   5.663  13.911 -0.0479 -0.2936 -0.5174
18616TIP3    H277264   3.979   5.812  13.921  1.5790 -0.5853  0.8428
18617TIP3   OH277265   1.165   3.888  14.138  0.2420  0.0311  0.3024
18617TIP3    H177266   1.180   3.836  14.059  1.9756  1.4812 -0.3751
18617TIP3    H277267   1.076   3.865  14.165 -0.6331 -0.0656 -2.4052
18618TIP3   OH277268   2.736   1.072  13.406 -0.8263  0.0166  0.0240
18618TIP3    H177269   2.802   1.044  13.342 -1.7396 -4.0327  0.5946
18618TIP3    H277270   2.654   1.070  13.358 -0.9829  2.0024  0.1218
18619TIP3   OH277271   3.875   0.813   2.870  0.6170  0.2784 -0.0641
18619TIP3    H177272   3.793   0.816   2.819 -0.6262 -0.1446  1.8074
18619TIP3    H277273   3.923   0.739   2.833  0.3061  0.6947 -1.3775
18620TIP3   OH277274   4.026   0.875  16.147  0.8168 -0.1072  0.0730
18620TIP3    H177275   3.960   0.854  16.081  1.2732  0.3214 -0.5326
18620TIP3    H277276   3.987   0.945  16.199 -0.0385 -1.2795  1.0509
18621TIP3   OH277277   5.228   3.921  11.582 -0.3237 -0.2213  0.1857
18621TIP3    H177278   5.306   3.954  11.537  0.2752 -0.1022  1.2477
18621TIP3    H277279   5.222   3.976  11.660 -1.6477 -0.0515 -0.0300
18622TIP3   OH277280   1.168   3.367  11.631 -0.1887  0.6338 -0.4172
18622TIP3    H177281   1.134   3.448  11.593  2.4219  2.4921  0.8385
18622TIP3    H277282   1.231   3.335  11.567  0.0545  0.5810 -0.1549
18623TIP3   OH277283   5.273   2.662  13.542 -0.2663 -0.5711  0.6341
18623TIP3    H177284   5.248   2.751  13.566  2.0259  0.6039 -0.9902
18623TIP3    H277285   5.295   2.620  13.625 -0.9094  0.5130  1.3754
18624TIP3   OH277286   4.988   0.124  14.277  0.2797  0.1805  0.3237
18624TIP3    H177287   5.009   0.047  14.330  2.2355 -1.0547 -2.0151
18624TIP3    H277288   5.054   0.123  14.207 -2.0049  1.7506 -2.0552
18625TIP3   OH277289   2.236   3.446   1.291 -0.7333  0.2266  0.3817
18625TIP3    H177290   2.212   3.360   1.259 -1.0476  1.1630 -2.1233
18625TIP3    H277291   2.220   3.505   1.217  1.0304  2.1939  1.4476
18626TIP3   OH277292   3.034   5.434   2.761  0.0968  0.2977 -0.7020
18626TIP3    H177293   3.054   5.436   2.668  1.8224  1.9946 -0.3660
18626TIP3    H277294   3.104   5.381   2.800  0.9448  1.7869 -0.1152
18627TIP3   OH277295   0.031   2.899  12.812  0.1202  0.2310  0.4883
18627TIP3    H177296  -0.029   2.952  12.864 -1.9516  1.0666 -2.4638
18627TIP3    H277297   0.118   2.934  12.833 -0.6965  1.2882  2.4165
18628TIP3   OH277298   0.074   1.920   3.528  0.0109 -0.9135 -0.4067
18628TIP3    H177299  -0.012   1.962   3.523 -0.9694 -2.8172 -0.4862
18628TIP3    H277300   0.094   1.916   3.622  1.4804  2.1923 -0.4590
18629TIP3   OH277301   2.214   2.976   0.729  0.0131 -0.1286 -0.3963
18629TIP3    H177302   2.207   3.039   0.801 -0.6448 -0.1339 -0.4508
18629TIP3    H277303   2.305   2.945   0.733  0.5746  1.3450 -0.8119
18630TIP3   OH277304   1.294   2.862   2.772 -0.1096  0.0198 -0.0535
18630TIP3    H177305   1.228   2.903   2.716 -1.4435 -1.1005  0.6359
18630TIP3    H277306   1.274   2.893   2.860  0.6312  0.0749  0.1058
18631TIP3   OH277307   6.301   4.041  14.877 -0.3738  0.3749  0.3103
18631TIP3    H177308   6.276   4.059  14.787  0.4884  0.8139  0.1530
18631TIP3    H277309   6.241   4.096  14.929 -0.1640  0.9442 -0.0368
18632TIP3   OH277310   5.174   2.038   1.505 -0.4158 -0.1648  0.0358
18632TIP3    H177311   5.089   2.063   1.543  0.9287  0.9850  2.5703
18632TIP3    H277312   5.235   2.102   1.541  1.4173 -0.3709 -2.5070
18633TIP3   OH277313   2.931   0.123  14.118  0.1208  0.3692 -0.1480
18633TIP3    H177314   2.849   0.104  14.072  0.8861  0.8572 -1.8177
18633TIP3    H277315   2.972   0.037  14.132  0.4534  0.2716 -1.5683
18634TIP3   OH277316   5.141   3.410  10.052  0.6290 -0.1109  0.1694
18634TIP3    H177317   5.226   3.376  10.082  0.3678  0.3386  1.5072
18634TIP3    H277318   5.121   3.358   9.974  2.2615 -0.0363 -0.3487
18635TIP3   OH277319   0.070   0.313  13.781  0.1259  0.3754  0.9484
18635TIP3    H177320   0.140   0.248  13.793  0.0083 -0.2617 -1.2534
18635TIP3    H277321   0.115   0.397  13.780  0.6896  0.0795  0.9345
18636TIP3   OH277322   0.673   0.010   1.995 -0.0686 -0.4673 -0.2848
18636TIP3    H177323   0.758  -0.002   2.037  0.6604  0.6730 -1.3680
18636TIP3    H277324   0.657   0.105   1.998 -1.0835 -0.6131 -0.5085
18637TIP3   OH277325   6.518   0.561   5.637  0.4999 -0.9580 -0.0520
18637TIP3    H177326   6.589   0.525   5.691 -0.4600 -1.7248  0.7458
18637TIP3    H277327   6.446   0.500   5.650  0.1685 -1.0414 -2.0841
18638TIP3   OH277328   1.597   2.837   2.486 -0.2996 -0.6620  0.6543
18638TIP3    H177329   1.522   2.777   2.493 -1.7968  0.7461 -1.6062
18638TIP3    H277330   1.589   2.873   2.398  2.6135  0.2137  0.6542
18639TIP3   OH277331   5.475   4.360   3.873  0.1664 -0.2399 -0.0676
18639TIP3    H177332   5.423   4.409   3.937  1.9519  0.0590  1.2374
18639TIP3    H277333   5.556   4.410   3.865  2.3342 -3.1646  1.7689
18640TIP3   OH277334   3.219   6.552  16.505  0.3267  0.2836 -0.2480
18640TIP3    H177335   3.235   6.569  16.412 -0.7251 -0.3844 -0.5689
18640TIP3    H277336   3.201   6.638  16.543 -0.6682  0.4005 -0.9583
18641TIP3   OH277337   2.498   2.467  15.948  0.3185  0.3356 -0.1007
18641TIP3    H177338   2.583   2.509  15.961  0.7705 -0.4839 -0.3701
18641TIP3    H277339   2.472   2.493  15.860 -0.2008  1.4086  0.3389
18642TIP3   OH277340   3.477   4.200  13.969 -0.1418  0.4521 -0.5698
18642TIP3    H177341   3.421   4.266  14.010 -0.7991 -0.1744 -0.4339
18642TIP3    H277342   3.523   4.158  14.041  1.8628  2.1203 -0.7888
18643TIP3   OH277343   0.601   6.245  12.717  0.2054 -0.0652  0.3892
18643TIP3    H177344   0.569   6.292  12.640 -0.9935 -1.5466 -0.0728
18643TIP3    H277345   0.545   6.275  12.789  2.7723  3.0613  1.3157
18644TIP3   OH277346   0.185   0.533   0.659  0.4680  0.2249 -0.5325
18644TIP3    H177347   0.099   0.503   0.687  0.1430  1.6253  0.0440
18644TIP3    H277348   0.245   0.465   0.691 -0.3358 -0.4059 -0.3208
18645TIP3   OH277349   2.568   4.472   0.742  0.3063  0.0420  0.4131
18645TIP3    H177350   2.544   4.526   0.818  1.2799  1.4832 -0.2451
18645TIP3    H277351   2.620   4.531   0.687 -0.9542 -0.7272 -1.7194
18646TIP3   OH277352   5.598   2.915  16.613 -0.1567  0.0689 -0.3458
18646TIP3    H177353   5.657   2.974  16.565  0.5275 -0.0629  0.3129
18646TIP3    H277354   5.611   2.938  16.705  1.6463 -2.3948  0.1169
18647TIP3   OH277355   2.787   4.230  11.205 -0.3875 -0.1198 -0.3556
18647TIP3    H177356   2.842   4.201  11.132  0.4042 -0.9492  0.5474
18647TIP3    H277357   2.729   4.155  11.222 -0.9823  0.2983 -0.5162
18648TIP3   OH277358   6.251   3.078   2.712  0.0952  0.0671  0.6296
18648TIP3    H177359   6.182   3.032   2.665 -1.7323  3.0128  0.1931
18648TIP3    H277360   6.258   3.032   2.796 -1.5414 -1.0588  0.1832
18649TIP3   OH277361   3.694   4.320   0.405 -0.4000  0.4720 -0.1376
18649TIP3    H177362   3.687   4.240   0.353 -0.9945  0.8884 -0.7121
18649TIP3    H277363   3.604   4.340   0.430 -0.2770  1.0951 -0.1949
18650TIP3   OH277364   2.280   6.158   6.319  0.1022 -0.7015  0.0959
18650TIP3    H177365   2.213   6.176   6.385  1.0691  0.2210  0.8389
18650TIP3    H277366   2.297   6.064   6.328  0.0023 -0.6471  0.9476
18651TIP3   OH277367   6.106   5.226  12.302 -0.1349 -0.1727  0.3878
18651TIP3    H177368   6.201   5.235  12.294 -0.2927  0.2392 -1.5362
18651TIP3    H277369   6.079   5.302  12.354  0.4260  0.7671 -0.6413
18652TIP3   OH277370   3.658   4.705   4.805  0.7466 -0.0385  0.2294
18652TIP3    H177371   3.645   4.612   4.784  0.9056 -0.0398  0.1356
18652TIP3    H277372   3.643   4.750   4.721 -0.5047  0.1336  0.5155
18653TIP3   OH277373   4.715   5.593  15.700 -0.4471 -0.1762  0.4847
18653TIP3    H177374   4.694   5.508  15.661  0.5759 -0.7694  1.1604
18653TIP3    H277375   4.687   5.586  15.791 -0.9640  0.4596  0.3809
18654TIP3   OH277376   5.565   4.241  16.194  0.4433 -0.3143  0.0451
18654TIP3    H177377   5.579   4.313  16.132 -2.6768 -1.3625 -2.1187
18654TIP3    H277378   5.547   4.285  16.277  0.0827  1.3693 -0.8777
18655TIP3   OH277379   3.460   2.876  16.955  0.1263  0.6099 -0.4205
18655TIP3    H177380   3.532   2.928  16.919  1.6021 -0.5483  0.7134
18655TIP3    H277381   3.503   2.816  17.016 -1.8505  0.0197  0.4549
18656TIP3   OH277382   2.893   5.808  13.994  0.4865 -0.2978 -0.2038
18656TIP3    H177383   2.834   5.803  14.069  0.7220  0.5179  0.0389
18656TIP3    H277384   2.981   5.802  14.032  0.6435  1.1812 -0.2996
18657TIP3   OH277385   5.835   6.442  16.251 -0.1990 -0.1688 -0.2053
18657TIP3    H177386   5.827   6.498  16.174 -1.7070 -2.2370 -1.6916
18657TIP3    H277387   5.927   6.417  16.252  0.0556  0.6934 -0.7322
18658TIP3   OH277388   1.325   4.107  16.138 -1.0465 -0.0596  0.4754
18658TIP3    H177389   1.251   4.065  16.183 -0.8694 -0.1591  0.6777
18658TIP3    H277390   1.287   4.183  16.095 -1.5554 -0.9235 -0.6697
18659TIP3   OH277391   2.533   5.798   0.503  0.6120  0.2724 -0.6823
18659TIP3    H177392   2.454   5.847   0.480  0.9134  0.9116 -0.3786
18659TIP3    H277393   2.573   5.776   0.418  0.0091 -0.2455 -0.8476
18660TIP3   OH277394   0.767   6.528  11.915  0.0401  0.4398  0.0247
18660TIP3    H177395   0.679   6.490  11.910 -0.1303  0.6234  1.2065
18660TIP3    H277396   0.810   6.501  11.834 -0.3621 -1.5391  0.4082
18661TIP3   OH277397   5.674   5.149   2.292 -0.0676  0.9697 -0.5602
18661TIP3    H177398   5.591   5.104   2.283  0.9494 -1.0784 -0.2588
18661TIP3    H277399   5.730   5.111   2.225  1.5441 -0.0502  1.2540
18662TIP3   OH277400   2.981   1.260  13.353 -0.4386 -0.1752  0.0078
18662TIP3    H177401   2.925   1.226  13.423  1.0716 -0.7808  0.9849
18662TIP3    H277402   2.999   1.183  13.298 -1.2202  0.1964 -0.7930
18663TIP3   OH277403   3.878   0.080  14.657  0.2787  0.0219 -0.1186
18663TIP3    H177404   3.847   0.122  14.737  0.6662 -0.4520  0.2946
18663TIP3    H277405   3.934   0.008  14.688 -1.9317 -2.0745 -0.7165
18664TIP3   OH277406   1.625   2.889   1.390  0.0158 -0.8925  0.4337
18664TIP3    H177407   1.596   2.978   1.370  1.3772 -0.5163  0.0374
18664TIP3    H277408   1.586   2.836   1.320  0.1641 -0.4215 -0.0213
18665TIP3   OH277409   6.228   5.291  13.858  0.1332  0.2912  0.3249
18665TIP3    H177410   6.159   5.246  13.906  0.3314  1.2478  1.5465
18665TIP3    H277411   6.192   5.306  13.771 -0.2040 -1.5475  0.1050
18666TIP3   OH277412   3.480   5.692   5.119 -0.2777  0.0456  0.4120
18666TIP3    H177413   3.500   5.718   5.029  1.3195 -0.6200  0.5323
18666TIP3    H277414   3.466   5.775   5.165 -0.5365  0.4203 -0.3286
18667TIP3   OH277415   0.763   1.163  14.617  0.4264  0.4584  0.1317
18667TIP3    H177416   0.783   1.071  14.633  0.7254  0.6613  0.9666
18667TIP3    H277417   0.743   1.198  14.704 -1.2164  0.8254 -0.3586
18668TIP3   OH277418   5.051   1.487  10.991 -0.5136  0.0362 -0.4596
18668TIP3    H177419   5.114   1.512  10.924  0.2389  0.7164  0.4607
18668TIP3    H277420   5.046   1.392  10.986  1.5966 -0.1653  0.2883
18669TIP3   OH277421   1.889   5.100   1.067 -0.1956 -0.3181 -0.3938
18669TIP3    H177422   1.858   5.073   1.154  0.3781  1.0529  0.2762
18669TIP3    H277423   1.816   5.150   1.031  0.3391  0.9961  0.2541
18670TIP3   OH277424   4.142   5.802   4.311 -0.4155  0.1375 -0.4037
18670TIP3    H177425   4.181   5.765   4.232 -0.3520 -1.6348  0.4129
18670TIP3    H277426   4.216   5.828   4.365 -0.4628  2.0388 -1.1997
18671TIP3   OH277427   5.706   5.516  13.565  0.5941  0.3088 -0.1724
18671TIP3    H177428   5.665   5.446  13.515 -2.4761  1.3307  0.6747
18671TIP3    H277429   5.750   5.471  13.637 -0.0641 -0.8282 -0.4486
18672TIP3   OH277430   5.228   0.772   0.818  0.0674  0.3402  0.5080
18672TIP3    H177431   5.137   0.754   0.843  0.1899 -0.0142  0.7133
18672TIP3    H277432   5.227   0.861   0.784 -0.0590  1.0018  2.1388
18673TIP3   OH277433   6.740   5.582   6.510 -0.4904 -0.4482 -0.1029
18673TIP3    H177434   6.825   5.615   6.479  0.0831 -1.8734 -0.1332
18673TIP3    H277435   6.739   5.490   6.483 -2.2805 -0.3343 -0.5628
18674TIP3   OH277436   2.219   1.366  15.569  0.2423 -0.4425  0.0408
18674TIP3    H177437   2.304   1.410  15.570  1.4774 -2.6016 -1.1420
18674TIP3    H277438   2.196   1.360  15.476 -0.0372 -1.9223  0.1811
18675TIP3   OH277439   5.004   3.578  15.300 -0.3970 -0.2453  0.7818
18675TIP3    H177440   5.046   3.499  15.334  1.2614 -0.5351 -1.7184
18675TIP3    H277441   4.965   3.551  15.217 -2.7391  0.8468  1.4201
18676TIP3   OH277442   2.421   3.412   4.198 -0.0109 -0.4250 -0.1536
18676TIP3    H177443   2.386   3.341   4.145 -0.0603  0.1472 -0.9049
18676TIP3    H277444   2.384   3.398   4.286 -0.0906 -1.2615 -0.3131
18677TIP3   OH277445   2.320   6.770  10.876 -0.7607 -0.3663 -0.3479
18677TIP3    H177446   2.238   6.744  10.835 -1.2701 -0.1415  0.5035
18677TIP3    H277447   2.385   6.708  10.841 -1.2746 -0.5240 -1.0502
18678TIP3   OH277448   5.827   5.864   5.735  0.6661  0.6347  0.2098
18678TIP3    H177449   5.872   5.919   5.672  0.1234 -0.4453 -1.1831
18678TIP3    H277450   5.780   5.800   5.681 -2.8126  1.8685  1.5082
18679TIP3   OH277451   0.519   6.526   3.449 -0.1300  0.0771 -0.0505
18679TIP3    H177452   0.456   6.469   3.405 -0.2396 -0.7889  1.1684
18679TIP3    H277453   0.465   6.588   3.497 -0.0957 -0.8034  1.1732
18680TIP3   OH277454   2.834   4.686   1.684 -0.4984  0.3399  0.1330
18680TIP3    H177455   2.846   4.748   1.756  0.9217 -0.9678  1.0833
18680TIP3    H277456   2.891   4.718   1.614  0.5683 -0.1093  0.7786
18681TIP3   OH277457   2.627   3.184  14.841 -0.0190  0.1949 -0.5505
18681TIP3    H177458   2.716   3.191  14.806 -0.3592 -0.3709 -1.5850
18681TIP3    H277459   2.636   3.127  14.918  0.1351 -2.2786 -2.2873
18682TIP3   OH277460   5.772   2.741   0.100 -0.3654 -0.1562  0.4937
18682TIP3    H177461   5.704   2.702   0.045 -1.2808  1.1379  0.6513
18682TIP3    H277462   5.814   2.667   0.144 -0.6567 -1.0881 -0.7591
18683TIP3   OH277463   3.068   5.595  12.007 -0.3190  0.4551  0.2211
18683TIP3    H177464   3.100   5.580  12.096  0.6434  1.5081  0.0690
18683TIP3    H277465   3.071   5.690  11.996  0.5354  0.2858 -1.2660
18684TIP3   OH277466   3.054   5.629   4.340  0.2324 -0.2227  0.5399
18684TIP3    H177467   2.989   5.696   4.360  0.0633 -0.0324 -0.5622
18684TIP3    H277468   3.130   5.652   4.394  0.2770  1.0298 -0.0326
18685TIP3   OH277469   0.138   6.370  14.789  0.3376 -0.5500 -0.0623
18685TIP3    H177470   0.049   6.401  14.806  0.2222  0.3666 -2.0589
18685TIP3    H277471   0.169   6.338  14.874 -0.6041  2.4131  1.5423
18686TIP3   OH277472   5.158   5.120  15.564  0.6795 -0.0803 -0.2288
18686TIP3    H177473   5.157   5.061  15.639  0.1004 -1.7214 -1.4780
18686TIP3    H277474   5.200   5.199  15.597 -2.9331  0.8254  2.9506
18687TIP3   OH277475   6.556   3.739   6.091  0.8113  0.6900  0.2858
18687TIP3    H177476   6.492   3.722   6.160  0.6540  0.2085  0.0259
18687TIP3    H277477   6.637   3.700   6.124  0.7857  0.6347  0.2822
18688TIP3   OH277478   2.747   3.002  16.237 -0.2837  0.2775  0.8506
18688TIP3    H177479   2.760   2.908  16.228 -0.5371  0.3609 -0.5343
18688TIP3    H277480   2.653   3.015  16.222  0.0600  0.9426 -0.9996
18689TIP3   OH277481   2.809   6.218  16.771  0.0237 -0.2138  0.0808
18689TIP3    H177482   2.773   6.240  16.857 -1.6894  1.5991 -1.0057
18689TIP3    H277483   2.761   6.139  16.745  0.6186 -0.8282  0.8003
18690TIP3   OH277484   0.780   3.728  12.856 -0.2202 -0.3426 -0.3576
18690TIP3    H177485   0.733   3.733  12.772 -0.6238  0.1573 -0.1072
18690TIP3    H277486   0.736   3.657  12.903 -1.0971  0.4639  0.0850
18691TIP3   OH277487   2.673   1.202   0.452 -0.6597  0.1154 -0.2188
18691TIP3    H177488   2.649   1.176   0.541  0.6226  1.4750  0.5613
18691TIP3    H277489   2.732   1.276   0.464  1.1557 -0.9138 -2.1195
18692TIP3   OH277490   4.431   6.169  13.473 -0.2736  0.7168  0.6601
18692TIP3    H177491   4.423   6.103  13.541  2.0122 -0.2372  0.1121
18692TIP3    H277492   4.364   6.234  13.494 -2.2932 -1.4833  1.5028
18693TIP3   OH277493   4.800   2.881   4.013  0.5987 -0.3804  0.2799
18693TIP3    H177494   4.847   2.943   4.068 -0.2395  0.1125  0.4536
18693TIP3    H277495   4.708   2.892   4.037  0.1620  0.1584 -1.5197
18694TIP3   OH277496   3.325   3.142  11.523  0.6948 -0.0578 -0.0694
18694TIP3    H177497   3.335   3.056  11.483  0.3866  0.4504 -1.2955
18694TIP3    H277498   3.413   3.165  11.553  0.5719 -1.2592  1.2921
18695TIP3   OH277499   4.452   6.385   0.609  0.2320 -0.3271 -0.0443
18695TIP3    H177500   4.500   6.342   0.680 -0.0983 -1.9484 -0.7462
18695TIP3    H277501   4.449   6.319   0.539 -1.1503  0.5076 -0.8210
18696TIP3   OH277502   0.467   0.620  15.397  0.3519  0.0834  0.4080
18696TIP3    H177503   0.415   0.580  15.467  0.7371  0.7701  1.1084
18696TIP3    H277504   0.557   0.617  15.430  0.6079 -0.0698 -0.2971
18697TIP3   OH277505   2.813   0.607   2.317  0.1529  0.4058 -0.1049
18697TIP3    H177506   2.805   0.615   2.412  0.8538 -1.8308  0.2109
18697TIP3    H277507   2.730   0.569   2.288  0.3751 -0.0308 -0.1926
18698TIP3   OH277508   5.371   6.292   3.903 -0.0057  0.6625  0.3226
18698TIP3    H177509   5.302   6.341   3.857  0.1659  0.8595  0.2710
18698TIP3    H277510   5.391   6.346   3.980  1.0381  1.2869 -0.3733
18699TIP3   OH277511   5.799   1.821  15.024  0.4557 -0.1106 -0.8470
18699TIP3    H177512   5.783   1.754  14.958 -0.5155 -0.7089 -0.0376
18699TIP3    H277513   5.827   1.773  15.101  0.2502  0.4504 -0.4141
18700TIP3   OH277514   0.688   1.857  16.004 -0.1437 -0.6324  0.3105
18700TIP3    H177515   0.615   1.878  16.062 -0.8977 -0.3252 -0.7282
18700TIP3    H277516   0.765   1.858  16.061 -1.0591 -2.0461  1.6462
18701TIP3   OH277517   5.840   4.798   1.560  0.0777 -0.0853 -0.3787
18701TIP3    H177518   5.794   4.865   1.611  1.2768  1.0265 -0.6833
18701TIP3    H277519   5.850   4.837   1.473  0.3254 -0.8925 -0.7237
18702TIP3   OH277520   2.107   3.284   4.637  0.8039  0.1075  0.1724
18702TIP3    H177521   2.021   3.247   4.622  1.0194 -0.4874  0.3650
18702TIP3    H277522   2.090   3.374   4.666  0.2644  0.0643 -0.0015
18703TIP3   OH277523   5.903   2.486  11.515 -0.2211  0.2516  0.3069
18703TIP3    H177524   5.963   2.489  11.589  0.9171 -0.0613 -0.5731
18703TIP3    H277525   5.908   2.573  11.476 -1.7208  0.7980  1.2604
18704TIP3   OH277526   4.723   3.086  15.015 -0.0729 -0.1168 -0.6006
18704TIP3    H177527   4.817   3.093  14.997  0.2203 -0.7614  0.5670
18704TIP3    H277528   4.684   3.162  14.972  0.8568 -0.3556 -1.9215
18705TIP3   OH277529   0.031   4.576   6.107  0.5351  0.0122 -0.0293
18705TIP3    H177530  -0.011   4.546   6.026 -2.2102  1.5202  0.7335
18705TIP3    H277531   0.089   4.504   6.131 -0.0222 -1.3101 -2.2986
18706TIP3   OH277532   1.657   3.162   1.023 -0.5288 -0.3473 -0.8609
18706TIP3    H177533   1.575   3.160   1.072 -0.1832  0.5246 -0.2101
18706TIP3    H277534   1.720   3.202   1.083  0.0010  0.4066 -1.8715
18707TIP3   OH277535   5.921   4.814   3.342  0.8009 -0.0106 -0.2641
18707TIP3    H177536   5.886   4.867   3.414  0.6347  1.1324 -1.1599
18707TIP3    H277537   5.951   4.733   3.384  2.8030  1.5132  1.4682
18708TIP3   OH277538   4.480   2.114  11.282 -0.3644 -0.1498  0.2451
18708TIP3    H177539   4.398   2.128  11.233 -0.0209  0.0046 -0.2917
18708TIP3    H277540   4.469   2.028  11.323 -0.8717 -0.0500  0.3273
18709TIP3   OH277541   3.954   2.901   3.510  0.0138  0.4939 -0.3352
18709TIP3    H177542   3.945   2.973   3.573  2.3612  0.0820  0.5549
18709TIP3    H277543   3.924   2.824   3.558  0.3764  0.4073 -0.2509
18710TIP3   OH277544   1.845   1.109   3.344  0.1678 -0.0871  0.1733
18710TIP3    H177545   1.929   1.093   3.387 -0.1014 -0.5985  0.5065
18710TIP3    H277546   1.844   1.204   3.330  0.3488  0.0584  1.0972
18711TIP3   OH277547   1.813   2.390   3.796 -0.2127  0.1184  1.0355
18711TIP3    H177548   1.880   2.377   3.729 -2.2932 -1.4717 -0.8812
18711TIP3    H277549   1.848   2.348   3.874  1.3959  0.1455  0.3549
18712TIP3   OH277550   6.044   4.364   1.655  0.3817  0.2825  0.5957
18712TIP3    H177551   6.068   4.411   1.735  0.3978  1.0285  0.1556
18712TIP3    H277552   5.991   4.426   1.605 -1.2376 -0.8100  0.8655
18713TIP3   OH277553   2.029   1.403   3.610  0.5832  0.3760 -0.1763
18713TIP3    H177554   1.949   1.387   3.659  0.5021  0.2528 -0.3477
18713TIP3    H277555   2.030   1.497   3.595  0.6214  0.4175  0.0828
18714TIP3   OH277556   6.044   2.620  16.302  0.3583 -0.0661  0.2957
18714TIP3    H177557   6.119   2.679  16.298  1.3719 -1.3521 -0.3964
18714TIP3    H277558   6.050   2.568  16.222  0.1235 -1.8151  1.3636
18715TIP3   OH277559   5.958   1.654   3.754  0.3538  0.5316  0.4797
18715TIP3    H177560   6.045   1.638   3.717 -0.8518  0.1432 -2.5686
18715TIP3    H277561   5.935   1.742   3.723 -0.9987 -0.0894 -0.3867
18716TIP3   OH277562   6.735   3.809   3.070  0.4321 -0.2609 -0.1466
18716TIP3    H177563   6.701   3.786   3.157  4.0104  1.7783  2.0238
18716TIP3    H277564   6.668   3.865   3.032 -1.9012 -2.3805  0.5292
18717TIP3   OH277565   4.916   5.455   3.577 -0.2403  0.2376  0.2864
18717TIP3    H177566   5.005   5.421   3.585  0.1496  0.8803 -0.9835
18717TIP3    H277567   4.923   5.546   3.605 -0.8039 -0.0782  1.5046
18718TIP3   OH277568   6.351   1.297   3.168 -0.0921 -0.2252 -0.0525
18718TIP3    H177569   6.295   1.225   3.142 -0.6319  1.0245 -2.6360
18718TIP3    H277570   6.301   1.344   3.234 -1.7470  0.3199 -1.6250
18719TIP3   OH277571   2.667   6.239   1.059 -0.5423 -0.0263 -0.3265
18719TIP3    H177572   2.611   6.275   0.990  1.0755 -0.2320 -1.8075
18719TIP3    H277573   2.696   6.154   1.025  1.0867  0.3031  0.1385
18720TIP3   OH277574   1.984   4.187  11.904  0.0000 -0.7023  0.1764
18720TIP3    H177575   2.013   4.096  11.917  0.3777 -0.7475 -0.8997
18720TIP3    H277576   2.064   4.239  11.913 -0.4719 -0.2695  2.4828
18721TIP3   OH277577   2.276   5.044   1.844 -0.5248  0.3459  0.6678
18721TIP3    H177578   2.363   5.006   1.834 -0.6863  0.1681 -0.1382
18721TIP3    H277579   2.227   5.014   1.767 -1.5146 -0.1243  1.4524
18722TIP3   OH277580   1.084   4.727  12.650  0.0694  0.1920  0.1485
18722TIP3    H177581   1.156   4.696  12.706  0.0528  1.0224  0.6389
18722TIP3    H277582   1.036   4.647  12.628  2.1299 -0.6658 -1.6474
18723TIP3   OH277583   6.330   1.935   0.833 -0.0135  0.0419  0.4527
18723TIP3    H177584   6.325   2.030   0.823  2.1926  0.0205 -1.6780
18723TIP3    H277585   6.257   1.913   0.891 -1.3443  2.8649 -0.0124
18724TIP3   OH277586   0.983   2.903  14.767 -0.7353 -0.0494 -0.6320
18724TIP3    H177587   0.994   2.972  14.832 -1.1650 -0.6490  0.0820
18724TIP3    H277588   1.019   2.941  14.687 -0.0108  0.6248 -0.0082
18725TIP3   OH277589   1.108   3.511   0.708 -0.8077 -0.8397 -0.1273
18725TIP3    H177590   1.189   3.509   0.657  0.3698  0.7225  1.5632
18725TIP3    H277591   1.053   3.575   0.663  1.2056  2.4984  1.7265
18726TIP3   OH277592   2.166   2.408  10.977  0.0042 -0.5878 -0.0760
18726TIP3    H177593   2.242   2.420  10.921  1.7352  0.4207  2.3588
18726TIP3    H277594   2.097   2.461  10.936  1.0076 -0.3389 -1.5075
18727TIP3   OH277595   1.634   5.832  10.974 -0.7205  0.1969  0.5273
18727TIP3    H177596   1.540   5.818  10.987 -1.3824  1.7444 -2.0426
18727TIP3    H277597   1.645   5.927  10.980  0.5746  0.0865  0.1055
18728TIP3   OH277598   1.384   4.302  12.709  0.3110  0.4616  0.2897
18728TIP3    H177599   1.318   4.338  12.768  0.6546 -0.1594  1.0745
18728TIP3    H277600   1.363   4.209  12.705 -1.1905  0.8304 -2.5208
18729TIP3   OH277601   5.306   4.786  15.227 -0.1153 -0.4096  0.0453
18729TIP3    H177602   5.228   4.841  15.236  0.4514  0.2560  1.1846
18729TIP3    H277603   5.277   4.709  15.178 -1.5539 -0.3037  0.7012
18730TIP3   OH277604   5.933   0.059  14.227 -0.1936 -0.3194 -0.1823
18730TIP3    H177605   5.909   0.050  14.320  0.6433 -1.3750 -0.0564
18730TIP3    H277606   6.011   0.005  14.217  0.1683  0.3896 -1.3479
18731TIP3   OH277607   4.486   1.756   2.783  0.0092 -0.0846  0.1880
18731TIP3    H177608   4.455   1.846   2.795 -0.5169 -0.3938  1.2635
18731TIP3    H277609   4.431   1.721   2.713  0.4925  0.5436 -0.5267
18732TIP3   OH277610   0.619   1.557   0.268 -0.3253  0.0716 -0.2421
18732TIP3    H177611   0.654   1.547   0.180  0.3068 -0.6722  0.0766
18732TIP3    H277612   0.697   1.569   0.323 -0.6950  0.2823  0.2435
18733TIP3   OH277613   6.106   2.651  10.998  0.1646 -0.0466  0.1653
18733TIP3    H177614   6.074   2.622  10.913  0.2923  0.2380  0.0204
18733TIP3    H277615   6.178   2.592  11.018 -0.0337 -0.2824  0.2003
18734TIP3   OH277616   3.911   2.014  16.988  0.5412 -0.1289 -0.3113
18734TIP3    H177617   3.858   1.994  17.065  0.6426 -1.7626 -0.6288
18734TIP3    H277618   3.975   1.943  16.984  0.0129 -0.5676 -2.3549
18735TIP3   OH277619   0.845   0.928   0.615 -0.2108  0.2362 -0.3224
18735TIP3    H177620   0.879   0.848   0.575  0.2771  0.6415 -0.7332
18735TIP3    H277621   0.910   0.995   0.594 -0.0323  0.5122  0.9841
18736TIP3   OH277622   0.500   2.639  15.505 -0.1597  0.4355 -0.1636
18736TIP3    H177623   0.541   2.583  15.439 -0.9140 -1.0086  0.5506
18736TIP3    H277624   0.435   2.690  15.456 -0.2764 -0.1726 -0.6562
18737TIP3   OH277625   5.589   0.652   0.806  0.0704 -0.1100 -0.2266
18737TIP3    H177626   5.669   0.599   0.809  0.0134 -0.2046 -0.3983
18737TIP3    H277627   5.518   0.588   0.803  0.0010 -0.0244 -0.4187
18738TIP3   OH277628   5.986   3.813   3.204  1.0771  0.5106  0.7974
18738TIP3    H177629   5.932   3.884   3.241 -1.3211 -0.0748 -1.3534
18738TIP3    H277630   5.948   3.733   3.240 -0.7662 -0.0172 -2.0366
18739TIP3   OH277631   3.054   0.462   0.746 -0.2014 -0.1775 -0.1859
18739TIP3    H177632   3.061   0.379   0.794  0.6071 -0.6026 -1.0036
18739TIP3    H277633   2.974   0.452   0.694  0.4021 -0.8590 -1.0117
18740TIP3   OH277634   0.352   4.199  15.832 -0.3148  0.1864  0.1701
18740TIP3    H177635   0.268   4.242  15.814  0.2619  1.1885 -0.1267
18740TIP3    H277636   0.370   4.218  15.924 -1.1050 -1.2571  0.6595
18741TIP3   OH277637   4.965   1.249  12.089  0.1987  0.1569 -0.2810
18741TIP3    H177638   4.914   1.205  12.021 -1.0224  2.7842 -1.1846
18741TIP3    H277639   5.039   1.288  12.043  0.4985  0.2245  0.2463
18742TIP3   OH277640   3.109   2.067  10.648 -0.4239 -0.4842 -0.3658
18742TIP3    H177641   3.037   2.121  10.679  0.8522  0.5711  0.9270
18742TIP3    H277642   3.114   1.995  10.711 -0.2603 -0.4629 -0.3525
18743TIP3   OH277643   1.039   5.674   5.360  0.1698 -0.3128  0.2462
18743TIP3    H177644   1.125   5.685   5.321 -0.3951 -0.3315 -1.0674
18743TIP3    H277645   1.030   5.579   5.370  0.3886 -0.2975  0.6087
18744TIP3   OH277646   3.456   2.278  13.957  0.3698 -0.2772  0.0041
18744TIP3    H177647   3.510   2.346  13.996 -1.2828 -0.3253  2.5763
18744TIP3    H277648   3.486   2.197  13.998 -0.8146 -0.4550  0.5564
18745TIP3   OH277649   2.495   3.686   1.267 -0.3942 -0.2940  0.4697
18745TIP3    H177650   2.423   3.699   1.328 -0.2584  3.3766  0.0688
18745TIP3    H277651   2.466   3.727   1.185  2.0332  1.2828  0.2830
18746TIP3   OH277652   2.847   5.559  14.902  0.0571 -0.3205 -0.0177
18746TIP3    H177653   2.821   5.642  14.863 -1.4737 -0.9362 -0.3856
18746TIP3    H277654   2.922   5.530  14.851  0.0404  0.4169 -0.4613
18747TIP3   OH277655   6.364   4.135  12.320 -0.2833 -0.1856 -0.8993
18747TIP3    H177656   6.397   4.214  12.363  0.3419 -1.2580  0.6738
18747TIP3    H277657   6.391   4.145  12.229  0.2312  1.1783 -0.6254
18748TIP3   OH277658   3.737   2.957   1.290 -0.3658 -0.0713 -0.4241
18748TIP3    H177659   3.656   2.959   1.238 -0.0614 -0.4793 -0.9222
18748TIP3    H277660   3.794   3.022   1.248 -0.1917 -0.2632 -0.4878
18749TIP3   OH277661   6.244   3.674  12.461  0.1086  0.1576 -0.5228
18749TIP3    H177662   6.172   3.724  12.498 -0.7126 -1.0789 -0.3588
18749TIP3    H277663   6.237   3.687  12.366 -0.5420 -0.1950 -0.5299
18750TIP3   OH277664   1.801   6.574  13.850 -0.0937 -0.9418 -0.0102
18750TIP3    H177665   1.760   6.643  13.797  0.1770  0.1498  1.1682
18750TIP3    H277666   1.835   6.512  13.786  0.2763  0.3704 -1.1272
18751TIP3   OH277667   0.110   5.011   6.210  0.0289 -0.0828 -0.2569
18751TIP3    H177668   0.102   4.993   6.116  2.6197  1.3273 -0.8531
18751TIP3    H277669   0.019   5.016   6.241 -0.9178 -0.4428 -2.6985
18752TIP3   OH277670   2.875   3.351  16.796 -0.4377 -0.6341 -0.0283
18752TIP3    H177671   2.918   3.340  16.880  0.2378  0.9675 -0.1227
18752TIP3    H277672   2.936   3.314  16.732  0.1729  0.3208 -0.0212
18753TIP3   OH277673   1.025   0.289  11.539  0.0961  0.1842 -0.0555
18753TIP3    H177674   0.933   0.313  11.526 -0.5566 -1.4266  1.2115
18753TIP3    H277675   1.037   0.211  11.485  0.6591  0.2520 -0.0349
18754TIP3   OH277676   5.355   4.405  15.607 -0.3170 -0.1798 -0.0840
18754TIP3    H177677   5.435   4.353  15.600  0.1952  0.7254 -1.2763
18754TIP3    H277678   5.383   4.495  15.590 -1.4377  0.2784  0.3952
18755TIP3   OH277679   4.770   3.237   4.617 -0.1046 -0.2937 -0.2789
18755TIP3    H177680   4.808   3.152   4.638  2.3695  1.0507  1.1841
18755TIP3    H277681   4.753   3.233   4.523  1.5602 -1.8246 -0.5755
18756TIP3   OH277682   2.110   2.025  12.783  0.3098 -0.1795  0.3973
18756TIP3    H177683   2.193   2.005  12.827  1.0312  0.2058 -0.7469
18756TIP3    H277684   2.043   1.999  12.846  1.2984  0.0877  1.6003
18757TIP3   OH277685   0.061   4.445  16.797  0.1589  0.0063  0.1035
18757TIP3    H177686   0.025   4.521  16.843  0.1574 -0.4866  0.9353
18757TIP3    H277687   0.028   4.453  16.708  1.4801  1.8610 -0.2788
18758TIP3   OH277688   1.826   5.125  15.299  0.2226 -0.3720 -0.2548
18758TIP3    H177689   1.828   5.144  15.393  0.1757 -1.2164 -0.0792
18758TIP3    H277690   1.908   5.161  15.266  0.0339  0.3425  0.0170
18759TIP3   OH277691   5.460   2.662  12.282 -0.4087 -0.2710 -0.4443
18759TIP3    H177692   5.401   2.589  12.302  1.0875 -0.7450  2.8377
18759TIP3    H277693   5.517   2.669  12.359  2.6363  1.3326 -2.6405
18760TIP3   OH277694   3.924   5.025  12.213 -0.2654  0.2250 -0.2325
18760TIP3    H177695   3.894   5.114  12.232  1.0042  0.6160  0.0578
18760TIP3    H277696   3.864   4.969  12.262  0.4263  1.0441  1.6414
18761TIP3   OH277697   6.196   6.751   1.264 -0.3365 -0.1261  0.2639
18761TIP3    H177698   6.216   6.844   1.270 -1.2258  0.1560 -0.7246
18761TIP3    H277699   6.279   6.707   1.284 -0.5393  0.7479  3.6994
18762TIP3   OH277700   0.121   3.919   1.777 -0.9740 -0.0376 -0.3071
18762TIP3    H177701   0.184   3.922   1.705  0.0484  0.5650  0.5771
18762TIP3    H277702   0.091   4.010   1.786 -0.2522  0.1170  0.7228
18763TIP3   OH277703   6.169   4.043  11.404 -0.0166 -0.0186  0.0815
18763TIP3    H177704   6.155   4.130  11.441  1.6563  0.0390  0.6778
18763TIP3    H277705   6.184   4.058  11.311  1.2356  0.4674  0.3437
18764TIP3   OH277706   2.371   0.737   1.212 -0.5642 -0.6745 -0.7183
18764TIP3    H177707   2.426   0.809   1.245 -1.5466 -0.2525  0.0470
18764TIP3    H277708   2.418   0.704   1.136  0.3368  0.2159 -0.5709
18765TIP3   OH277709   2.465   0.014   2.573  0.4811 -0.2211 -0.3599
18765TIP3    H177710   2.504   0.077   2.633 -0.2218  0.2896 -0.4263
18765TIP3    H277711   2.370   0.023   2.587  0.3782 -1.6705  0.0570
18766TIP3   OH277712   6.306   3.928  13.414  0.0582 -0.6471  0.4260
18766TIP3    H177713   6.400   3.928  13.434  1.0278 -0.0778 -3.2292
18766TIP3    H277714   6.295   3.856  13.352 -1.0786  1.4581 -1.9919
18767TIP3   OH277715   2.309   3.706   3.584 -0.9721  0.1829 -0.4887
18767TIP3    H177716   2.343   3.789   3.550 -1.8368  1.3804  1.3673
18767TIP3    H277717   2.381   3.669   3.635 -0.5866 -0.2052 -1.3143
18768TIP3   OH277718   5.317   0.138  12.049  0.0531  0.7851  0.0003
18768TIP3    H177719   5.332   0.161  11.957 -1.4758  1.8846 -0.0106
18768TIP3    H277720   5.234   0.180  12.071 -0.8898 -1.5133  1.1778
18769TIP3   OH277721   5.917   0.772  14.086 -0.1263 -0.2260  0.2430
18769TIP3    H177722   5.935   0.866  14.084  2.4083 -0.6675 -0.5539
18769TIP3    H277723   5.860   0.757  14.011 -0.3043  0.6180  0.1992
18770TIP3   OH277724   5.004   3.106  15.374  0.4214  0.5455  0.3059
18770TIP3    H177725   5.090   3.065  15.376  0.3222  0.3156 -0.0024
18770TIP3    H277726   5.018   3.185  15.321 -0.3817 -1.5191 -3.3318
18771TIP3   OH277727   5.027   5.481  13.625  0.6253  0.2366  0.2680
18771TIP3    H177728   5.033   5.405  13.568 -0.8319  0.2641  0.0421
18771TIP3    H277729   5.102   5.473  13.684  0.9385 -0.9441 -0.2635
18772TIP3   OH277730   1.722   1.641   1.309 -0.0831 -0.0557 -0.1640
18772TIP3    H177731   1.636   1.602   1.320 -0.2635  0.3632 -0.0700
18772TIP3    H277732   1.724   1.671   1.219 -0.3147  0.5929  0.0420
18773TIP3   OH277733   3.121   3.195   2.687 -0.2499 -0.3285  0.2688
18773TIP3    H177734   3.066   3.134   2.639 -2.2418  0.1084  1.8785
18773TIP3    H277735   3.104   3.280   2.646 -0.4005 -0.2729  0.4446
18774TIP3   OH277736   1.369   6.353   4.832  0.2320 -0.0523 -0.5190
18774TIP3    H177737   1.398   6.263   4.843 -1.5300 -0.6383 -0.4605
18774TIP3    H277738   1.371   6.390   4.920 -0.6398 -0.5538 -0.2797
18775TIP3   OH277739   5.707   4.907   2.902 -0.7448  0.1556 -0.1800
18775TIP3    H177740   5.737   4.867   2.821 -0.6708 -0.9408  0.3719
18775TIP3    H277741   5.614   4.885   2.907 -0.5917 -0.4194  0.3765
18776TIP3   OH277742   2.357   4.576  11.507  0.1756  0.0435 -0.0861
18776TIP3    H177743   2.402   4.600  11.427 -0.4613  0.1823 -0.4123
18776TIP3    H277744   2.426   4.547  11.566  0.4717 -2.2108 -1.4307
18777TIP3   OH277745   4.235   6.107  14.514 -0.4480  0.4950 -0.4967
18777TIP3    H177746   4.266   6.184  14.466  2.0604 -1.0618 -1.6150
18777TIP3    H277747   4.263   6.122  14.605 -1.4185  1.5654 -0.3547
18778TIP3   OH277748   6.599   5.346  16.946 -0.4206 -0.1778  0.5304
18778TIP3    H177749   6.616   5.284  17.017  1.6663 -0.0383  0.1935
18778TIP3    H277750   6.593   5.292  16.868 -1.0789 -0.1624  0.5589
18779TIP3   OH277751   6.049   3.354  14.044  0.4070  0.1400 -0.2987
18779TIP3    H177752   6.056   3.392  14.132 -0.5595 -0.3028 -0.0186
18779TIP3    H277753   5.999   3.419  13.994  1.2423  0.5449 -0.6239
18780TIP3   OH277754   2.726   2.016  15.057  0.1151  0.3464  0.4801
18780TIP3    H177755   2.795   2.044  14.998  1.7678 -1.4502  1.4479
18780TIP3    H277756   2.673   1.955  15.005  1.0845 -0.6040  0.5642
18781TIP3   OH277757   4.918   2.729   2.506  0.2592 -0.0790 -0.6517
18781TIP3    H177758   4.988   2.663   2.498  0.0148 -0.3807 -0.3411
18781TIP3    H277759   4.908   2.742   2.601 -0.6556 -0.6401 -0.6587
18782TIP3   OH277760   5.622   0.683   1.605 -0.7770  0.4526  0.5806
18782TIP3    H177761   5.529   0.706   1.603 -0.6105  1.1564  0.6737
18782TIP3    H277762   5.660   0.731   1.531 -0.7247 -0.9468 -0.3357
18783TIP3   OH277763   6.074   5.387  14.962  0.0990  0.1355 -0.1243
18783TIP3    H177764   6.042   5.478  14.964  0.8175  0.4191 -0.9124
18783TIP3    H277765   6.081   5.362  15.054  0.8336  1.2197  0.1294
18784TIP3   OH277766   3.390   6.595   3.955  0.0672  0.5111 -0.2599
18784TIP3    H177767   3.298   6.602   3.981  0.4651 -0.0158  1.4346
18784TIP3    H277768   3.395   6.642   3.872 -1.8949 -0.2102 -0.8313
18785TIP3   OH277769   2.562   5.517   2.933  0.0924 -0.8173 -0.6265
18785TIP3    H177770   2.513   5.513   3.015  0.2495 -0.4949 -0.5102
18785TIP3    H277771   2.562   5.610   2.910  0.3183 -0.8650 -0.8256
18786TIP3   OH277772   5.228   1.882  10.663 -0.2470  0.1854  0.7299
18786TIP3    H177773   5.268   1.968  10.665  0.1053  0.1037 -1.0091
18786TIP3    H277774   5.298   1.821  10.687  0.4194  0.1417 -1.1753
18787TIP3   OH277775   1.880   5.879   3.557  0.5760 -0.3047  0.3864
18787TIP3    H177776   1.795   5.836   3.550  0.7472 -1.0982  2.4688
18787TIP3    H277777   1.859   5.973   3.562  0.0068 -0.3151 -1.1488
18788TIP3   OH277778   3.686   0.693  12.118  0.0990  0.1043  0.7287
18788TIP3    H177779   3.721   0.770  12.074 -0.1357 -0.1277  0.1305
18788TIP3    H277780   3.718   0.700  12.208  0.0871  0.8893  0.6746
18789TIP3   OH277781   0.223   5.484   3.375 -0.5960 -0.2632  0.1773
18789TIP3    H177782   0.291   5.447   3.318 -0.7994  1.3871 -1.2368
18789TIP3    H277783   0.141   5.463   3.331 -0.9379 -1.1756  1.2298
18790TIP3   OH277784   4.981   0.412   1.014 -0.0343  1.0132 -0.3930
18790TIP3    H177785   5.005   0.438   0.925 -0.9745  1.4675 -0.5245
18790TIP3    H277786   4.896   0.453   1.029 -1.3352 -1.4623 -0.4035
18791TIP3   OH277787   1.166   6.497   3.111  0.1450  0.2678 -0.4644
18791TIP3    H177788   1.085   6.457   3.081 -0.2556  1.2974 -0.8302
18791TIP3    H277789   1.141   6.587   3.132  0.9653  0.2777  0.5048
18792TIP3   OH277790   3.619   1.518   0.919 -0.1254 -0.5136 -0.0684
18792TIP3    H177791   3.673   1.491   0.993 -0.5244  0.5160  0.6215
18792TIP3    H277792   3.612   1.440   0.865  1.9054 -0.7489 -0.0948
18793TIP3   OH277793   6.307   0.520  11.655 -0.9706 -0.3651 -0.0950
18793TIP3    H177794   6.367   0.528  11.729  0.5445  0.3825 -1.3394
18793TIP3    H277795   6.323   0.433  11.620 -1.4440 -0.5934  0.2558
18794TIP3   OH277796   3.645   0.041  15.232  0.4936  0.0988 -0.1732
18794TIP3    H177797   3.636  -0.043  15.189  0.6137 -0.7088  1.3194
18794TIP3    H277798   3.560   0.083  15.222  0.3869 -0.2545 -0.7943
18795TIP3   OH277799   1.909   3.666  16.920 -0.3888 -0.4021  0.4175
18795TIP3    H177800   1.816   3.688  16.917 -0.7078 -1.6630  0.3577
18795TIP3    H277801   1.917   3.590  16.863  0.7077 -0.2230  0.3245
18796TIP3   OH277802   1.469   0.478  11.446 -0.3121 -0.3332  0.5426
18796TIP3    H177803   1.491   0.560  11.490 -0.5128 -0.2369  0.4676
18796TIP3    H277804   1.549   0.454  11.398 -0.4705  0.1892  0.0033
18797TIP3   OH277805   3.229   3.508  16.684  0.3907 -0.4033  0.3486
18797TIP3    H177806   3.146   3.481  16.643 -0.7435 -0.3447  2.4596
18797TIP3    H277807   3.234   3.602  16.669 -0.3027 -0.2855  0.8031
18798TIP3   OH277808   1.745   4.134  17.072 -0.0562  0.0439 -0.0833
18798TIP3    H177809   1.738   4.213  17.018  1.0949  1.1207  1.2649
18798TIP3    H277810   1.654   4.109  17.090 -0.4383  1.0842 -0.4872
18799TIP3   OH277811   1.975   4.453   4.887 -0.2261  1.1144 -0.1825
18799TIP3    H177812   1.896   4.459   4.942 -3.3401 -1.9828 -3.7053
18799TIP3    H277813   2.010   4.366   4.906 -0.9687  0.2597 -2.3668
18800TIP3   OH277814   6.552   1.023  14.688  0.2041  0.0653  0.0466
18800TIP3    H177815   6.467   1.012  14.729  0.4043  0.4351  0.5668
18800TIP3    H277816   6.533   1.071  14.607 -0.4029 -2.1173 -1.1732
18801TIP3   OH277817   2.671   4.001   4.093 -0.3154 -0.3822 -0.1734
18801TIP3    H177818   2.638   4.074   4.145 -0.5109 -0.8570  0.3750
18801TIP3    H277819   2.593   3.959   4.057 -0.2526 -0.8409  0.2210
18802TIP3   OH277820   0.185   0.103   4.869  0.4123 -0.3300 -0.4081
18802TIP3    H177821   0.093   0.111   4.844 -0.0855  0.7323  1.6142
18802TIP3    H277822   0.218   0.030   4.815 -1.7711 -1.2059 -0.6496
18803TIP3   OH277823   3.192   2.384   5.236 -0.1676  0.4361 -0.1987
18803TIP3    H177824   3.252   2.445   5.279  1.5438 -1.7400  0.7104
18803TIP3    H277825   3.243   2.347   5.164 -0.9735 -0.3070 -0.4055
18804TIP3   OH277826   5.380   3.793   4.183 -0.2899  0.1266  0.6085
18804TIP3    H177827   5.434   3.739   4.126  1.1029  1.3495  0.6884
18804TIP3    H277828   5.351   3.735   4.253  0.5427 -0.6749  0.2963
18805TIP3   OH277829   4.237   0.190   5.552 -0.3047  0.0488  0.3328
18805TIP3    H177830   4.263   0.196   5.460  0.5544 -1.5238  0.4369
18805TIP3    H277831   4.316   0.213   5.600 -0.2265 -0.8798  0.6637
18806TIP3   OH277832   0.837   4.357  11.791  0.0635  0.3846  0.2643
18806TIP3    H177833   0.805   4.361  11.881 -0.6734 -0.9675  0.0911
18806TIP3    H277834   0.905   4.424  11.787 -1.5797  2.2225  1.1340
18807TIP3   OH277835   3.483   6.414   1.405  0.5321 -0.0303 -0.2103
18807TIP3    H177836   3.511   6.389   1.317 -0.1892 -2.1973  0.1175
18807TIP3    H277837   3.392   6.440   1.395 -0.0984 -1.9277  0.0784
18808TIP3   OH277838   0.621   2.478  12.881  0.1152 -0.1498  0.3375
18808TIP3    H177839   0.590   2.389  12.895 -0.7257 -0.2023 -1.6224
18808TIP3    H277840   0.694   2.469  12.821 -1.1516  0.5786 -1.3848
18809TIP3   OH277841   4.365   3.477   2.887  0.1408 -0.0508  0.4840
18809TIP3    H177842   4.456   3.453   2.870 -0.2416 -0.5741 -0.9715
18809TIP3    H277843   4.339   3.420   2.960  1.1319  0.5209  1.3122
18810TIP3   OH277844   0.098   5.862   5.121  0.3814 -0.2559 -0.4019
18810TIP3    H177845   0.102   5.951   5.085  0.4324 -0.4331 -0.8437
18810TIP3    H277846   0.164   5.813   5.071  1.2575 -0.2471  0.7005
18811TIP3   OH277847   6.726   4.670  12.491 -0.1370  0.2446  0.2263
18811TIP3    H177848   6.726   4.686  12.396 -3.6131  0.2869  0.1010
18811TIP3    H277849   6.736   4.576  12.499  0.9833  0.3241 -0.1211
18812TIP3   OH277850   1.200   2.896  12.771 -0.0377  0.5214 -0.0187
18812TIP3    H177851   1.118   2.911  12.724 -0.3020 -0.2524  0.1829
18812TIP3    H277852   1.220   2.980  12.813  0.2286  1.2443 -1.5288
18813TIP3   OH277853   6.484   4.603   4.106 -0.2448  0.6028 -0.1302
18813TIP3    H177854   6.395   4.579   4.132  0.8596  0.0668  3.7789
18813TIP3    H277855   6.503   4.683   4.156  1.6481  0.3916 -0.4332
18814TIP3   OH277856   4.551   4.595   1.937  0.2554 -0.2185  0.1049
18814TIP3    H177857   4.577   4.509   1.904  0.4412  0.7017 -2.3866
18814TIP3    H277858   4.593   4.601   2.023  0.7522 -2.3478  0.0690
18815TIP3   OH277859   0.481   5.875  14.835  0.3852 -0.0747  0.9010
18815TIP3    H177860   0.448   5.960  14.864  1.0877  0.5543 -0.0825
18815TIP3    H277861   0.575   5.889  14.822  0.3365 -0.7189 -0.2575
18816TIP3   OH277862   6.290   1.644   1.510  0.3986 -0.2215 -0.2846
18816TIP3    H177863   6.382   1.646   1.534  0.2007 -1.7598  0.7417
18816TIP3    H277864   6.289   1.628   1.416  1.1642  0.9964 -0.5184
18817TIP3   OH277865   0.928   5.020   5.100  0.4658  0.3895  0.3867
18817TIP3    H177866   1.014   4.983   5.083  1.0312  1.6739  0.3173
18817TIP3    H277867   0.867   4.947   5.087  1.4612 -0.3209 -0.4393
18818TIP3   OH277868   5.783   4.824  16.635  0.3932 -0.2568 -0.1646
18818TIP3    H177869   5.825   4.791  16.714  0.2464 -0.2602 -0.0865
18818TIP3    H277870   5.714   4.883  16.667  0.7532  0.2454 -0.3028
18819TIP3   OH277871   6.386   0.886   2.133  0.4590 -0.0782  0.6427
18819TIP3    H177872   6.338   0.884   2.216 -1.5894  0.9864 -0.4214
18819TIP3    H277873   6.431   0.970   2.134 -0.6352  0.5458  0.1828
18820TIP3   OH277874   3.254   0.418  12.079  0.2579 -0.1290 -0.0239
18820TIP3    H177875   3.324   0.469  12.119 -0.6906  0.6190  0.7506
18820TIP3    H277876   3.286   0.396  11.992  0.4572  2.4050 -0.6597
18821TIP3   OH277877   6.378   4.272   6.361  0.2757  0.0422 -0.0835
18821TIP3    H177878   6.393   4.338   6.430 -1.6982 -0.2204  0.6743
18821TIP3    H277879   6.306   4.219   6.395  1.4554 -2.1919 -0.9294
18822TIP3   OH277880   3.754   3.304   3.264 -0.0803 -0.1710  0.1740
18822TIP3    H177881   3.795   3.221   3.292  0.1156  0.4109  1.7505
18822TIP3    H277882   3.820   3.346   3.209 -0.2319 -1.1166 -0.7476
18823TIP3   OH277883   2.822   4.770   0.417  0.1882  0.1509 -0.2686
18823TIP3    H177884   2.823   4.859   0.453  1.7763  1.1311 -2.4827
18823TIP3    H277885   2.891   4.724   0.465 -1.7701 -0.5638  2.1237
18824TIP3   OH277886   5.763   4.499   4.795 -0.1521 -0.8239 -0.0656
18824TIP3    H177887   5.825   4.427   4.782  0.1388 -0.7279  0.7697
18824TIP3    H277888   5.723   4.483   4.880 -1.5873 -1.0983 -0.7479
18825TIP3   OH277889   6.423   4.090  11.967  0.2139  0.0701  0.3649
18825TIP3    H177890   6.386   4.019  11.914  0.6965 -0.5846  0.8920
18825TIP3    H277891   6.418   4.167  11.910  2.0557 -0.8859 -1.2213
18826TIP3   OH277892   2.901   5.861   4.708  0.1530 -0.4696 -0.3751
18826TIP3    H177893   2.844   5.808   4.652  2.2203 -1.6495 -1.4805
18826TIP3    H277894   2.917   5.941   4.657 -1.3413  0.3852  0.4243
18827TIP3   OH277895   6.556   5.834   4.300  0.1803  0.4641 -0.3546
18827TIP3    H177896   6.518   5.810   4.216  0.0267  0.0798 -0.1773
18827TIP3    H277897   6.634   5.884   4.277  0.6237 -0.3810 -0.7390
18828TIP3   OH277898   6.139   4.769  14.243  0.5487 -0.2434  0.0559
18828TIP3    H177899   6.053   4.730  14.261 -0.1266  0.4165 -1.5886
18828TIP3    H277900   6.171   4.796  14.329 -0.1564 -1.9265  0.9090
18829TIP3   OH277901   4.334   1.328   0.695  0.7266 -0.0668 -0.1694
18829TIP3    H177902   4.274   1.257   0.670  2.3910 -1.0149 -1.6248
18829TIP3    H277903   4.421   1.297   0.671  1.6930  1.8649  0.5699
18830TIP3   OH277904   4.805   0.335   3.018 -0.2209  0.7933  0.0368
18830TIP3    H177905   4.838   0.266   3.076  0.0562  1.3302  0.5272
18830TIP3    H277906   4.883   0.379   2.986 -0.1003 -1.5191 -3.3956
18831TIP3   OH277907   2.293   1.153  14.409 -0.0265 -0.2212  0.3812
18831TIP3    H177908   2.355   1.179  14.477 -0.2804  0.8807  0.2093
18831TIP3    H277909   2.217   1.209  14.423  0.2373  0.6566 -1.3081
18832TIP3   OH277910   6.603   4.459   0.679  0.0173  0.6679  0.0237
18832TIP3    H177911   6.643   4.493   0.599  0.1235  0.7545  0.1126
18832TIP3    H277912   6.677   4.447   0.739  0.1822 -1.1148 -0.4998
18833TIP3   OH277913   6.361   1.523  14.418  0.6490 -0.1984 -0.0659
18833TIP3    H177914   6.401   1.609  14.430 -0.8589  0.4852  0.2545
18833TIP3    H277915   6.302   1.533  14.344  0.1454 -0.8460  0.2349
18834TIP3   OH277916   5.387   5.863  12.714  0.5539  0.0375  0.4116
18834TIP3    H177917   5.419   5.773  12.728  2.7655  0.6481 -0.3621
18834TIP3    H277918   5.426   5.890  12.631 -1.6978  1.0701 -0.3812
18835TIP3   OH277919   1.906   2.564  12.541 -0.1022  0.5645  0.1740
18835TIP3    H177920   1.832   2.618  12.512 -0.3313 -0.2360 -0.7684
18835TIP3    H277921   1.866   2.480  12.565  0.5661 -0.1007 -0.9786
18836TIP3   OH277922   0.289   4.633   5.036  0.2365  0.2407  0.2668
18836TIP3    H177923   0.248   4.599   5.116  0.1006 -0.6268 -0.1577
18836TIP3    H277924   0.267   4.726   5.035 -3.3034 -0.4767 -0.8557
18837TIP3   OH277925   3.873   6.661  11.622  0.0315 -0.0675  0.2082
18837TIP3    H177926   3.968   6.649  11.619 -0.0574 -0.6974 -0.3506
18837TIP3    H277927   3.838   6.576  11.594 -0.7180 -0.4419  2.1377
18838TIP3   OH277928   3.751   0.617  14.666  0.1758  0.2277  0.1053
18838TIP3    H177929   3.742   0.605  14.761 -3.9996  0.4430 -0.0596
18838TIP3    H277930   3.753   0.712  14.654 -1.6634  0.2917 -0.0246
18839TIP3   OH277931   0.055   6.655  10.852 -0.5998  0.0520  0.2399
18839TIP3    H177932   0.117   6.690  10.788 -2.2636 -0.8424 -1.9880
18839TIP3    H277933   0.052   6.721  10.922 -0.0210  1.9637 -1.4463
18840TIP3   OH277934   5.827   1.984   0.878 -0.0329  0.1312  0.0124
18840TIP3    H177935   5.788   2.034   0.807 -0.2191  0.4135  0.3094
18840TIP3    H277936   5.753   1.962   0.935  0.0366 -0.5275 -0.1405
18841TIP3   OH277937   3.883   2.350  13.151  0.4337 -0.0971 -0.1504
18841TIP3    H177938   3.802   2.316  13.191 -1.0047  1.1653 -1.8211
18841TIP3    H277939   3.896   2.296  13.073  1.2520 -0.3256  0.1373
18842TIP3   OH277940   1.122   4.764  13.599  0.3009 -0.6061  0.0353
18842TIP3    H177941   1.117   4.704  13.524 -0.5404 -0.8953  0.3111
18842TIP3    H277942   1.213   4.756  13.629  0.2266 -1.6995  0.0221
18843TIP3   OH277943   5.155   3.084   5.780 -0.1736 -0.3817  0.5771
18843TIP3    H177944   5.075   3.132   5.801 -0.4439 -0.3083 -0.5526
18843TIP3    H277945   5.191   3.060   5.865 -1.5363 -0.6494  1.1139
18844TIP3   OH277946   1.979   3.958   0.151 -0.3940  0.5502 -0.5137
18844TIP3    H177947   1.953   3.954   0.059 -1.0377  2.2706 -0.4369
18844TIP3    H277948   1.896   3.964   0.199 -0.2306 -2.5518  0.4155
18845TIP3   OH277949   5.848   4.508   3.628  0.5803 -0.0652  0.1814
18845TIP3    H177950   5.831   4.481   3.537  0.1262 -1.8927  0.7605
18845TIP3    H277951   5.937   4.541   3.627  1.7794 -3.0251 -0.3755
18846TIP3   OH277952   5.024   6.333   5.607  0.3005 -0.8481 -0.1686
18846TIP3    H177953   4.945   6.297   5.647 -0.7716 -0.0107 -1.4499
18846TIP3    H277954   5.056   6.398   5.670 -1.7571  0.9671 -0.8631
18847TIP3   OH277955   5.896   4.398  12.278  0.4168 -0.1384 -0.1277
18847TIP3    H177956   5.969   4.390  12.339 -0.0733 -1.0030  0.3630
18847TIP3    H277957   5.918   4.474  12.224  1.4632 -0.1281  0.2934
18848TIP3   OH277958   6.696   3.764  13.780 -0.2471  0.4444  0.4145
18848TIP3    H177959   6.725   3.826  13.847 -0.5439  2.0142 -0.8557
18848TIP3    H277960   6.661   3.818  13.710 -1.7144 -1.2094 -0.2286
18849TIP3   OH277961   5.084   4.261   4.334 -0.2636  0.0789  0.2055
18849TIP3    H177962   4.992   4.286   4.345  0.0471  0.8071  1.3829
18849TIP3    H277963   5.126   4.293   4.414  1.1803  0.5612 -0.7200
18850TIP3   OH277964   0.762   0.576  15.488 -0.3159 -0.2297  0.0627
18850TIP3    H177965   0.850   0.602  15.460 -0.1070 -0.2290  0.7021
18850TIP3    H277966   0.761   0.481  15.478  0.2146 -0.3847  1.2752
18851TIP3   OH277967   4.278   3.123   6.649  0.1794 -0.1175 -0.1311
18851TIP3    H177968   4.202   3.119   6.707  0.0929 -0.3929 -0.2605
18851TIP3    H277969   4.252   3.071   6.573  0.3866  0.0358 -0.3054
18852TIP3   OH277970   0.650   5.965  13.202 -0.0722  0.4629 -0.0816
18852TIP3    H177971   0.675   5.959  13.294 -0.1260 -0.2611 -0.1108
18852TIP3    H277972   0.556   5.946  13.201 -0.2434  1.2771 -0.1949
18853TIP3   OH277973   0.328   4.151   3.919  0.0947 -0.0020  0.0055
18853TIP3    H177974   0.333   4.094   3.995  2.2961 -1.8753 -1.3872
18853TIP3    H277975   0.377   4.229   3.944 -1.1978  0.4294  1.2591
18854TIP3   OH277976   2.053   6.654   2.507  0.4543  0.0132  0.0141
18854TIP3    H177977   2.056   6.567   2.548 -1.5542  0.6502  1.7076
18854TIP3    H277978   2.086   6.714   2.574  1.3011  0.6521 -0.9406
18855TIP3   OH277979   6.022   5.400   2.174  0.1493 -0.2625  0.0046
18855TIP3    H177980   5.996   5.400   2.266 -1.5302  0.3886 -0.4330
18855TIP3    H277981   5.973   5.328   2.135 -0.8206  0.7815 -0.7798
18856TIP3   OH277982   3.387   6.638   2.284 -0.3596 -0.1491 -0.4949
18856TIP3    H177983   3.346   6.721   2.262 -0.9498 -0.8958 -2.5001
18856TIP3    H277984   3.356   6.618   2.372 -0.4456  1.5862 -0.1034
18857TIP3   OH277985   3.375   5.745   2.169 -0.3772  0.1181 -0.2644
18857TIP3    H177986   3.307   5.681   2.151 -0.1487 -0.5207  1.0498
18857TIP3    H277987   3.327   5.826   2.188 -0.7310 -0.1338 -0.0872
18858TIP3   OH277988   4.046   3.725  16.258  0.1540  0.1445 -0.3498
18858TIP3    H177989   4.063   3.716  16.164 -0.6019  1.9722 -0.7003
18858TIP3    H277990   4.130   3.704  16.300  0.5509 -0.4970 -1.4280
18859TIP3   OH277991   3.575   1.427  15.627 -0.3928  0.3637  0.1404
18859TIP3    H177992   3.508   1.378  15.580 -0.0943 -0.3424  0.4343
18859TIP3    H277993   3.529   1.503  15.663 -1.3146 -0.7114  1.3325
18860TIP3   OH277994   0.114   4.321   3.957  0.2651 -0.0615  0.3508
18860TIP3    H177995   0.057   4.267   4.012  0.7164 -2.0561 -1.0181
18860TIP3    H277996   0.186   4.263   3.934  1.6376  1.6686  0.0897
18861TIP3   OH277997   4.731   6.132  16.808 -0.3440 -0.3323  0.0882
18861TIP3    H177998   4.697   6.221  16.798 -2.5814 -0.9733  1.1790
18861TIP3    H277999   4.781   6.134  16.889 -1.5611 -0.3376  0.8685
18862TIP3   OH278000   5.951   1.793  12.798 -0.1420  0.1829  0.2954
18862TIP3    H178001   5.994   1.846  12.866  1.4939  0.3330 -0.7839
18862TIP3    H278002   6.011   1.720  12.784 -0.6276 -0.0268 -0.7519
18863TIP3   OH278003   4.116   6.595  16.123 -0.2482 -0.2591  0.3107
18863TIP3    H178004   4.035   6.551  16.150 -0.2748 -0.8073 -0.6293
18863TIP3    H278005   4.186   6.546  16.168 -0.3867 -0.2814  0.5011
18864TIP3   OH278006   2.815   4.850  12.998 -0.0873  0.4482  0.1227
18864TIP3    H178007   2.830   4.942  13.018  2.9122 -0.3869  2.4257
18864TIP3    H278008   2.853   4.839  12.911 -0.3897  1.3566 -0.1397
18865TIP3   OH278009   5.728   0.104   0.042 -0.1991 -0.3765 -0.1453
18865TIP3    H178010   5.761   0.028  -0.006  1.1840  0.4602 -0.5768
18865TIP3    H278011   5.787   0.175   0.017 -1.3892  0.8108  0.3525
18866TIP3   OH278012   1.381   6.468  11.758  0.7179 -0.0947 -0.1302
18866TIP3    H178013   1.314   6.406  11.787  2.8487 -2.4099  0.1405
18866TIP3    H278014   1.382   6.460  11.663  0.6551 -0.0754 -0.1327
18867TIP3   OH278015   5.810   0.132   2.990  0.4839  0.1312  0.4703
18867TIP3    H178016   5.810   0.048   2.945 -2.7475  0.1366  0.1820
18867TIP3    H278017   5.762   0.116   3.071  0.1998  1.5702  0.6256
18868TIP3   OH278018   0.709   2.237  16.471 -0.0738  0.7773  0.6475
18868TIP3    H178019   0.757   2.252  16.390  0.2137 -1.8256  0.2264
18868TIP3    H278020   0.688   2.324  16.504  1.9626  1.9431 -0.9136
18869TIP3   OH278021   2.606   6.717   0.933  0.5324 -0.4248 -0.8085
18869TIP3    H178022   2.618   6.648   0.868  1.3231 -0.2085 -0.9031
18869TIP3    H278023   2.615   6.672   1.017 -0.3423 -0.6768 -0.8376
18870TIP3   OH278024   5.813   2.650   3.053  0.2590 -0.3687 -0.5051
18870TIP3    H178025   5.821   2.617   2.964  0.8885 -2.0981  0.1535
18870TIP3    H278026   5.876   2.599   3.103 -0.6664 -0.0064  1.0892
18871TIP3   OH278027   4.180   0.005  15.605  0.5678  0.5923  0.2816
18871TIP3    H178028   4.148   0.082  15.653 -0.7126 -0.0798  0.5695
18871TIP3    H278029   4.161   0.025  15.514  0.9373  0.9425  0.2815
18872TIP3   OH278030   6.291   5.442   2.089 -0.2766  0.4437 -0.2155
18872TIP3    H178031   6.295   5.485   2.004  1.4377  0.1063 -0.3511
18872TIP3    H278032   6.200   5.416   2.099 -0.1289 -1.6699 -3.0718
18873TIP3   OH278033   6.482   4.447  11.180  0.1739 -0.0513 -0.1197
18873TIP3    H178034   6.466   4.361  11.140  0.7431  0.2702 -1.0883
18873TIP3    H278035   6.450   4.509  11.115  1.4214  0.4968 -0.2482
18874TIP3   OH278036   2.656   3.399  12.468  0.1391  0.2858 -0.3617
18874TIP3    H178037   2.719   3.441  12.409 -0.3138  2.0628  0.3639
18874TIP3    H278038   2.711   3.348  12.528  0.7454  0.3132 -0.8718
18875TIP3   OH278039   5.988   5.284   1.312  0.1916 -0.0942 -0.2450
18875TIP3    H178040   5.896   5.258   1.311  1.2599 -4.6760 -0.9130
18875TIP3    H278041   6.017   5.274   1.222  1.2888  1.9640 -0.1894
18876TIP3   OH278042   4.689   1.087  12.102  0.0071 -0.2528  0.0139
18876TIP3    H178043   4.739   1.090  12.021  0.8836 -0.5896  0.5269
18876TIP3    H278044   4.631   1.163  12.098  0.4944  0.0866 -0.6374
18877TIP3   OH278045   5.147   5.803  15.979 -0.4006  0.2118 -0.2553
18877TIP3    H178046   5.183   5.744  16.046 -0.0512 -1.6344 -1.9647
18877TIP3    H278047   5.223   5.831  15.928 -0.7870  0.5837 -0.6339
18878TIP3   OH278048   6.062   3.896   0.950 -0.3689 -0.4341  0.0680
18878TIP3    H178049   5.982   3.876   0.901  0.7500 -1.9577 -1.2170
18878TIP3    H278050   6.048   3.856   1.036 -1.5135  0.5123  0.3629
18879TIP3   OH278051   3.854   4.565  12.072  0.4432  0.0646 -0.8705
18879TIP3    H178052   3.943   4.531  12.079  0.4647  0.3804  0.8431
18879TIP3    H278053   3.862   4.644  12.019  1.0671 -0.2588 -1.2651
18880TIP3   OH278054   2.066   5.605  11.088  0.0542 -0.2062  0.1634
18880TIP3    H178055   1.972   5.601  11.071 -0.3583  0.6777  1.9955
18880TIP3    H278056   2.094   5.513  11.089 -0.6538 -0.4490 -1.0157
18881TIP3   OH278057   3.964   5.973  16.918  0.1408  0.1687  0.0176
18881TIP3    H178058   3.923   5.994  17.002  1.0850 -1.3245  0.9079
18881TIP3    H278059   3.894   5.932  16.867 -0.4167  1.0064  0.0822
18882TIP3   OH278060   1.444   1.883   2.119  0.1109  0.1358 -0.2918
18882TIP3    H178061   1.367   1.914   2.071  1.0914  1.4958 -1.0365
18882TIP3    H278062   1.408   1.837   2.195 -1.4390  0.1351 -1.0000
18883TIP3   OH278063   4.253   3.006   4.489  0.0970 -0.1762  0.3202
18883TIP3    H178064   4.301   2.926   4.469  1.2043 -0.1160  2.4661
18883TIP3    H278065   4.318   3.065   4.527 -0.7673  1.6612 -0.8920
18884TIP3   OH278066   2.309   5.365   0.565  0.1169 -0.1065 -0.2668
18884TIP3    H178067   2.320   5.337   0.656 -0.2431 -0.4435 -0.3218
18884TIP3    H278068   2.395   5.394   0.538 -0.1518  1.8669  0.7974
18885TIP3   OH278069   4.256   0.561   3.546 -0.8027  0.1144  0.0645
18885TIP3    H178070   4.217   0.536   3.462  0.9436  0.3503 -0.8555
18885TIP3    H278071   4.253   0.481   3.599 -2.3890  0.1038 -0.0065
18886TIP3   OH278072   1.886   2.025  12.658  0.0882 -0.3539  0.4189
18886TIP3    H178073   1.885   1.973  12.577 -0.1600 -0.3250  0.4028
18886TIP3    H278074   1.978   2.027  12.684  0.3086  0.4185 -0.3634
18887TIP3   OH278075   3.459   4.733  15.170 -0.2966 -0.0592  0.6153
18887TIP3    H178076   3.367   4.725  15.146  0.0639 -1.6645 -0.3496
18887TIP3    H278077   3.464   4.816  15.217 -1.8090  1.2280 -1.3340
18888TIP3   OH278078   6.730   4.008   2.173 -0.1015  0.1609  0.1022
18888TIP3    H178079   6.802   4.071   2.166  1.0685 -1.1597 -0.2160
18888TIP3    H278080   6.680   4.038   2.249 -1.1963  3.0177 -1.5742
18889TIP3   OH278081   1.138   0.261  13.396 -0.0519 -0.2440 -0.2771
18889TIP3    H178082   1.140   0.353  13.423  1.8328 -0.1297 -0.6566
18889TIP3    H278083   1.067   0.256  13.333  0.7771  1.3257 -1.4072
18890TIP3   OH278084   2.282   2.587  14.095  0.4247  0.4529  0.6521
18890TIP3    H178085   2.203   2.638  14.116  0.4535  0.4034  0.8879
18890TIP3    H278086   2.313   2.556  14.180  0.1437 -0.3514  0.4726
18891TIP3   OH278087   4.445   1.227   6.055  0.0045 -0.6249  0.2707
18891TIP3    H178088   4.364   1.273   6.079 -0.0790 -0.9959  0.7084
18891TIP3    H278089   4.416   1.143   6.021  0.0840  0.0958 -1.7320
18892TIP3   OH278090   4.238   1.171   4.824  0.3715 -0.9074  0.0563
18892TIP3    H178091   4.214   1.093   4.873  0.8035 -0.5002  0.9248
18892TIP3    H278092   4.202   1.244   4.875  1.5989 -0.4220  0.2652
18893TIP3   OH278093   3.721   2.224   1.279 -0.3095 -0.2770 -0.1868
18893TIP3    H178094   3.719   2.132   1.307  2.1661 -0.1782  0.5614
18893TIP3    H278095   3.720   2.274   1.360  1.7040  0.1778 -0.3737
18894TIP3   OH278096   4.253   2.015  17.167 -0.0524  0.1645  0.7611
18894TIP3    H178097   4.266   2.094  17.113 -0.8792 -1.1379 -1.4892
18894TIP3    H278098   4.292   1.945  17.115  1.7070 -0.8404  3.2296
18895TIP3   OH278099   3.472   2.883  10.954  0.5223 -0.0238 -0.1006
18895TIP3    H178100   3.379   2.893  10.934 -0.7143 -1.9007  3.7190
18895TIP3    H278101   3.502   2.814  10.895 -1.1788 -1.0417  0.1749
18896TIP3   OH278102   2.584   1.944  12.487  0.2003  0.2607 -0.4449
18896TIP3    H178103   2.502   1.993  12.492  0.4798  0.7010 -0.1323
18896TIP3    H278104   2.600   1.916  12.577 -0.8057 -1.8333 -0.8463
18897TIP3   OH278105   5.568   4.795   3.437  0.0391 -0.3642  0.2293
18897TIP3    H178106   5.561   4.708   3.398  0.6833 -0.5647  0.5456
18897TIP3    H278107   5.551   4.855   3.365 -0.0849 -0.7463 -0.0649
18898TIP3   OH278108   4.742   1.571   2.528 -0.5064 -0.6013  0.5561
18898TIP3    H178109   4.733   1.572   2.623 -0.7896  2.1049  0.5831
18898TIP3    H278110   4.722   1.661   2.501  1.5866 -0.7376 -1.8570
18899TIP3   OH278111   3.932   6.085   4.359  0.3256  0.0852 -0.5377
18899TIP3    H178112   3.987   6.162   4.344  1.3694 -0.9635 -2.5075
18899TIP3    H278113   3.942   6.067   4.452  0.8200  1.7528 -0.2222
18900TIP3   OH278114   3.519   1.149  15.881 -0.1130  0.0273 -0.2306
18900TIP3    H178115   3.445   1.209  15.877  0.9405  1.3865  0.0029
18900TIP3    H278116   3.510   1.095  15.802 -1.9322 -0.5809  0.3374
18901TIP3   OH278117   1.846   6.012  14.915  0.1639  0.0844  0.4451
18901TIP3    H178118   1.862   6.009  15.009 -1.8018  3.7063  1.0833
18901TIP3    H278119   1.751   6.005  14.906  0.1669  1.2038 -1.0896
18902TIP3   OH278120   6.287   3.514   1.086 -0.2270  0.4750  0.2763
18902TIP3    H178121   6.242   3.455   1.146 -0.9660  1.5010  0.7438
18902TIP3    H278122   6.350   3.561   1.141  0.4119  0.0952 -0.1094
18903TIP3   OH278123   6.638   5.840   0.973 -0.2647 -0.0940  0.7130
18903TIP3    H178124   6.555   5.879   0.999 -1.1652 -3.2557  3.1238
18903TIP3    H278125   6.703   5.882   1.030 -1.0862 -1.3244  2.6658
18904TIP3   OH278126   6.341   1.625  11.709  0.3923 -0.3495 -0.5342
18904TIP3    H178127   6.411   1.602  11.770  0.2800 -0.9255 -0.6169
18904TIP3    H278128   6.370   1.707  11.669  0.7529 -0.2901 -0.1576
18905TIP3   OH278129   6.352   3.738   5.380 -0.4928  0.1429  0.1912
18905TIP3    H178130   6.363   3.779   5.466 -0.4607  1.5912 -0.4652
18905TIP3    H278131   6.334   3.812   5.321 -1.8924 -0.9494 -0.8102
18906TIP3   OH278132   5.711   5.953  13.546  0.1829  0.6925  0.1154
18906TIP3    H178133   5.788   5.897  13.560  0.4557  1.0906  0.2297
18906TIP3    H278134   5.636   5.895  13.557  0.4646  0.3540  0.2521
18907TIP3   OH278135   1.637   2.577   0.575 -0.0307  0.2640  0.4422
18907TIP3    H178136   1.622   2.487   0.545  0.9509  0.4447 -0.6889
18907TIP3    H278137   1.568   2.593   0.638 -1.8849 -0.3487 -1.3224
18908TIP3   OH278138   0.821   3.303   4.454  0.5396 -0.2978 -0.0133
18908TIP3    H178139   0.802   3.360   4.529  0.6197 -0.0958 -0.1467
18908TIP3    H278140   0.757   3.232   4.461  1.0902 -0.7479  0.7449
18909TIP3   OH278141   3.851   3.596   0.592  0.3363 -0.0832  0.4154
18909TIP3    H178142   3.863   3.506   0.561 -0.6579 -0.1072  0.0670
18909TIP3    H278143   3.937   3.622   0.625  0.9267 -0.7428 -0.5801
18910TIP3   OH278144   0.560   2.150  15.051 -0.1368  0.3911  0.0425
18910TIP3    H178145   0.469   2.131  15.073  0.0639  0.5634  1.0628
18910TIP3    H278146   0.556   2.232  15.002 -0.6853 -0.5152 -1.5117
18911TIP3   OH278147   4.404   2.977  14.186 -0.2491  0.0690 -0.3886
18911TIP3    H178148   4.406   2.944  14.096 -2.2988 -2.1111  0.2661
18911TIP3    H278149   4.423   2.901  14.240  1.7590  1.5136  1.0757
18912TIP3   OH278150   4.912   5.906  16.132  0.4919  1.1414 -0.1773
18912TIP3    H178151   4.847   5.948  16.076 -0.6734 -0.3923 -0.0343
18912TIP3    H278152   4.985   5.886  16.074 -0.8777 -0.8385 -1.3475
18913TIP3   OH278153   4.046   6.553  16.868 -0.1011  0.1754  0.9788
18913TIP3    H178154   4.064   6.499  16.791  0.4549 -0.7081  1.7032
18913TIP3    H278155   4.075   6.641  16.844 -0.4140  0.0246  0.0051
18914TIP3   OH278156   3.639   0.493  14.249 -0.2009 -0.4526  0.0726
18914TIP3    H178157   3.718   0.545  14.237 -0.6669  0.0379 -1.0221
18914TIP3    H278158   3.567   0.553  14.229 -0.7944 -1.2632 -0.3183
18915TIP3   OH278159   6.457   3.589  11.255 -0.4579  0.2065  0.1812
18915TIP3    H178160   6.494   3.508  11.221  1.2721  1.4451 -1.0963
18915TIP3    H278161   6.471   3.585  11.349 -2.2546 -1.8171  0.4285
18916TIP3   OH278162   3.959   4.367   0.953  0.1059  0.4636 -0.0763
18916TIP3    H178163   3.960   4.356   0.858 -0.8201  2.3746 -0.3540
18916TIP3    H278164   4.037   4.418   0.973  0.4745 -0.2141  0.2411
18917TIP3   OH278165   6.500   4.099   4.013 -0.5186  0.1919  0.0114
18917TIP3    H178166   6.418   4.127   4.052 -1.4451 -2.4067  0.1636
18917TIP3    H278167   6.491   4.120   3.920 -1.7125 -0.7271 -0.1063
18918TIP3   OH278168   1.103   1.781   1.998  0.0856  0.4713 -0.0922
18918TIP3    H178169   1.172   1.775   1.932  0.6297 -0.6053  0.5565
18918TIP3    H278170   1.091   1.875   2.011  1.0240  0.6791 -0.6209
18919TIP3   OH278171   0.259   2.155  13.060  0.7858 -0.0567 -0.3725
18919TIP3    H178172   0.331   2.200  13.105 -0.0997  2.0353 -0.9484
18919TIP3    H278173   0.268   2.179  12.968  0.3756 -1.2610 -0.7557
18920TIP3   OH278174   2.064   6.128   4.867  0.2052 -0.6843  0.2817
18920TIP3    H178175   2.131   6.091   4.924  2.1110  1.2506 -0.5618
18920TIP3    H278176   2.040   6.211   4.908  1.3207  0.5517 -1.4098
18921TIP3   OH278177   4.526   3.102  12.715  0.0746  0.7076 -0.1630
18921TIP3    H178178   4.585   3.028  12.732 -0.8181  0.2643  1.1737
18921TIP3    H278179   4.574   3.178  12.748 -0.8732  0.0854  3.1169
18922TIP3   OH278180   5.706   2.775  10.285  0.8417 -0.0246 -0.1475
18922TIP3    H178181   5.678   2.788  10.376  0.5950 -1.0536 -0.0699
18922TIP3    H278182   5.799   2.798  10.286  1.2067 -1.3955  0.7056
18923TIP3   OH278183   4.490   6.510   4.343 -0.3293  0.4679  0.0567
18923TIP3    H178184   4.460   6.573   4.277 -3.4428  0.0486  0.9226
18923TIP3    H278185   4.416   6.450   4.354  0.9728 -0.8530  2.2755
18924TIP3   OH278186   5.297   0.154   4.674 -0.9712 -0.8221  0.1326
18924TIP3    H178187   5.360   0.140   4.745 -2.1055 -0.4290  1.2523
18924TIP3    H278188   5.213   0.165   4.718 -1.7083 -0.5257 -1.2806
18925TIP3   OH278189   6.497   3.347   4.321 -0.0329 -0.4585  0.1423
18925TIP3    H178190   6.410   3.381   4.343 -0.4672 -0.5906 -1.2652
18925TIP3    H278191   6.506   3.365   4.227  0.3302 -2.8816 -0.3378
18926TIP3   OH278192   6.059   1.558   6.124 -0.3378  0.9636  0.2919
18926TIP3    H178193   5.972   1.534   6.156 -0.0292 -3.2137 -1.4197
18926TIP3    H278194   6.120   1.515   6.184  0.5266  1.9991  0.1953
18927TIP3   OH278195   3.320   3.768   0.697 -0.1880  0.0241  0.6390
18927TIP3    H178196   3.336   3.758   0.603  0.7767 -0.1651  0.8181
18927TIP3    H278197   3.313   3.863   0.710  1.1864  0.1454  0.6031
18928TIP3   OH278198   2.440   3.845  17.033  0.2774  0.3375  0.2287
18928TIP3    H178199   2.358   3.808  17.067 -0.0441 -0.0786 -0.9443
18928TIP3    H278200   2.414   3.890  16.952  1.2995 -0.3555 -0.5059
18929TIP3   OH278201   5.948   4.318  11.799  0.8800 -1.0737  0.3738
18929TIP3    H178202   5.884   4.365  11.746 -0.6042 -1.1981  1.9615
18929TIP3    H278203   5.920   4.226  11.793  0.9136 -1.1313  1.0622
18930TIP3   OH278204   5.479   2.687   1.874  0.1545 -0.0517  0.2438
18930TIP3    H178205   5.425   2.623   1.920  0.3476  0.9443  1.9568
18930TIP3    H278206   5.525   2.734   1.944  0.4447  1.5809 -0.9798
18931TIP3   OH278207   1.694   2.363   4.312 -0.2415  0.1671  0.1197
18931TIP3    H178208   1.699   2.273   4.344 -0.5354  0.0710 -0.1041
18931TIP3    H278209   1.785   2.394   4.316  0.0723 -0.5384 -0.9490
18932TIP3   OH278210   4.287   1.213   4.293 -0.0276 -0.0725  0.4985
18932TIP3    H178211   4.208   1.208   4.347 -1.5080  0.3048 -1.5250
18932TIP3    H278212   4.345   1.146   4.330 -2.5489 -2.6552  0.1375
18933TIP3   OH278213   3.795   1.081  11.498  0.2353  0.2433 -0.1164
18933TIP3    H178214   3.819   1.043  11.414 -0.5658 -1.4952  0.3883
18933TIP3    H278215   3.876   1.123  11.529  0.9115 -0.2568 -1.1369
18934TIP3   OH278216   6.765   5.472  12.677 -0.4550 -0.5600  0.0208
18934TIP3    H178217   6.859   5.455  12.676 -0.5533 -1.1203 -0.0066
18934TIP3    H278218   6.725   5.393  12.641 -1.0949 -1.4373  2.4832
18935TIP3   OH278219   5.717   5.256   1.382 -0.2633 -0.2914  0.1796
18935TIP3    H178220   5.712   5.266   1.477  1.0492  1.2133  0.1276
18935TIP3    H278221   5.686   5.340   1.348 -2.2776 -1.3620 -0.8151
18936TIP3   OH278222   3.288   6.783   0.318 -0.1068 -0.0738  0.0178
18936TIP3    H178223   3.341   6.740   0.250  1.5573 -0.5313  1.5161
18936TIP3    H278224   3.223   6.833   0.270  0.3141 -1.2436 -1.8851
18937TIP3   OH278225   6.475   4.656  11.723 -0.1339  0.0293  0.1114
18937TIP3    H178226   6.569   4.641  11.732  0.1421  0.3364 -1.7235
18937TIP3    H278227   6.459   4.738  11.771  0.1957 -0.8796  1.8177
18938TIP3   OH278228   2.727   4.262   5.630  0.4710  0.1326  0.1148
18938TIP3    H178229   2.801   4.321   5.614  1.7386 -1.2496  0.7037
18938TIP3    H278230   2.654   4.320   5.650  1.2230  1.5617 -1.0982
18939TIP3   OH278231   3.570   0.348  12.727  0.1850  0.3628 -0.5554
18939TIP3    H178232   3.481   0.377  12.706 -0.0683 -0.3229 -0.4727
18939TIP3    H278233   3.590   0.391  12.810 -0.7860 -0.8467  0.3571
18940TIP3   OH278234   0.959   2.435  15.562  0.1925  0.7147 -0.0505
18940TIP3    H178235   1.003   2.510  15.521 -0.8098  0.6929 -1.2315
18940TIP3    H278236   0.868   2.443  15.534 -0.7255  1.0545  2.7673
18941TIP3   OH278237   5.291   6.592   2.249  0.1977 -0.0827  0.0734
18941TIP3    H178238   5.338   6.540   2.315  2.1293  1.6807  0.1999
18941TIP3    H278239   5.224   6.638   2.298  1.1561  0.6609  0.7197
18942TIP3   OH278240   6.136   4.740  15.800 -0.3903 -0.4955  0.1843
18942TIP3    H178241   6.177   4.824  15.824 -0.1316 -0.6254  0.2034
18942TIP3    H278242   6.065   4.764  15.742 -2.4157  0.0506  2.6939
18943TIP3   OH278243   1.514   0.374  12.186  0.3920 -0.7392 -0.0202
18943TIP3    H178244   1.471   0.439  12.242  3.0644  2.1982 -1.1011
18943TIP3    H278245   1.448   0.352  12.120 -0.4448  1.2591  0.0993
18944TIP3   OH278246   5.720   1.638   4.288 -0.1628 -0.0639 -0.3350
18944TIP3    H178247   5.747   1.695   4.215 -0.7644  0.5785 -0.0680
18944TIP3    H278248   5.653   1.689   4.334  0.0986 -0.5274  0.5768
18945TIP3   OH278249   0.014   5.463  15.341  0.1810  0.0807  1.0460
18945TIP3    H178250  -0.067   5.446  15.293  0.5495 -0.0176  0.4590
18945TIP3    H278251   0.073   5.502  15.277  0.5375  0.3330  1.5186
18946TIP3   OH278252   1.544   2.554   0.184  0.1058  0.3436 -0.5732
18946TIP3    H178253   1.504   2.478   0.226 -0.0131  1.8893  2.3523
18946TIP3    H278254   1.472   2.618   0.178  0.8401  1.2156 -0.3116
18947TIP3   OH278255   5.632   2.059  14.968  0.0604 -0.1302 -0.3251
18947TIP3    H178256   5.682   1.984  15.000  0.6279  0.0082 -0.8608
18947TIP3    H278257   5.675   2.083  14.886 -0.7958  0.0916 -0.7235
18948TIP3   OH278258   5.774   5.427   3.053 -0.3542 -0.6275  0.2450
18948TIP3    H178259   5.754   5.519   3.034 -0.2455 -0.1588  2.1642
18948TIP3    H278260   5.837   5.402   2.986 -0.8737  0.4971 -0.7080
18949TIP3   OH278261   0.084   1.641  13.246  0.2204 -0.4917  0.3759
18949TIP3    H178262   0.001   1.666  13.205  0.7295 -1.0394 -1.0327
18949TIP3    H278263   0.106   1.716  13.302 -1.4384 -0.5318  1.1579
18950TIP3   OH278264   5.756   0.825   2.565  0.5298 -0.2716  0.2832
18950TIP3    H178265   5.760   0.767   2.642  0.9774 -0.3621  0.1908
18950TIP3    H278266   5.703   0.899   2.594  0.6088 -0.3553  0.6451
18951TIP3   OH278267   3.533   0.633  12.489  0.6351 -0.4358  0.6825
18951TIP3    H178268   3.616   0.672  12.464  1.0482 -1.6189  0.1211
18951TIP3    H278269   3.529   0.642  12.584  0.2183  1.8685  0.4995
18952TIP3   OH278270   0.565   6.613  17.235 -0.0816  0.2138 -0.2834
18952TIP3    H178271   0.487   6.667  17.244  0.3477  0.7047  0.6810
18952TIP3    H278272   0.584   6.583  17.324 -0.4927 -1.8140 -0.8140
18953TIP3   OH278273   2.110   0.947   1.084 -0.1092  0.0847  0.3883
18953TIP3    H178274   2.178   0.880   1.093 -0.4549 -0.4030 -0.5161
18953TIP3    H278275   2.028   0.898   1.089 -0.5469  0.8609  3.5415
18954TIP3   OH278276   0.833   0.951  14.949  0.3031 -0.8702 -0.7144
18954TIP3    H178277   0.743   0.944  14.979  0.0885  1.0925 -0.7729
18954TIP3    H278278   0.885   0.946  15.029  0.2229 -2.5210 -0.7241
18955TIP3   OH278279   0.488   3.350  12.555 -0.0336 -0.2957  0.1369
18955TIP3    H178280   0.534   3.333  12.473 -1.0107  0.2779 -0.5641
18955TIP3    H278281   0.441   3.269  12.574  0.2981 -0.4723  0.1961
18956TIP3   OH278282   4.840   2.576  12.116  0.2237 -0.0988  0.0334
18956TIP3    H178283   4.889   2.556  12.196 -1.2675 -1.7818  0.5918
18956TIP3    H278284   4.765   2.628  12.146 -0.9648 -1.6962 -0.0476
18957TIP3   OH278285   3.856   0.611  14.122 -0.3808  0.0617 -0.0915
18957TIP3    H178286   3.795   0.576  14.057  0.3185 -0.2507 -0.5868
18957TIP3    H278287   3.941   0.577  14.096  0.2510  1.6980 -0.3056
18958TIP3   OH278288   5.569   3.620  11.000  0.2094  0.2418 -0.3009
18958TIP3    H178289   5.553   3.713  11.012  0.4179  0.0354  1.9718
18958TIP3    H278290   5.498   3.577  11.048  0.4520 -0.7699 -0.8284
18959TIP3   OH278291   6.391   2.762  11.241  0.5436  0.3787 -0.0029
18959TIP3    H178292   6.337   2.689  11.270 -2.2071  2.0504 -0.5523
18959TIP3    H278293   6.441   2.787  11.319 -0.3522 -0.4963  0.8854
18960TIP3   OH278294   2.543   5.461   6.118 -0.0907 -0.2805  0.6866
18960TIP3    H178295   2.564   5.554   6.110 -0.9938 -0.1906 -1.4415
18960TIP3    H278296   2.489   5.455   6.197 -1.3615  1.3065  0.0120
18961TIP3   OH278297   0.686   5.585   2.715  0.2714  0.2227  0.1026
18961TIP3    H178298   0.766   5.541   2.687  0.5427  0.9002 -0.2282
18961TIP3    H278299   0.638   5.520   2.765  2.3763  0.6279  2.9069
18962TIP3   OH278300   1.984   3.839  16.639  0.0043 -0.0255 -0.2705
18962TIP3    H178301   1.930   3.807  16.567  0.8357  0.8954 -1.3465
18962TIP3    H278302   1.923   3.848  16.713 -1.2753  0.7928 -1.3773
18963TIP3   OH278303   4.028   3.196  13.837 -0.1490 -0.0634  0.7367
18963TIP3    H178304   4.032   3.247  13.757 -2.1886 -0.4247  0.3293
18963TIP3    H278305   4.051   3.257  13.907  0.7817  0.4800 -0.0250
18964TIP3   OH278306   6.725   2.122  10.409 -0.0508 -0.1487  0.5514
18964TIP3    H178307   6.678   2.084  10.483  0.3114  1.8983  1.9326
18964TIP3    H278308   6.664   2.188  10.374  0.3080 -0.1615 -0.1215
18965TIP3   OH278309   4.546   4.993   2.053  0.2809  0.2550  0.2775
18965TIP3    H178310   4.640   5.014   2.054  0.1556  1.1260 -1.9308
18965TIP3    H278311   4.526   4.972   1.962 -1.4225 -1.2531  0.9415
18966TIP3   OH278312   5.355   0.732   1.611  0.5141 -0.2750 -0.3398
18966TIP3    H178313   5.301   0.721   1.533 -0.5863  0.6427  0.2494
18966TIP3    H278314   5.305   0.690   1.681  0.2061  1.1573  0.3446
18967TIP3   OH278315   0.871   2.445   1.134  0.0678 -0.3014  0.2857
18967TIP3    H178316   0.942   2.386   1.108  0.5486 -0.5423  2.0155
18967TIP3    H278317   0.828   2.468   1.051  1.0345 -1.5728 -0.6234
18968TIP3   OH278318   3.157   1.956  10.394  0.4359  0.2392 -0.1286
18968TIP3    H178319   3.234   2.001  10.360  0.9017  0.0943  0.7010
18968TIP3    H278320   3.142   1.996  10.479 -0.8272  0.7347 -0.5667
18969TIP3   OH278321   1.083   3.232  13.001 -0.7619  0.2004 -0.6503
18969TIP3    H178322   1.024   3.159  13.014  0.1751 -0.4771 -0.0712
18969TIP3    H278323   1.026   3.306  12.978 -1.7696 -0.5447 -0.5852
18970TIP3   OH278324   4.321   5.596   3.694  0.1458  0.3048 -0.4710
18970TIP3    H178325   4.250   5.626   3.751  0.4828  1.3866 -0.6104
18970TIP3    H278326   4.282   5.591   3.607  0.2657  1.0490 -0.5755
18971TIP3   OH278327   6.350   5.479  17.005 -0.1873 -0.2305 -0.5017
18971TIP3    H178328   6.350   5.549  16.940  2.2254  1.5942  1.2824
18971TIP3    H278329   6.429   5.428  16.986 -2.3195 -3.1737 -2.2912
18972TIP3   OH278330   4.483   2.479   5.057  0.1028 -0.2849  0.1835
18972TIP3    H178331   4.431   2.559   5.058 -0.6788 -0.7207 -1.3863
18972TIP3    H278332   4.446   2.428   4.985  0.9099 -1.8444  0.8329
18973TIP3   OH278333   3.156   0.138   1.729  0.0844 -0.2058  0.3046
18973TIP3    H178334   3.208   0.059   1.713 -1.0436 -1.0558  0.7369
18973TIP3    H278335   3.069   0.118   1.696  0.1221  1.3888 -0.8613
18974TIP3   OH278336   5.801   1.518   5.405  0.3443 -0.0787 -0.3691
18974TIP3    H178337   5.760   1.488   5.324 -0.2888 -0.3756  0.0536
18974TIP3    H278338   5.860   1.588   5.377  0.3488 -0.3705 -1.1215
18975TIP3   OH278339   0.722   1.821   1.232  0.0240  0.0038 -0.1188
18975TIP3    H178340   0.785   1.768   1.184 -0.7445 -0.8154 -0.2566
18975TIP3    H278341   0.718   1.904   1.183  0.6710 -0.0878 -0.3386
18976TIP3   OH278342   5.033   0.238  16.882 -0.3053  0.5233  1.0194
18976TIP3    H178343   4.999   0.188  16.808  1.5962 -1.6185  1.4866
18976TIP3    H278344   4.963   0.233  16.948 -0.2646 -1.4128  0.9666
18977TIP3   OH278345   3.678   0.756   4.408 -0.0829 -0.9424 -0.2276
18977TIP3    H178346   3.684   0.662   4.395  0.9321 -0.7254 -1.5754
18977TIP3    H278347   3.673   0.792   4.320 -0.2301  0.2754  0.2600
18978TIP3   OH278348   1.513   1.198  13.094 -0.7582  0.0545  0.0920
18978TIP3    H178349   1.530   1.104  13.096 -0.5215  0.0650 -0.7891
18978TIP3    H278350   1.598   1.237  13.072 -1.4934  0.2061 -2.9661
18979TIP3   OH278351   5.250   5.790   2.019 -0.0771  0.2464 -0.2925
18979TIP3    H178352   5.285   5.813   2.105 -1.8462  0.5263  0.3881
18979TIP3    H278353   5.155   5.785   2.032 -0.4798  1.2134 -2.4344
18980TIP3   OH278354   4.323   4.149  15.704  0.3657 -0.3891 -0.3238
18980TIP3    H178355   4.332   4.146  15.799  1.8112  0.9805 -0.3610
18980TIP3    H278356   4.410   4.124  15.671  0.8370  2.0303 -1.1473
18981TIP3   OH278357   6.300   4.539  12.341  0.1749 -0.0058 -0.1564
18981TIP3    H178358   6.233   4.532  12.272 -1.4715 -1.3167  1.4695
18981TIP3    H278359   6.299   4.632  12.365 -0.1113  0.2380 -1.0693
18982TIP3   OH278360   1.454   2.437   4.840  0.2266  0.0351  0.0070
18982TIP3    H178361   1.542   2.419   4.873  0.5781  0.8128 -0.4875
18982TIP3    H278362   1.401   2.449   4.919  0.8448  0.8700  0.3079
18983TIP3   OH278363   4.672   4.732  15.691  0.7247  0.4535  0.0881
18983TIP3    H178364   4.650   4.713  15.600  0.4025  2.9526 -0.4463
18983TIP3    H278365   4.762   4.700  15.701  0.2837 -1.1048 -0.6538
18984TIP3   OH278366   1.726   4.087   2.927 -0.1212 -0.4070  0.0609
18984TIP3    H178367   1.810   4.069   2.885 -0.5354  0.9048 -1.4097
18984TIP3    H278368   1.744   4.159   2.987 -0.1623 -0.1707 -0.2057
18985TIP3   OH278369   4.471   3.011   0.368 -0.0805 -0.0025  0.4464
18985TIP3    H178370   4.457   2.959   0.447  1.7221  0.2822  1.0021
18985TIP3    H278371   4.564   3.002   0.349  0.2215  2.5963  0.2922
18986TIP3   OH278372   4.578   5.636  12.805 -0.2025 -0.5431  0.0817
18986TIP3    H178373   4.634   5.638  12.727 -1.1986  0.3656 -0.6365
18986TIP3    H278374   4.567   5.543  12.823 -1.2182 -0.8492 -1.8203
18987TIP3   OH278375   5.751   6.211   4.419  0.2480  0.5395  0.1755
18987TIP3    H178376   5.799   6.141   4.375  0.2833  0.9658 -0.4713
18987TIP3    H278377   5.666   6.214   4.374 -0.5001 -0.3694  1.4655
18988TIP3   OH278378   0.270   1.531  15.307 -0.6062 -0.1947 -0.4403
18988TIP3    H178379   0.217   1.589  15.253 -1.0482 -0.8342 -0.7109
18988TIP3    H278380   0.318   1.477  15.244  1.6931  1.4918 -0.2397
18989TIP3   OH278381   0.370   3.937  16.350 -0.5550  0.3000 -0.7977
18989TIP3    H178382   0.275   3.930  16.357 -0.4946  0.7911  1.6204
18989TIP3    H278383   0.401   3.929  16.441  1.8494 -1.5051 -1.6739
18990TIP3   OH278384   6.028   3.983   3.521  0.2088  0.0023 -0.0347
18990TIP3    H178385   6.070   4.066   3.544 -1.2107  0.6137  0.4669
18990TIP3    H278386   5.998   3.995   3.432 -0.0754  0.0644  0.0688
18991TIP3   OH278387   4.016   6.743   5.078  0.0439  0.2546  0.7508
18991TIP3    H178388   3.942   6.690   5.105 -1.4587  1.9449  0.1851
18991TIP3    H278389   4.004   6.754   4.983 -0.4583  2.5924  1.0217
18992TIP3   OH278390   5.037   0.767   2.177 -0.3900 -0.2615  0.2873
18992TIP3    H178391   4.948   0.802   2.168 -0.1838  0.0034 -0.8825
18992TIP3    H278392   5.093   0.838   2.146  0.3756  0.2738  2.7217
18993TIP3   OH278393   3.390   0.580   5.627  0.4798 -0.1429 -0.1799
18993TIP3    H178394   3.342   0.498   5.622  1.0171 -0.6012  1.4014
18993TIP3    H278395   3.331   0.645   5.591  0.2164 -1.2809 -1.8961
18994TIP3   OH278396   2.525   3.176   4.505  0.2620 -0.0297  0.3516
18994TIP3    H178397   2.589   3.153   4.437  0.1887 -1.0616  0.6131
18994TIP3    H278398   2.575   3.227   4.569  0.2095  1.4404 -0.7185
18995TIP3   OH278399   3.612   2.023  16.488 -0.3797 -0.3360 -0.3013
18995TIP3    H178400   3.555   1.946  16.492 -1.0956  0.1432 -1.0242
18995TIP3    H278401   3.700   1.987  16.493 -0.7163 -1.1624 -0.0511
18996TIP3   OH278402   0.834   3.949   2.468  0.0959 -0.2389 -0.2475
18996TIP3    H178403   0.912   3.940   2.524  0.1863  0.7299 -0.1998
18996TIP3    H278404   0.863   3.919   2.382  0.1355 -1.1396  0.0634
18997TIP3   OH278405   2.985   0.574   2.942 -0.4747 -0.0860 -0.1411
18997TIP3    H178406   2.892   0.570   2.967 -0.3107  1.0200  0.7521
18997TIP3    H278407   3.015   0.658   2.977  0.3045  0.6551 -2.4044
18998TIP3   OH278408   0.065   0.813   2.362 -0.1405 -0.2504 -0.8028
18998TIP3    H178409   0.071   0.906   2.341 -1.3530 -0.3281 -1.5882
18998TIP3    H278410   0.057   0.810   2.458 -1.8158  0.5877 -0.8744
18999TIP3   OH278411   3.583   1.283  13.585 -0.0101 -0.0197  0.2699
18999TIP3    H178412   3.673   1.272  13.618 -0.4721  0.7267  1.8899
18999TIP3    H278413   3.532   1.217  13.633 -0.7905  1.4300  1.5158
19000TIP3   OH278414   5.400   2.154  10.614  0.1282  0.4696 -0.3108
19000TIP3    H178415   5.466   2.215  10.582  0.0537  1.0314  0.5781
19000TIP3    H278416   5.407   2.079  10.556  2.0425  0.2193  0.1802
19001TIP3   OH278417   4.334   5.747  15.491 -0.1631  0.5272  0.3048
19001TIP3    H178418   4.241   5.768  15.479 -0.0733  0.3927 -0.7075
19001TIP3    H278419   4.365   5.727  15.403  0.5630 -0.4988  0.7698
19002TIP3   OH278420   0.577   4.964  15.366  0.3330  0.2814  0.0089
19002TIP3    H178421   0.627   5.004  15.295 -1.8592  0.9169 -1.2629
19002TIP3    H278422   0.531   5.037  15.407 -2.2449 -0.6169 -1.1175
19003TIP3   OH278423   1.132   5.240  12.080  0.2414  0.2349 -0.2210
19003TIP3    H178424   1.217   5.229  12.038  0.0615 -0.6009 -0.3801
19003TIP3    H278425   1.068   5.227  12.010 -0.0201  0.8665 -0.1038
19004TIP3   OH278426   2.185   5.048  10.224 -0.1391 -0.2233  0.7756
19004TIP3    H178427   2.202   5.138  10.196  0.3380 -0.7190 -0.6184
19004TIP3    H278428   2.259   5.025  10.279 -0.0383  0.0890  0.7688
19005TIP3   OH278429   0.773   0.712  15.724  0.0405 -0.5958 -0.7146
19005TIP3    H178430   0.767   0.673  15.637 -0.3821 -1.7670 -0.1857
19005TIP3    H278431   0.683   0.711  15.757  0.3399 -1.1183  0.1232
19006TIP3   OH278432   5.854   4.080   4.024  0.4184  0.5692  0.3458
19006TIP3    H178433   5.828   4.152   3.968 -0.8448  0.0108  0.1765
19006TIP3    H278434   5.772   4.035   4.046  1.0570 -0.1935  1.2953
19007TIP3   OH278435   0.823   4.063  10.961  0.1898 -0.8812 -0.1673
19007TIP3    H178436   0.727   4.071  10.963  0.2214 -0.5402  1.1462
19007TIP3    H278437   0.839   3.974  10.992  0.3015 -0.7847  0.0566
19008TIP3   OH278438   1.882   6.444   4.665 -0.0675  0.0172 -0.3902
19008TIP3    H178439   1.914   6.371   4.612 -3.4785 -1.9276 -0.0210
19008TIP3    H278440   1.904   6.421   4.755 -3.3686 -2.0880  0.0431
19009TIP3   OH278441   2.657   4.686   2.098 -0.0925 -0.0114  0.2540
19009TIP3    H178442   2.610   4.696   2.015  0.8045  0.9468 -0.1640
19009TIP3    H278443   2.622   4.606   2.136 -0.9917 -0.1129 -0.7416
19010TIP3   OH278444   1.093   5.803  11.390 -0.0866 -0.0388 -0.4229
19010TIP3    H178445   1.064   5.754  11.313 -1.9809 -0.0736  0.2626
19010TIP3    H278446   1.013   5.824  11.437  1.0439 -0.7792  2.0295
19011TIP3   OH278447   0.407   4.097  14.452  0.1275  0.1063  0.2877
19011TIP3    H178448   0.365   4.124  14.371  0.5441  0.0980  0.0619
19011TIP3    H278449   0.355   4.023  14.484  0.0966 -0.0351 -0.0930
19012TIP3   OH278450   1.774   3.990  13.198  0.8945  0.6638 -0.3043
19012TIP3    H178451   1.808   4.011  13.111  3.1296  0.2849  0.4176
19012TIP3    H278452   1.848   3.949  13.243 -1.6549 -4.1811  0.0543
19013TIP3   OH278453   0.671   2.827   2.537  0.1721 -0.5995  0.3118
19013TIP3    H178454   0.756   2.836   2.580 -0.2986  0.0309  1.1484
19013TIP3    H278455   0.674   2.740   2.497  0.0746 -1.9582  2.9998
19014TIP3   OH278456   0.088   6.251   1.934 -0.2282 -0.1992 -0.3739
19014TIP3    H178457   0.025   6.227   2.001 -0.1800 -0.1692 -0.3173
19014TIP3    H278458   0.132   6.169   1.911  0.7569  0.0142  0.6657
19015TIP3   OH278459   2.121   0.019  15.757 -0.4117  0.1518  0.5124
19015TIP3    H178460   2.215   0.028  15.743 -0.6379 -0.4081 -1.7589
19015TIP3    H278461   2.081   0.074  15.689 -1.7315 -0.5196  0.7062
19016TIP3   OH278462   6.611   2.118   2.031  0.0580  0.3210 -0.6039
19016TIP3    H178463   6.578   2.170   2.104  0.0750  0.1256 -0.4547
19016TIP3    H278464   6.543   2.124   1.964  0.2526  0.8884 -0.7578
19017TIP3   OH278465   6.731   2.519   1.732 -0.1073 -0.3415  1.1517
19017TIP3    H178466   6.789   2.501   1.806  0.0252  0.4154  1.2404
19017TIP3    H278467   6.650   2.549   1.772  0.0728  0.3745  0.9857
19018TIP3   OH278468   5.573   6.502  15.920  0.1113 -0.3473 -0.7708
19018TIP3    H178469   5.535   6.588  15.900 -0.7772 -0.6975 -0.6627
19018TIP3    H278470   5.638   6.487  15.851  0.6729  0.6519 -0.4686
19019TIP3   OH278471   1.332   0.711   6.402  0.1398 -0.3893 -0.4816
19019TIP3    H178472   1.277   0.784   6.375  1.6714  1.2080  0.4836
19019TIP3    H278473   1.419   0.749   6.413  0.7893 -2.1303  1.0125
19020TIP3   OH278474   5.130   4.695   1.424  0.3988  0.1293 -0.7548
19020TIP3    H178475   5.171   4.780   1.409  3.4411 -0.2670  3.5824
19020TIP3    H278476   5.200   4.632   1.408 -0.9981 -1.3654 -1.1914
19021TIP3   OH278477   3.866   1.897  16.330  0.2726 -0.2761 -0.8114
19021TIP3    H178478   3.916   1.876  16.409 -0.9675  0.5294  0.2312
19021TIP3    H278479   3.843   1.811  16.293  1.4932 -0.6586 -0.7357
19022TIP3   OH278480   3.037   0.229   4.959  0.3884 -0.1587  0.2547
19022TIP3    H178481   2.960   0.268   4.917 -0.6099 -1.0285  1.2179
19022TIP3    H278482   3.057   0.289   5.031  0.0119 -0.4232  0.5854
19023TIP3   OH278483   3.666   5.737  15.442  0.0047  1.0605 -0.1066
19023TIP3    H178484   3.620   5.680  15.504  2.6172  0.2851  1.2791
19023TIP3    H278485   3.607   5.811  15.429 -2.3490 -0.6628  0.1395
19024TIP3   OH278486   5.114   0.101   3.408  0.0216 -0.4338  0.3037
19024TIP3    H178487   5.095   0.125   3.499 -1.7345 -4.0193  1.0834
19024TIP3    H278488   5.030   0.106   3.363  0.0798 -2.1839 -0.0969
19025TIP3   OH278489   2.745   1.721  13.153 -0.4914  0.3166 -0.1289
19025TIP3    H178490   2.772   1.639  13.194 -0.8849 -0.4357 -1.3243
19025TIP3    H278491   2.776   1.789  13.213 -0.1612 -0.6975  0.8828
19026TIP3   OH278492   2.411   6.605   4.684 -0.2631 -0.1081  0.2464
19026TIP3    H178493   2.504   6.587   4.698 -0.2506  0.4605  0.9222
19026TIP3    H278494   2.380   6.532   4.631  0.4534 -0.5812  0.4735
19027TIP3   OH278495   1.017   1.692   2.980 -0.4486 -0.2883  0.3956
19027TIP3    H178496   0.998   1.721   2.891  0.3667  0.4531  0.4534
19027TIP3    H278497   1.050   1.603   2.970  1.2984  0.3998 -0.2287
19028TIP3   OH278498   4.161   5.769  11.760 -0.2620  0.4092 -0.4349
19028TIP3    H178499   4.129   5.786  11.849 -1.5613 -1.2032 -0.5558
19028TIP3    H278500   4.083   5.779  11.705  0.0731 -0.6513 -1.1195
19029TIP3   OH278501   2.046   4.268   3.560  0.3338  0.2497  0.9549
19029TIP3    H178502   2.003   4.195   3.605  0.0253 -0.2874 -0.1692
19029TIP3    H278503   1.976   4.312   3.512  0.4704  1.4843  1.8512
19030TIP3   OH278504   5.518   2.506  12.759  0.5425 -0.4687 -0.2192
19030TIP3    H178505   5.444   2.455  12.727 -0.0098 -0.9367  1.6619
19030TIP3    H278506   5.490   2.539  12.845  1.4083  1.8558 -0.7356
19031TIP3   OH278507   2.683   1.152  11.052  0.6512 -0.2165 -0.2656
19031TIP3    H178508   2.662   1.100  11.129 -1.1762  1.5625  0.5389
19031TIP3    H278509   2.773   1.182  11.067  0.0103  0.8834  1.7166
19032TIP3   OH278510   1.138   2.467   0.387  0.0081 -0.5011 -0.0554
19032TIP3    H178511   1.132   2.520   0.466  0.4017 -0.5309 -0.0020
19032TIP3    H278512   1.082   2.392   0.404 -2.2173  0.8652 -0.9392
19033TIP3   OH278513   0.092   3.353  11.278  0.4493 -0.0034  0.4888
19033TIP3    H178514   0.188   3.356  11.283  0.4326 -0.1086  0.9131
19033TIP3    H278515   0.074   3.284  11.215  0.6244 -3.0467  3.5111
19034TIP3   OH278516   6.583   1.234  13.825 -0.3699 -0.0891 -0.6038
19034TIP3    H178517   6.494   1.202  13.841 -0.8641  1.6183  0.2256
19034TIP3    H278518   6.627   1.222  13.909  0.3872 -1.4203 -1.1520
19035TIP3   OH278519   2.893   6.566   4.990  0.5761 -0.1033 -0.1080
19035TIP3    H178520   2.920   6.483   5.029  2.0342  0.8170  0.9508
19035TIP3    H278521   2.805   6.582   5.026  0.0994 -1.3683 -0.6686
19036TIP3   OH278522   5.056   6.353  14.630 -0.1003  0.3944 -0.5558
19036TIP3    H178523   4.971   6.374  14.592 -1.0088 -2.4393 -0.3090
19036TIP3    H278524   5.082   6.433  14.675 -1.5267  2.0825 -2.5134
19037TIP3   OH278525   6.778   2.559   2.719 -0.1583 -0.4711  0.0429
19037TIP3    H178526   6.872   2.545   2.718 -0.1030 -0.1429 -1.2406
19037TIP3    H278527   6.761   2.606   2.800  1.3432  2.9213 -1.4293
19038TIP3   OH278528   2.368   1.791  12.729  0.4549  0.0254 -0.1354
19038TIP3    H178529   2.382   1.861  12.665 -0.5875 -0.6887 -1.1902
19038TIP3    H278530   2.364   1.836  12.813  1.5044  1.0327 -0.5829
19039TIP3   OH278531   6.734   0.145  14.289 -0.0673 -0.3821 -0.1460
19039TIP3    H178532   6.683   0.065  14.288 -0.5639 -0.0996  1.0783
19039TIP3    H278533   6.699   0.196  14.362  1.6942 -0.0195  0.5172
19040TIP3   OH278534   0.075   3.394  15.904  0.0473  0.0839  0.3095
19040TIP3    H178535   0.147   3.457  15.898  0.3501 -0.2505  0.4900
19040TIP3    H278536   0.082   3.342  15.824 -0.7885  0.8932 -0.3325
19041TIP3   OH278537   3.284   4.386   1.653  0.1313  0.3085  0.3288
19041TIP3    H178538   3.215   4.452   1.662  0.2140  0.4160  0.1897
19041TIP3    H278539   3.240   4.302   1.668  0.0475  0.4020  0.6132
19042TIP3   OH278540   6.556   3.159  16.544  0.1822  0.6916 -0.7409
19042TIP3    H178541   6.524   3.140  16.632 -1.1233 -1.5986 -1.6206
19042TIP3    H278542   6.649   3.179  16.556 -0.0122  0.6386  1.1629
19043TIP3   OH278543   4.270   2.728   6.474  0.0377 -0.7044 -0.3566
19043TIP3    H178544   4.249   2.807   6.425  1.8216 -2.7979 -5.1171
19043TIP3    H278545   4.358   2.744   6.508  1.1405 -1.0623 -2.7988
19044TIP3   OH278546   1.389   4.992   0.755 -0.1743  0.0963  0.8401
19044TIP3    H178547   1.330   5.058   0.719  2.1920  1.3733 -1.0752
19044TIP3    H278548   1.421   4.945   0.678  2.1461  0.2797  1.6210
19045TIP3   OH278549   5.012   2.157  11.486  0.6471  0.0728 -0.1103
19045TIP3    H178550   4.947   2.135  11.420  2.0972  0.6499 -1.8078
19045TIP3    H278551   4.973   2.229  11.535 -0.5385 -0.5042 -0.1852
19046TIP3   OH278552   1.805   2.585   0.062 -0.0913  0.3609  0.6701
19046TIP3    H178553   1.881   2.553   0.111 -0.0272 -0.4020  0.0968
19046TIP3    H278554   1.730   2.545   0.106 -0.0380 -0.2714  0.2052
19047TIP3   OH278555   1.050   5.508   1.172 -0.3220  0.0275 -0.0550
19047TIP3    H178556   1.031   5.500   1.079  4.6089  3.8434 -1.8350
19047TIP3    H278557   0.997   5.583   1.201 -1.4470 -0.8191  0.1342
19048TIP3   OH278558   1.919   3.808  12.829  0.0518 -0.1276 -0.3740
19048TIP3    H178559   1.840   3.783  12.782 -0.4026 -0.2355  0.4343
19048TIP3    H278560   1.896   3.888  12.876  0.6547  0.2670 -0.7384
19049TIP3   OH278561   2.437   3.893   3.119  0.2691  0.0511 -0.1256
19049TIP3    H178562   2.519   3.939   3.101  0.5309 -0.1791  0.4654
19049TIP3    H278563   2.463   3.801   3.125  0.1552  0.0981  1.2043
19050TIP3   OH278564   0.052   2.978   1.695 -0.4236  0.4910  0.5165
19050TIP3    H178565   0.040   2.985   1.790 -0.7962  0.5164  0.4682
19050TIP3    H278566   0.005   3.053   1.660  1.7568  1.9208  0.4524
19051TIP3   OH278567   1.418   2.426  11.360  0.1579  0.1865 -0.2600
19051TIP3    H178568   1.420   2.346  11.307 -1.3485  0.4772 -0.8016
19051TIP3    H278569   1.362   2.486  11.310  0.9246  1.4300  0.3465
19052TIP3   OH278570   0.406   5.407  16.488  0.7935 -0.2578  0.0636
19052TIP3    H178571   0.407   5.445  16.576 -1.2492  0.7479 -0.2913
19052TIP3    H278572   0.368   5.320  16.500  0.0909  0.0526  0.1327
19053TIP3   OH278573   1.278   0.359   3.103 -0.2410 -0.5913  0.4886
19053TIP3    H178574   1.251   0.418   3.033 -0.3098 -2.2689 -0.9654
19053TIP3    H278575   1.285   0.415   3.181 -0.3517  1.2860 -0.8017
19054TIP3   OH278576   2.004   4.485  16.841  0.1855  0.2374  0.4173
19054TIP3    H178577   2.093   4.467  16.873  0.5418 -1.9083 -1.5808
19054TIP3    H278578   2.006   4.461  16.749 -2.0703  1.7185 -0.1014
19055TIP3   OH278579   5.264   1.987   1.993  0.0857  0.0301 -0.0935
19055TIP3    H178580   5.179   2.030   1.994  0.2416  0.3656  1.7624
19055TIP3    H278581   5.279   1.959   2.084  3.2424  2.6374  0.4007
19056TIP3   OH278582   4.900   5.395  12.916 -0.4487 -0.0374  0.5029
19056TIP3    H178583   4.960   5.444  12.860 -1.5925 -1.4127 -2.0983
19056TIP3    H278584   4.932   5.412  13.005  0.1588  4.0236 -0.2881
19057TIP3   OH278585   3.693   4.061  12.310  0.2817  0.4680 -0.4526
19057TIP3    H178586   3.739   4.117  12.373  1.5519  0.3193 -1.2081
19057TIP3    H278587   3.690   4.114  12.230 -1.3311  0.6630 -0.2975
19058TIP3   OH278588   0.196   0.198  11.333  0.7538  1.0284  0.4065
19058TIP3    H178589   0.268   0.135  11.321  1.0250  1.2341  0.8885
19058TIP3    H278590   0.225   0.276  11.285  1.0851  1.2797  0.9958
19059TIP3   OH278591   6.585   4.684  13.145 -0.5531  0.0303  0.2420
19059TIP3    H178592   6.617   4.757  13.091 -0.2386  0.3354  0.8223
19059TIP3    H278593   6.657   4.621  13.145 -0.5572  0.0256  0.2951
19060TIP3   OH278594   0.249   5.348  14.277  0.2602  0.6946 -0.8145
19060TIP3    H178595   0.233   5.440  14.298 -0.1849  0.3792  0.2920
19060TIP3    H278596   0.162   5.309  14.276  0.6096 -0.3242  1.7538
19061TIP3   OH278597   3.604   5.742  12.005 -0.4843 -0.4715 -0.3031
19061TIP3    H178598   3.562   5.821  12.039  1.2414  0.8520 -1.0367
19061TIP3    H278599   3.592   5.677  12.073 -2.6954  0.1432 -0.0237
19062TIP3   OH278600   5.561   4.320  14.517 -0.1945  0.4414  0.0165
19062TIP3    H178601   5.469   4.348  14.521 -0.2799  0.3935 -1.1804
19062TIP3    H278602   5.606   4.392  14.473  0.0587 -0.1748 -0.7461
19063TIP3   OH278603   0.992   5.855   0.475  0.2683  0.0837 -0.4309
19063TIP3    H178604   0.902   5.867   0.505  0.6708  0.6407  0.6114
19063TIP3    H278605   1.015   5.766   0.502  0.7412  0.6940  1.3187
19064TIP3   OH278606   3.920   1.618   4.175  0.3073  0.0323 -0.4554
19064TIP3    H178607   3.957   1.558   4.110  0.7021 -1.1764  0.8305
19064TIP3    H278608   3.930   1.572   4.258 -2.4270  0.4380  0.1922
19065TIP3   OH278609   1.769   3.253  16.171  0.0763  0.6767 -0.6089
19065TIP3    H178610   1.849   3.304  16.181  0.3829  0.2064 -0.6419
19065TIP3    H278611   1.792   3.165  16.199  0.0754  0.1017 -2.3051
19066TIP3   OH278612   5.613   3.958  12.427  0.2634  0.5171  0.1557
19066TIP3    H178613   5.591   4.045  12.394  1.0902  0.2998 -1.0242
19066TIP3    H278614   5.701   3.967  12.462 -0.7549  0.8489  2.8362
19067TIP3   OH278615   3.882   0.264   0.226 -0.1004  0.1573  0.0928
19067TIP3    H178616   3.811   0.257   0.291 -0.8659  1.0812 -0.6154
19067TIP3    H278617   3.861   0.343   0.176  1.5484  0.5531 -0.0210
19068TIP3   OH278618   3.521   3.832   4.550  0.4801 -0.1270 -0.4011
19068TIP3    H178619   3.477   3.904   4.503  0.4183 -0.8341 -1.4674
19068TIP3    H278620   3.450   3.779   4.585  0.5135 -0.1291 -0.3362
19069TIP3   OH278621   5.032   5.512  14.836 -0.8491 -0.3981  0.3974
19069TIP3    H178622   5.066   5.524  14.925 -0.6103 -0.0439  0.2603
19069TIP3    H278623   5.069   5.585  14.787 -0.5575 -0.8816 -0.1107
19070TIP3   OH278624   2.128   3.719   4.824  0.2574  0.1931  0.6403
19070TIP3    H178625   2.221   3.709   4.842  0.5736 -0.8164 -1.2389
19070TIP3    H278626   2.117   3.811   4.800  0.7413  0.3463  1.0040
19071TIP3   OH278627   2.513   1.831   4.053  0.4457 -0.7093 -0.9031
19071TIP3    H178628   2.552   1.752   4.091 -0.5753 -0.2794  1.2243
19071TIP3    H278629   2.587   1.880   4.017  1.7297 -0.6313  1.6356
19072TIP3   OH278630   2.952   3.599  12.683  0.1702  0.2358 -0.0762
19072TIP3    H178631   2.945   3.539  12.758  0.3257  0.6447  0.2697
19072TIP3    H278632   2.911   3.680  12.714  2.0932  1.1170  0.3208
19073TIP3   OH278633   1.699   5.527   5.667  0.1314 -0.5450  0.5086
19073TIP3    H178634   1.673   5.609   5.710 -0.5046 -0.6798  0.3875
19073TIP3    H278635   1.663   5.534   5.578  0.3701 -0.8067  0.3906
19074TIP3   OH278636   3.109   1.401  15.233  0.0905  0.2495  0.1005
19074TIP3    H178637   3.045   1.439  15.172  1.3833  0.0049 -1.4869
19074TIP3    H278638   3.167   1.474  15.255 -0.0863  0.2210  0.6819
19075TIP3   OH278639   0.487   1.929  14.675 -0.0100  0.1305  0.0616
19075TIP3    H178640   0.417   1.967  14.622  0.9689  1.1837 -0.5198
19075TIP3    H278641   0.490   1.837  14.649 -0.0012  0.4778 -1.2412
19076TIP3   OH278642   5.334   4.448  11.597  0.2258 -0.6592 -0.3700
19076TIP3    H178643   5.409   4.499  11.628  0.5638 -0.1056 -2.0062
19076TIP3    H278644   5.266   4.462  11.664  2.0290 -2.5241  2.0578
19077TIP3   OH278645   2.945   5.669  14.553  0.4026  0.3929  0.0363
19077TIP3    H178646   2.911   5.704  14.635  0.6144 -1.2079  0.8450
19077TIP3    H278647   2.955   5.746  14.496  0.5278  1.5694  1.5937
19078TIP3   OH278648   4.030   3.203  17.189  0.4373  0.6471  0.2502
19078TIP3    H178649   4.006   3.284  17.234  1.0153 -0.2368  2.2622
19078TIP3    H278650   3.948   3.155  17.178  0.4759  0.0939  2.0520
19079TIP3   OH278651   4.605   1.148  11.667  0.3867 -0.5348  0.0974
19079TIP3    H178652   4.586   1.109  11.582 -0.2118 -3.1611  1.3179
19079TIP3    H278653   4.558   1.232  11.666 -1.3158 -1.4267 -1.4276
19080TIP3   OH278654   2.772   5.466   3.152 -0.1518 -0.2028 -0.6000
19080TIP3    H178655   2.774   5.371   3.137 -2.2380 -0.3606 -0.2380
19080TIP3    H278656   2.861   5.495   3.133  0.7778 -2.3481  0.1228
19081TIP3   OH278657   3.735   0.075   3.339  0.3330  0.1936  0.1662
19081TIP3    H178658   3.792   0.096   3.264 -2.4348  0.4145 -2.0616
19081TIP3    H278659   3.646   0.082   3.304 -1.0937 -1.4568  3.0732
19082TIP3   OH278660   5.775   2.946   5.186  0.0875 -0.0115  0.5970
19082TIP3    H178661   5.836   2.999   5.135 -1.2076  0.8140 -0.1751
19082TIP3    H278662   5.811   2.946   5.275  2.2333 -1.2256 -0.2197
19083TIP3   OH278663   1.553   6.264  16.338 -0.0236  0.5295 -0.1300
19083TIP3    H178664   1.491   6.285  16.268 -1.7073  2.5360  1.8088
19083TIP3    H278665   1.626   6.324  16.324  1.1869 -1.2334 -1.9016
19084TIP3   OH278666   2.948   4.118   2.591  0.3003  0.6342  0.4067
19084TIP3    H178667   3.028   4.070   2.568 -0.1340 -0.4100  0.9944
19084TIP3    H278668   2.951   4.127   2.686 -1.0632 -0.9491  0.6636
19085TIP3   OH278669   3.914   2.313   0.551  0.8387 -0.4866 -0.1659
19085TIP3    H178670   3.943   2.339   0.639  0.5659  0.5777 -0.3768
19085TIP3    H278671   3.936   2.388   0.496 -0.7723 -0.3339 -0.6506
19086TIP3   OH278672   0.761   5.897  14.820 -0.3028 -0.1262  0.3425
19086TIP3    H178673   0.790   5.847  14.744 -0.2395  0.6087 -0.1226
19086TIP3    H278674   0.822   5.971  14.825 -1.2885  0.7058  0.1520
19087TIP3   OH278675   2.266   6.687   5.567 -0.7834 -0.1262  0.3827
19087TIP3    H178676   2.250   6.664   5.475  0.4627 -0.7524  0.2967
19087TIP3    H278677   2.278   6.603   5.611  0.7623  0.2133  0.6820
19088TIP3   OH278678   5.859   6.666  13.720 -0.2361  0.2695  0.0403
19088TIP3    H178679   5.915   6.645  13.795 -0.3451  0.4940  0.1863
19088TIP3    H278680   5.800   6.591  13.712  1.7225 -1.1802 -1.6954
19089TIP3   OH278681   6.629   2.875   2.753 -0.2158 -0.0711 -0.4772
19089TIP3    H178682   6.564   2.847   2.817  0.8487 -0.0340  0.6505
19089TIP3    H278683   6.683   2.940   2.798  2.0055 -1.7127 -0.5792
19090TIP3   OH278684   5.154   2.670  14.531 -0.0864 -0.0878  0.0548
19090TIP3    H178685   5.156   2.620  14.613 -0.9436 -1.3009 -0.6370
19090TIP3    H278686   5.131   2.606  14.464  1.1446  0.7672 -1.2450
19091TIP3   OH278687   4.048   2.589   6.720  0.1253  0.3439 -0.0261
19091TIP3    H178688   4.110   2.551   6.782  1.6530  0.0107 -1.6519
19091TIP3    H278689   4.065   2.683   6.722 -0.0884  0.3745  0.3256
19092TIP3   OH278690   4.320   5.965   5.936  0.0192  0.2908 -0.1647
19092TIP3    H178691   4.354   5.960   5.847  0.5658  0.9117  0.0057
19092TIP3    H278692   4.360   6.043   5.974 -0.7012  0.3986  0.4193
19093TIP3   OH278693   3.448   4.449   3.894  0.2423  0.2415  1.0473
19093TIP3    H178694   3.443   4.353   3.897  0.3890  0.1657 -0.4646
19093TIP3    H278695   3.365   4.476   3.856  0.2734  0.7099  1.3064
19094TIP3   OH278696   5.663   0.332  16.166 -0.0186  0.1869 -0.2685
19094TIP3    H178697   5.674   0.237  16.153  0.9000  0.0378  1.4256
19094TIP3    H278698   5.600   0.339  16.237 -0.6730  0.8910 -0.8983
19095TIP3   OH278699   0.545   5.995   3.547 -0.7195  0.5107  0.1514
19095TIP3    H178700   0.613   6.061   3.534 -0.7361  0.5777  0.4018
19095TIP3    H278701   0.584   5.913   3.515 -1.0197  0.8007 -0.9978
19096TIP3   OH278702   4.204   3.639   2.263 -0.5648  0.6131  0.2967
19096TIP3    H178703   4.112   3.617   2.250  0.5417 -4.0151 -1.2826
19096TIP3    H278704   4.243   3.635   2.176  1.8657 -2.0627  1.3585
19097TIP3   OH278705   6.231   5.619  11.404 -0.1347  0.1119 -0.1337
19097TIP3    H178706   6.259   5.646  11.492  0.2498  1.8012 -0.7256
19097TIP3    H278707   6.143   5.655  11.395 -0.1839 -0.0846 -0.4379
19098TIP3   OH278708   0.750   3.788  14.695  0.0036 -0.8214  0.5559
19098TIP3    H178709   0.697   3.828  14.626 -2.2939 -1.6131  1.7850
19098TIP3    H278710   0.798   3.719  14.649  2.8826  2.0775 -1.2869
19099TIP3   OH278711   1.640   2.034  11.147 -0.2643 -0.0864  0.1105
19099TIP3    H178712   1.702   2.106  11.136 -2.0581  1.5662  0.3357
19099TIP3    H278713   1.636   1.992  11.060 -0.3066  1.0465 -0.4484
19100TIP3   OH278714   1.422   1.075   1.225 -0.3834  0.1321 -0.7301
19100TIP3    H178715   1.482   1.024   1.279  0.2859 -0.1732 -1.7287
19100TIP3    H278716   1.470   1.089   1.143 -0.6767  2.0569 -0.6197
19101TIP3   OH278717   0.102   0.575   1.434  0.2316 -0.4083 -0.0349
19101TIP3    H178718   0.088   0.558   1.341 -0.0683  1.2521 -0.3249
19101TIP3    H278719   0.181   0.629   1.437  1.1772 -1.7696  0.8295
19102TIP3   OH278720   3.135   1.587  12.671 -0.5985 -0.2378 -0.1622
19102TIP3    H178721   3.199   1.647  12.709 -1.5159 -0.4295  1.8178
19102TIP3    H278722   3.107   1.631  12.590  2.2929 -0.3901 -1.3344
19103TIP3   OH278723   2.212   1.982  16.033  0.1336 -0.1132 -0.0067
19103TIP3    H178724   2.280   2.046  16.016  0.3877 -0.5780 -0.7967
19103TIP3    H278725   2.252   1.919  16.093 -0.7941  1.5802  2.5673
19104TIP3   OH278726   4.429   6.478  17.223 -0.4370 -0.5417  0.0834
19104TIP3    H178727   4.518   6.442  17.220 -0.9028 -1.7854  0.7188
19104TIP3    H278728   4.388   6.448  17.142  0.4710  2.2164 -1.5499
19105TIP3   OH278729   3.195   1.166   5.111 -0.5035  0.0079  0.3511
19105TIP3    H178730   3.108   1.155   5.071 -0.7382  0.7416  0.6358
19105TIP3    H278731   3.255   1.124   5.049 -0.8980  0.7970 -0.6067
19106TIP3   OH278732   1.684   1.571   4.586  0.9130  0.2724 -0.0765
19106TIP3    H178733   1.779   1.564   4.584  0.9393  0.6878 -0.3347
19106TIP3    H278734   1.666   1.663   4.567  0.4319  0.0140 -0.9248
19107TIP3   OH278735   1.744   2.805   1.069 -0.4715  0.5342 -0.0363
19107TIP3    H178736   1.799   2.872   1.109  0.2051 -1.1600  2.1063
19107TIP3    H278737   1.654   2.837   1.081 -0.1157  1.5947 -0.1298
19108TIP3   OH278738   0.700   2.778  15.627  0.3847  1.2358  0.3801
19108TIP3    H178739   0.652   2.853  15.663  0.0316  1.6677 -0.9256
19108TIP3    H278740   0.632   2.721  15.591  0.3309 -1.3289  4.0155
19109TIP3   OH278741   4.458   6.264   1.001 -0.0016  0.5609 -0.0453
19109TIP3    H178742   4.509   6.240   0.924  0.5451  1.0711  0.1566
19109TIP3    H278743   4.393   6.194   1.008 -0.4451  0.8039 -1.3145
19110TIP3   OH278744   6.417   2.292  17.224 -0.0436 -0.0179 -0.3500
19110TIP3    H178745   6.473   2.369  17.236 -0.1561  0.2354 -1.2878
19110TIP3    H278746   6.332   2.329  17.199 -0.1230 -0.4389 -0.7261
19111TIP3   OH278747   6.474   1.145   2.144  0.0729 -0.2756 -0.2494
19111TIP3    H178748   6.394   1.195   2.158 -0.6020 -1.2721 -0.4677
19111TIP3    H278749   6.509   1.180   2.062  1.9826  2.8625  1.6976
19112TIP3   OH278750   3.539   3.646   4.158  0.9190  0.2415  0.5204
19112TIP3    H178751   3.465   3.708   4.160  1.7463  1.2346  2.3257
19112TIP3    H278752   3.497   3.560   4.164 -0.1393  0.8227  3.8656
19113TIP3   OH278753   5.982   1.254  14.636 -0.0652 -0.0361  0.0158
19113TIP3    H178754   5.958   1.239  14.728  0.3999  0.4019  0.2165
19113TIP3    H278755   5.914   1.313  14.603 -0.6503 -0.7882 -0.1388
19114TIP3   OH278756   2.513   5.431  12.559 -0.4399  0.1011 -0.0262
19114TIP3    H178757   2.420   5.416  12.574 -0.7970 -0.5493 -2.4090
19114TIP3    H278758   2.556   5.352  12.591 -1.0150 -0.7188 -1.1959
19115TIP3   OH278759   6.777   5.267   2.853 -0.3967 -0.4192  0.0858
19115TIP3    H178760   6.798   5.285   2.944 -1.1221  0.4420  0.0973
19115TIP3    H278761   6.853   5.218   2.820 -1.0952 -2.7561  1.7101
19116TIP3   OH278762   4.734   2.167  14.164 -0.0023 -0.6542 -0.4272
19116TIP3    H178763   4.748   2.203  14.251 -1.8746  0.0708 -0.3616
19116TIP3    H278764   4.762   2.237  14.104 -1.4578  0.0756 -0.3217
19117TIP3   OH278765   5.278   1.126  12.141  0.3998  0.4473 -0.0760
19117TIP3    H178766   5.325   1.047  12.115 -0.5518 -0.5307  1.0519
19117TIP3    H278767   5.276   1.180  12.062 -2.1152 -2.2165 -2.0710
19118TIP3   OH278768   1.822   0.407   3.466 -0.0546 -0.0135 -0.0252
19118TIP3    H178769   1.830   0.331   3.408 -0.5635  0.0918 -0.2444
19118TIP3    H278770   1.909   0.447   3.466  0.3153 -0.7908  0.3706
19119TIP3   OH278771   0.370   1.642   4.914 -0.0920  0.3386 -0.6158
19119TIP3    H178772   0.275   1.647   4.926 -0.0548 -0.6406  0.2262
19119TIP3    H278773   0.393   1.555   4.945  1.5186  1.7214  2.4759
19120TIP3   OH278774   6.162   0.478   4.919 -0.1586  0.2330  0.5054
19120TIP3    H178775   6.119   0.527   4.989 -0.6514  0.2382  0.1991
19120TIP3    H278776   6.091   0.447   4.864  0.2340  0.3416 -0.0679
19121TIP3   OH278777   3.117   4.259  12.506 -0.6923 -0.1166  0.1607
19121TIP3    H178778   3.049   4.311  12.465  1.6939  2.1441 -1.2525
19121TIP3    H278779   3.132   4.301  12.591  0.0181  0.4206 -0.2217
19122TIP3   OH278780   1.111   3.077   4.570  0.0137 -0.0127  0.3352
19122TIP3    H178781   1.205   3.092   4.578 -0.1113  0.4044  1.0692
19122TIP3    H278782   1.077   3.157   4.530  0.1353 -0.6859 -1.2103
19123TIP3   OH278783   0.921   0.246  13.217  0.0229 -0.2070 -0.0563
19123TIP3    H178784   0.922   0.277  13.126 -0.9548  1.3136  0.4043
19123TIP3    H278785   0.872   0.164  13.214 -3.2880  1.6421 -0.4540
19124TIP3   OH278786   4.666   6.380  13.271  0.0203 -0.1662 -0.0523
19124TIP3    H178787   4.612   6.460  13.273  0.6911  0.3030 -0.2330
19124TIP3    H278788   4.618   6.318  13.326 -2.2204 -0.7631 -2.4490
19125TIP3   OH278789   5.166   5.404  12.695 -0.4410  0.6138 -0.6673
19125TIP3    H178790   5.240   5.432  12.750 -0.6597 -0.2926  0.1321
19125TIP3    H278791   5.120   5.485  12.672 -0.1470  1.0441  0.2227
19126TIP3   OH278792   6.236   5.627  11.673 -0.0336 -0.3269  0.0070
19126TIP3    H178793   6.246   5.568  11.748 -1.0217  0.3903  0.7417
19126TIP3    H278794   6.291   5.702  11.695  0.6999 -0.6773 -0.6125
19127TIP3   OH278795   2.693   0.951   5.395 -0.1308 -0.0763 -0.5462
19127TIP3    H178796   2.660   0.903   5.471 -0.6298 -0.4054 -0.9695
19127TIP3    H278797   2.675   1.043   5.415  0.5500 -0.0750  0.1280
19128TIP3   OH278798   5.544   1.136  13.424  0.0974 -0.3844 -0.2876
19128TIP3    H178799   5.458   1.174  13.441 -0.7769 -2.3757 -0.0216
19128TIP3    H278800   5.554   1.069  13.491  0.8181 -1.8043 -1.7583
19129TIP3   OH278801   2.341   1.442  14.414 -0.3802 -0.6077 -0.4260
19129TIP3    H178802   2.415   1.392  14.449  0.4911  0.6285 -0.4140
19129TIP3    H278803   2.346   1.428  14.319 -1.3614 -2.1195 -0.2869
19130TIP3   OH278804   1.818   0.893  13.753  0.2293  0.7805 -0.1738
19130TIP3    H178805   1.840   0.965  13.813 -0.2318  0.1709  0.7450
19130TIP3    H278806   1.745   0.847  13.795  0.3681 -0.1022 -0.8571
19131TIP3   OH278807   5.307   2.223   2.586  0.5922  0.4496  0.5305
19131TIP3    H178808   5.312   2.200   2.678 -2.2387  0.1799  0.6881
19131TIP3    H278809   5.272   2.312   2.585 -1.0561 -0.1717 -0.2669
19132TIP3   OH278810   1.111   3.573  14.746  0.1160 -0.3442  0.3168
19132TIP3    H178811   1.067   3.554  14.828  2.0895  1.1353  1.8133
19132TIP3    H278812   1.109   3.668  14.738 -1.3245 -0.4920 -2.1632
19133TIP3   OH278813   2.838   4.745  13.360 -0.0199 -0.3639 -0.1877
19133TIP3    H178814   2.781   4.809  13.317 -0.2611 -0.2230  0.3416
19133TIP3    H278815   2.916   4.794  13.384  0.3291 -0.5508 -0.8885
19134TIP3   OH278816   6.489   0.562  16.644  0.5304 -0.5225 -0.8408
19134TIP3    H178817   6.521   0.615  16.716  0.8941  0.0856 -1.4412
19134TIP3    H278818   6.522   0.605  16.565 -1.6684  0.0909 -1.5145
19135TIP3   OH278819   4.455   5.352  12.576  0.1916 -0.5967 -0.0984
19135TIP3    H178820   4.501   5.371  12.494 -0.5730 -2.3565 -0.9926
19135TIP3    H278821   4.519   5.304  12.628  1.1142  1.6143  0.9336
19136TIP3   OH278822   1.887   6.695  16.930  0.3861 -0.0253 -0.3627
19136TIP3    H178823   1.794   6.700  16.949  0.5737 -1.5038  1.2293
19136TIP3    H278824   1.905   6.601  16.921  1.4852  0.2991 -2.0033
19137TIP3   OH278825   5.654   6.595   3.208 -0.1144 -0.2664 -0.6673
19137TIP3    H178826   5.716   6.523   3.221 -0.4986 -0.5364 -0.3176
19137TIP3    H278827   5.600   6.568   3.134 -0.5804 -0.5663 -0.2249
19138TIP3   OH278828   3.906   1.503  15.077  0.0875  0.0789  0.0950
19138TIP3    H178829   3.821   1.474  15.110  0.4423  0.2418  1.2020
19138TIP3    H278830   3.898   1.599  15.074  0.4368  0.1473  0.8651
19139TIP3   OH278831   5.218   0.944   4.362  0.4923  0.2956  0.6283
19139TIP3    H178832   5.150   0.995   4.406  0.7765 -0.6818  2.3146
19139TIP3    H278833   5.281   1.009   4.332 -0.9585  1.1896 -0.6090
19140TIP3   OH278834   3.158   5.894  15.806 -0.3936 -0.5480 -0.1171
19140TIP3    H178835   3.246   5.885  15.771 -0.7078  1.0669 -1.4180
19140TIP3    H278836   3.168   5.878  15.900  1.2581 -0.4843 -0.2535
19141TIP3   OH278837   0.523   1.304  12.496 -0.7988  0.7583 -0.0623
19141TIP3    H178838   0.449   1.365  12.489 -0.6512  1.0916  1.0430
19141TIP3    H278839   0.535   1.271  12.407 -3.2024 -0.3782 -0.0580
19142TIP3   OH278840   5.704   5.411  13.973  0.3223  0.5179  0.3536
19142TIP3    H178841   5.723   5.500  14.004  0.2303  0.7137 -0.1313
19142TIP3    H278842   5.751   5.404  13.890  0.9882 -0.1821  0.7816
19143TIP3   OH278843   5.761   3.080   2.910  1.0314 -0.2106  0.1979
19143TIP3    H178844   5.679   3.122   2.937  1.2568 -0.6597  1.6581
19143TIP3    H278845   5.808   3.149   2.862 -0.1228  0.0874 -0.5532
19144TIP3   OH278846   6.213   6.485   5.688  0.0084  0.4591 -0.5359
19144TIP3    H178847   6.169   6.487   5.772  1.9245 -0.8150  0.5814
19144TIP3    H278848   6.235   6.576   5.669  0.6444  0.6429  0.9833
19145TIP3   OH278849   6.193   1.495  14.943 -0.0809 -0.0718 -0.6324
19145TIP3    H178850   6.228   1.439  15.013 -0.4655  1.7563  1.1226
19145TIP3    H278851   6.255   1.484  14.871  0.2056 -2.2170 -0.1336
19146TIP3   OH278852   1.846   3.878  12.052 -0.4723 -0.1763 -0.6258
19146TIP3    H178853   1.816   3.959  12.093  0.2675 -0.4544  0.4948
19146TIP3    H278854   1.940   3.878  12.066 -0.3246 -0.7178 -1.5737
19147TIP3   OH278855   5.162   2.826  16.216 -0.4854  0.1036 -0.2509
19147TIP3    H178856   5.174   2.918  16.193  1.3202 -0.2197 -0.7719
19147TIP3    H278857   5.245   2.800  16.256 -1.0021 -1.2727 -0.0101
19148TIP3   OH278858   3.220   2.795   1.224 -0.1779 -0.2831 -0.5182
19148TIP3    H178859   3.218   2.850   1.302  0.4434 -1.3845  0.2986
19148TIP3    H278860   3.309   2.761   1.221 -0.7361 -1.7806 -0.6227
19149TIP3   OH278861   0.720   3.755  14.388 -0.1205  0.9706  0.0887
19149TIP3    H178862   0.757   3.671  14.414 -2.0751 -0.7110 -2.0554
19149TIP3    H278863   0.773   3.784  14.314 -0.3027  0.8840 -0.0778
19150TIP3   OH278864   6.593   3.553   0.563  0.1617  0.4350  0.8159
19150TIP3    H178865   6.628   3.588   0.481 -1.0626  1.3136  0.6264
19150TIP3    H278866   6.566   3.631   0.612  0.5100 -0.1016  1.8906
19151TIP3   OH278867   3.144   0.173   2.327 -0.0408 -0.7226 -0.1050
19151TIP3    H178868   3.072   0.229   2.358  2.8232  2.2645  1.7542
19151TIP3    H278869   3.157   0.199   2.236 -1.0858 -1.1180 -0.3867
19152TIP3   OH278870   1.001   4.659  16.770  0.8961  0.1099 -0.6196
19152TIP3    H178871   1.028   4.750  16.760  0.1661  0.3240 -0.7312
19152TIP3    H278872   0.907   4.659  16.748  0.4792 -0.3550  0.9955
19153TIP3   OH278873   0.573   2.323  11.559 -0.6637  0.5509 -0.1679
19153TIP3    H178874   0.556   2.251  11.499  0.0871 -1.1365  1.5624
19153TIP3    H278875   0.509   2.312  11.629  0.4103  0.6598  0.8590
19154TIP3   OH278876   2.733   2.590  12.509  0.2050 -0.6030  0.1700
19154TIP3    H178877   2.708   2.515  12.563 -1.3983 -0.3622 -0.1964
19154TIP3    H278878   2.744   2.662  12.571 -1.1265 -0.4518  0.2470
19155TIP3   OH278879   3.184   5.367   3.202  0.0482 -0.1371  0.9056
19155TIP3    H178880   3.261   5.381   3.147 -1.7736 -0.7420 -1.9999
19155TIP3    H278881   3.180   5.272   3.214 -0.8691 -0.2307 -0.0068
19156TIP3   OH278882   2.957   1.050  12.589  0.4420  0.0626  0.0309
19156TIP3    H178883   3.031   0.990  12.599 -1.8681 -3.0241  0.0433
19156TIP3    H278884   2.984   1.111  12.520  2.9936 -0.7971  0.1587
19157TIP3   OH278885   5.800   0.298  14.169  0.0760  0.6805 -0.7436
19157TIP3    H178886   5.784   0.373  14.227 -2.4977  1.3356 -2.1340
19157TIP3    H278887   5.858   0.241  14.219  0.0011  2.3590  1.4277
19158TIP3   OH278888   4.946   3.268  14.931 -0.5355  0.0101 -0.2111
19158TIP3    H178889   5.039   3.244  14.925 -0.8482 -1.4030  0.1101
19158TIP3    H278890   4.930   3.324  14.855  0.0731 -1.5609 -1.5737
19159TIP3   OH278891   6.433   0.445  15.386  0.1002  0.6919  0.1821
19159TIP3    H178892   6.519   0.487  15.381 -0.6199  2.0674 -1.0804
19159TIP3    H278893   6.419   0.408  15.299 -0.2842 -0.1800  0.6000
19160TIP3   OH278894   0.991   2.407  17.076 -0.1028  0.4893 -0.5536
19160TIP3    H178895   0.947   2.491  17.070  0.9821  1.0313 -1.3101
19160TIP3    H278896   0.920   2.343  17.077 -0.9504  1.4192  0.4766
19161TIP3   OH278897   3.940   3.822   5.845 -0.1614  0.0787  0.1680
19161TIP3    H178898   4.003   3.878   5.799  0.7050  0.8580  2.2068
19161TIP3    H278899   3.974   3.733   5.833 -0.1095  0.2261 -0.8985
19162TIP3   OH278900   0.024   2.849   0.464 -0.4744 -0.3245 -0.4291
19162TIP3    H178901   0.085   2.784   0.498  2.8327  2.1872 -0.9789
19162TIP3    H278902  -0.004   2.899   0.541  0.3391  0.1507 -0.4274
19163TIP3   OH278903   2.929   4.306  13.462  0.0225  0.6377  0.1547
19163TIP3    H178904   2.859   4.353  13.506 -2.1806 -2.1773 -0.0960
19163TIP3    H278905   2.993   4.288  13.530 -1.3397 -0.0090  1.3083
19164TIP3   OH278906   4.643   2.121  15.657 -0.2103 -0.3199  0.8881
19164TIP3    H178907   4.616   2.173  15.581 -0.7487  1.2128  2.0577
19164TIP3    H278908   4.562   2.110  15.708 -0.4219 -3.5716  0.0330
19165TIP3   OH278909   6.289   1.427  13.512 -0.1161 -0.4496  0.2097
19165TIP3    H178910   6.366   1.479  13.534 -0.2687  0.3870 -1.1360
19165TIP3    H278911   6.245   1.413  13.595  0.3724  0.8703  0.7148
19166TIP3   OH278912   3.179   5.995  15.433 -0.0771  0.3046 -0.2649
19166TIP3    H178913   3.097   5.955  15.403  1.2474 -0.8184 -2.6919
19166TIP3    H278914   3.175   6.086  15.402 -0.6747  0.4511  0.2318
19167TIP3   OH278915   4.038   5.691  11.210 -0.0198 -0.7121  0.5812
19167TIP3    H178916   4.004   5.694  11.121 -1.4006 -0.9144  1.0761
19167TIP3    H278917   4.128   5.659  11.201 -0.4367 -1.5897 -0.6588
19168TIP3   OH278918   4.817   5.338   5.751  0.5729 -0.6313 -0.0024
19168TIP3    H178919   4.729   5.344   5.789 -0.5823 -0.0419 -2.5925
19168TIP3    H278920   4.873   5.382   5.815 -0.8366 -1.5973  2.0360
19169TIP3   OH278921   0.833   5.388   2.110  0.0539 -0.3283  0.1847
19169TIP3    H178922   0.894   5.434   2.167  0.2073 -0.8303  0.4247
19169TIP3    H278923   0.888   5.326   2.061 -0.3067 -0.9860  0.6131
19170TIP3   OH278924   2.773   4.388  14.806 -0.2953 -0.0975 -0.4475
19170TIP3    H178925   2.745   4.322  14.742  1.2843 -0.2376 -1.0250
19170TIP3    H278926   2.860   4.414  14.778  0.2466  0.2153  1.3785
19171TIP3   OH278927   5.709   2.539  14.583  0.1520 -0.2783  0.2979
19171TIP3    H178928   5.668   2.593  14.515 -0.7017 -1.1216  0.1102
19171TIP3    H278929   5.644   2.535  14.653  0.1489 -1.1429  0.2566
19172TIP3   OH278930   4.272   0.766  13.456  0.5827  0.0132 -0.7055
19172TIP3    H178931   4.182   0.770  13.489  1.5016 -0.9242  2.3005
19172TIP3    H278932   4.285   0.673  13.434  0.9598  0.0251 -0.5504
19173TIP3   OH278933   0.326   3.396   5.302  0.0664 -0.0641  0.2037
19173TIP3    H178934   0.379   3.375   5.224  1.4306  1.4169  0.6681
19173TIP3    H278935   0.341   3.323   5.362  0.3746 -0.3952 -0.2670
19174TIP3   OH278936   3.196   1.962   3.207 -0.1586  0.6063 -0.3020
19174TIP3    H178937   3.255   2.004   3.269 -1.4995  2.3631 -0.1436
19174TIP3    H278938   3.185   1.873   3.242 -1.6133  1.7900  2.6541
19175TIP3   OH278939   0.769   4.877   5.618  0.3623 -0.0853  0.0121
19175TIP3    H178940   0.736   4.788   5.610  1.4287 -0.5106  0.0935
19175TIP3    H278941   0.784   4.905   5.528 -0.4982  0.2261 -0.0395
19176TIP3   OH278942   3.964   4.428   4.322  0.1552  0.3631 -0.7013
19176TIP3    H178943   3.910   4.396   4.394 -0.2304 -0.2509 -1.2432
19176TIP3    H278944   3.912   4.410   4.243  1.2957 -0.6070 -1.2657
19177TIP3   OH278945   3.403   4.537  15.357 -0.2315 -0.6127  0.1001
19177TIP3    H178946   3.421   4.605  15.291  2.5181 -0.3250  1.0024
19177TIP3    H278947   3.416   4.582  15.440 -2.1727 -1.3524  0.8371
19178TIP3   OH278948   2.194   5.518  14.247  0.1530 -0.2745 -0.0058
19178TIP3    H178949   2.171   5.451  14.183  0.4577 -0.0694 -0.3347
19178TIP3    H278950   2.123   5.515  14.311  0.1817 -0.9330  0.0050
19179TIP3   OH278951   0.131   4.668  15.519 -0.2090  0.2443  0.1624
19179TIP3    H178952   0.126   4.573  15.515  2.3623 -0.0480  1.6949
19179TIP3    H278953   0.171   4.694  15.436 -3.6999  0.3926 -1.6322
19180TIP3   OH278954   6.402   3.526  17.168 -0.1629  0.2208 -0.1619
19180TIP3    H178955   6.464   3.579  17.219  2.0123 -3.0662  0.9587
19180TIP3    H278956   6.371   3.459  17.229 -0.7531 -1.3604 -2.0723
19181TIP3   OH278957   1.540   3.501   5.498  0.8223  0.1997  0.1417
19181TIP3    H178958   1.589   3.475   5.576  0.4943  0.5819  0.4797
19181TIP3    H278959   1.578   3.584   5.471  0.9814  0.0352 -0.1535
19182TIP3   OH278960   4.047   1.213   5.623 -0.2840 -0.2570  0.6260
19182TIP3    H178961   4.054   1.124   5.655 -0.3703  0.7922  3.9438
19182TIP3    H278962   3.954   1.234   5.629 -0.8887 -0.9423 -3.5612
19183TIP3   OH278963   2.672   2.244   4.330  0.1516  0.0850  0.1132
19183TIP3    H178964   2.702   2.153   4.325 -0.3687 -0.0211 -2.0670
19183TIP3    H278965   2.749   2.296   4.304 -0.4229  0.0288 -1.8549
19184TIP3   OH278966   6.713   4.621   5.075  0.6222  0.1723  0.3300
19184TIP3    H178967   6.747   4.547   5.025 -2.2548 -1.9219  1.2086
19184TIP3    H278968   6.783   4.645   5.135  2.8564  0.4687 -2.1914
19185TIP3   OH278969   0.580   2.521   2.184 -0.1408 -0.2728 -0.1946
19185TIP3    H178970   0.498   2.570   2.197 -0.5404 -1.1264  0.6481
19185TIP3    H278971   0.616   2.557   2.103 -1.4860 -0.0480 -0.7339
19186TIP3   OH278972   4.548   2.788  16.534  0.4744  0.5702  0.4446
19186TIP3    H178973   4.563   2.736  16.455  1.0285 -0.7957  1.4000
19186TIP3    H278974   4.628   2.839  16.545  1.0989 -0.5002  1.0149
19187TIP3   OH278975   1.662   0.348   5.921  0.0069  0.3624  0.6692
19187TIP3    H178976   1.725   0.290   5.963 -1.4249 -2.5372 -0.9331
19187TIP3    H278977   1.709   0.386   5.847  1.0270  1.5241  1.8633
19188TIP3   OH278978   2.887   2.793   4.647 -0.4736  0.1456 -0.4276
19188TIP3    H178979   2.976   2.807   4.615 -0.3937  3.3337  0.8320
19188TIP3    H278980   2.835   2.780   4.568  0.6192  1.7117 -1.4649
19189TIP3   OH278981   4.882   5.940   6.247 -0.8200 -0.2893  0.2168
19189TIP3    H178982   4.972   5.965   6.267 -0.4757 -1.5542  0.3052
19189TIP3    H278983   4.829   5.983   6.314 -0.1667 -0.4340  0.8339
19190TIP3   OH278984   4.686   0.746   3.158 -0.4291  0.0827  0.0342
19190TIP3    H178985   4.653   0.744   3.248 -2.4077  0.1511 -0.6342
19190TIP3    H278986   4.669   0.835   3.128  1.9968  0.6504  0.1572
19191TIP3   OH278987   3.339   5.059  13.834  0.5466  0.0789 -0.7685
19191TIP3    H178988   3.408   5.118  13.803  0.5251 -0.1031 -1.1630
19191TIP3    H278989   3.257   5.100  13.805  0.4202  0.7805  0.4956
19192TIP3   OH278990   0.968   2.374   3.911  0.2500 -0.4329 -0.5078
19192TIP3    H178991   0.879   2.352   3.884  0.9685 -1.9466 -1.7354
19192TIP3    H278992   1.001   2.295   3.953 -0.1633  1.2158  3.3665
19193TIP3   OH278993   0.676   0.807  14.604 -0.2149  0.3144  0.0542
19193TIP3    H178994   0.754   0.827  14.656  2.1090 -0.8752 -2.7106
19193TIP3    H278995   0.644   0.723  14.639 -0.6922  1.0898  1.5790
19194TIP3   OH278996   1.888   2.278   2.683  0.7861  0.5371  0.1591
19194TIP3    H178997   1.950   2.205   2.680 -0.6529 -0.7012 -0.8969
19194TIP3    H278998   1.914   2.328   2.760  1.0744 -1.7762  1.6692
19195TIP3   OH278999   1.159   3.651   6.791  0.1541  0.1659 -0.0158
19195TIP3    H179000   1.182   3.562   6.764 -0.4041  0.2517 -0.8054
19195TIP3    H279001   1.070   3.643   6.825  0.4264  0.2747  0.7539
19196TIP3   OH279002   0.147   2.966  12.454 -0.2066 -0.3348  0.1989
19196TIP3    H179003   0.058   2.988  12.481  0.4224  1.9676  0.6259
19196TIP3    H279004   0.199   3.041  12.481  1.5804 -0.8541 -1.5905
19197TIP3   OH279005   1.780   6.167   4.812 -0.0068  0.2369 -0.2717
19197TIP3    H179006   1.760   6.092   4.869  0.6090 -0.2812 -0.7253
19197TIP3    H279007   1.856   6.208   4.853 -0.3323  0.6132 -0.0347
19198TIP3   OH279008   0.736   5.335   0.280  0.3760 -0.2510 -0.3170
19198TIP3    H179009   0.696   5.421   0.275 -1.1773 -0.9494 -0.4242
19198TIP3    H279010   0.824   5.347   0.244 -1.4394  0.3266 -5.2285
19199TIP3   OH279011   5.506   2.505  13.708 -0.2074  0.4320 -0.3319
19199TIP3    H179012   5.459   2.529  13.787 -0.4298 -3.4246  0.9058
19199TIP3    H279013   5.593   2.479  13.739 -1.0563 -3.5337 -0.7790
19200TIP3   OH279014   5.363   4.170   3.681  0.8713 -0.0819  0.8814
19200TIP3    H179015   5.400   4.091   3.719  0.0547 -0.3519  1.1422
19200TIP3    H279016   5.401   4.242   3.732  1.0881 -0.3439  1.0904
19201TIP3   OH279017   0.736   4.624  13.588  0.1912 -0.2951 -0.6243
19201TIP3    H179018   0.742   4.698  13.648  1.9250  0.5892 -1.7980
19201TIP3    H279019   0.796   4.559  13.623  0.3477 -0.2368 -0.7821
19202TIP3   OH279020   1.201   0.042  11.608  0.8985  0.0748  0.1410
19202TIP3    H179021   1.174   0.111  11.669 -0.0417 -0.6354  0.5396
19202TIP3    H279022   1.231   0.090  11.530 -0.4004  0.9291  0.1396
19203TIP3   OH279023   5.769   1.248   1.627 -0.1571 -0.7050 -0.2133
19203TIP3    H179024   5.735   1.211   1.545 -0.1616 -0.8221 -0.1587
19203TIP3    H279025   5.859   1.216   1.632 -0.5477 -1.7771  0.4730
19204TIP3   OH279026   0.736   3.078  12.518  0.1879 -0.1212  0.3134
19204TIP3    H179027   0.698   3.069  12.606 -1.5403 -0.4291 -0.4257
19204TIP3    H279028   0.666   3.050  12.459  2.0011 -2.0253 -1.0935
19205TIP3   OH279029   3.985   0.128  11.356 -0.0357  1.1799 -0.0662
19205TIP3    H179030   3.959   0.036  11.357 -0.3977  1.2695 -0.6318
19205TIP3    H279031   4.059   0.131  11.295 -0.0984  1.2838 -0.1363
19206TIP3   OH279032   4.034   2.684  15.377  0.3637 -0.0637  0.0992
19206TIP3    H179033   4.128   2.685  15.360  0.3277  0.4814 -0.0781
19206TIP3    H279034   4.019   2.758  15.436  0.1052 -0.4017  0.4658
19207TIP3   OH279035   5.963   0.940  13.088 -0.0674  0.1770  0.0078
19207TIP3    H179036   6.032   0.875  13.076  1.0933  1.3639  0.1200
19207TIP3    H279037   6.008   1.019  13.115 -1.4163  1.1667 -0.5157
19208TIP3   OH279038   5.141   5.499   0.400  0.3735 -0.3964 -0.2823
19208TIP3    H179039   5.165   5.449   0.322  0.5462 -1.8836  0.6815
19208TIP3    H279040   5.060   5.457   0.430  0.1400  0.3670  0.1567
19209TIP3   OH279041   4.884   3.690  14.146 -0.0144  0.0972 -0.2919
19209TIP3    H179042   4.897   3.600  14.113  1.0317  0.3605 -0.6431
19209TIP3    H279043   4.972   3.726  14.150 -0.5305  1.5529 -1.3937
19210TIP3   OH279044   5.834   1.029  12.486 -0.7464  0.1638  0.4313
19210TIP3    H179045   5.790   0.946  12.467 -1.2886  0.2200  1.3803
19210TIP3    H279046   5.885   1.048  12.408 -2.9989  0.4961 -1.0468
19211TIP3   OH279047   1.523   0.094  15.693 -0.2836  0.5023 -0.1594
19211TIP3    H179048   1.468   0.031  15.647  0.3551 -2.3754  2.6287
19211TIP3    H279049   1.466   0.132  15.760  0.4759 -1.0203  1.4480
19212TIP3   OH279050   4.586   5.648   3.744  0.2565 -0.0158  0.6535
19212TIP3    H179051   4.492   5.643   3.731 -0.1005  2.9324  1.4077
19212TIP3    H279052   4.598   5.645   3.839  0.8517  0.3389  0.5980
19213TIP3   OH279053   5.673   5.515   1.312 -0.2657  1.0652  0.0304
19213TIP3    H179054   5.714   5.548   1.232 -1.3918 -0.2445 -1.1460
19213TIP3    H279055   5.595   5.570   1.323 -0.8471  0.3945 -0.5813
19214TIP3   OH279056   3.612   2.743  11.170  0.4319  0.2424  0.3703
19214TIP3    H179057   3.577   2.694  11.095  0.6257 -0.5100  0.7527
19214TIP3    H279058   3.706   2.728  11.166  0.5066  0.7053  0.4125
19215TIP3   OH279059   0.023   5.162   4.860 -0.6216  0.1577 -0.1246
19215TIP3    H179060   0.040   5.256   4.862 -0.0257  0.0586 -0.1802
19215TIP3    H279061   0.002   5.139   4.951 -1.0449  0.3915 -0.1627
19216TIP3   OH279062   3.723   2.677   3.076 -0.5525 -0.1023  0.0860
19216TIP3    H179063   3.817   2.664   3.064 -0.6809 -2.7862  1.1749
19216TIP3    H279064   3.714   2.769   3.099  1.8778  0.1140  0.4311
19217TIP3   OH279065   6.542   4.160  14.886 -0.5402  0.7126 -0.2856
19217TIP3    H179066   6.465   4.117  14.850  0.9078 -0.2196 -2.4534
19217TIP3    H279067   6.539   4.141  14.980 -2.9891  0.8706 -0.2661
19218TIP3   OH279068   3.248   2.068   4.354  0.0254  0.2268  0.0458
19218TIP3    H179069   3.258   1.972   4.350 -2.2062 -0.2025  2.3853
19218TIP3    H279070   3.313   2.101   4.292  1.7434 -2.7392  0.0833
19219TIP3   OH279071   2.384   5.290  14.315 -0.1711 -0.2029  0.6361
19219TIP3    H179072   2.339   5.371  14.292 -0.1682 -0.5312 -0.6164
19219TIP3    H279073   2.345   5.263  14.398 -1.3701  0.2056  0.2234
19220TIP3   OH279074   0.573   3.669  13.608 -0.5086 -0.2214  0.1319
19220TIP3    H179075   0.667   3.653  13.607 -0.2501  1.1853  0.1202
19220TIP3    H279076   0.558   3.725  13.532 -1.4796 -1.0105 -0.2802
19221TIP3   OH279077   0.349   3.535  15.931  0.3963 -0.2317  0.4118
19221TIP3    H179078   0.337   3.630  15.941  0.7104 -0.1998  0.5126
19221TIP3    H279079   0.313   3.497  16.011 -0.0641 -0.2255  0.2084
19222TIP3   OH279080   0.210   0.269   6.087 -0.2960 -0.6972 -0.0046
19222TIP3    H179081   0.154   0.280   6.164  0.7195  0.2571  0.6179
19222TIP3    H279082   0.299   0.270   6.121  0.1339 -1.9158 -1.0153
19223TIP3   OH279083   6.433   6.556   3.879 -0.0030 -0.5385  0.0026
19223TIP3    H179084   6.461   6.563   3.970  0.8101  2.4778 -0.3509
19223TIP3    H279085   6.496   6.610   3.831 -2.2984  0.7188 -1.8227
19224TIP3   OH279086   5.932   3.899  13.113 -0.1416 -0.1829 -0.0238
19224TIP3    H179087   5.967   3.830  13.170  0.1724  0.0033  0.0157
19224TIP3    H279088   5.902   3.967  13.172  2.4069  1.1074 -0.0480
19225TIP3   OH279089   5.608   1.230  15.339 -0.2103  0.1630 -0.4672
19225TIP3    H179090   5.566   1.173  15.275 -0.9637  0.7619 -0.5196
19225TIP3    H279091   5.590   1.189  15.423  1.2542 -0.9296 -0.6412
19226TIP3   OH279092   0.193   6.051   2.873 -0.0559 -0.2660 -0.3569
19226TIP3    H179093   0.128   6.100   2.823 -0.9515 -0.6116  0.4540
19226TIP3    H279094   0.268   6.044   2.813 -0.7896  0.0345 -1.3443
19227TIP3   OH279095   5.680   1.223  16.681  0.3204 -0.3517  0.1007
19227TIP3    H179096   5.697   1.295  16.620  0.8510 -0.4057  0.1848
19227TIP3    H279097   5.696   1.261  16.767  0.6953 -0.5959  0.1381
19228TIP3   OH279098   4.855   5.703   1.968  0.0620 -0.3959  0.1002
19228TIP3    H179099   4.836   5.740   1.882 -0.9352 -0.6822  0.1864
19228TIP3    H279100   4.858   5.609   1.954  0.5239 -0.4076  0.2644
19229TIP3   OH279101   6.716   2.603   2.224 -0.6079 -1.0089  0.2644
19229TIP3    H179102   6.726   2.697   2.213  2.2868 -1.3292 -0.7478
19229TIP3    H279103   6.708   2.591   2.319 -0.0594  0.1968  0.4821
19230TIP3   OH279104   4.230   3.123   3.214 -0.4784  0.5387  0.1274
19230TIP3    H179105   4.280   3.103   3.294 -1.5274  0.4769  0.7913
19230TIP3    H279106   4.256   3.055   3.152 -1.3433 -0.8021  1.1812
19231TIP3   OH279107   0.173   5.285   0.004 -0.2202 -0.2996  0.6762
19231TIP3    H179108   0.125   5.331  -0.065 -1.2450 -1.0038  0.9007
19231TIP3    H279109   0.261   5.274  -0.031 -1.2915 -2.6889 -1.5441
19232TIP3   OH279110   5.833   5.966   3.864 -0.2090  0.1712  0.0980
19232TIP3    H179111   5.832   6.061   3.859 -1.0653  0.1145 -0.9311
19232TIP3    H279112   5.810   5.936   3.777  0.2673 -0.9943  0.3459
19233TIP3   OH279113   6.690   5.444   3.834  0.2388 -0.7234 -0.2249
19233TIP3    H179114   6.737   5.527   3.824 -1.2474  0.0660 -1.0250
19233TIP3    H279115   6.606   5.468   3.873  0.2616 -2.0218  0.6655
19234TIP3   OH279116   5.885   3.930  14.301  0.4743  0.0620 -0.4035
19234TIP3    H179117   5.961   3.884  14.337  1.8323  1.9094 -0.7335
19234TIP3    H279118   5.841   3.865  14.247  1.8961 -1.0484 -0.3015
19235TIP3   OH279119   5.629   0.057  11.899 -0.4210  0.7293  0.4441
19235TIP3    H179120   5.667   0.125  11.843  0.4120  0.8676  1.1587
19235TIP3    H279121   5.574   0.105  11.961 -2.4540  0.4768 -1.0595
19236TIP3   OH279122   3.251   2.167  14.942 -0.2367 -0.1467 -0.6050
19236TIP3    H179123   3.200   2.182  14.862 -0.0016  0.6867 -0.6004
19236TIP3    H279124   3.322   2.109  14.914 -0.6498 -0.5635 -0.8081
19237TIP3   OH279125   0.402   1.652   2.464  0.1010 -0.0151  0.2489
19237TIP3    H179126   0.308   1.652   2.481 -0.6995 -0.1033 -3.4013
19237TIP3    H279127   0.416   1.728   2.408  1.6492 -1.6094 -1.6577
19238TIP3   OH279128   2.022   5.370   5.115 -0.5208 -0.3830  0.2419
19238TIP3    H179129   2.106   5.327   5.097  0.2213  0.9874  0.2816
19238TIP3    H279130   2.021   5.381   5.210  0.5806  2.0562  0.0555
19239TIP3   OH279131   5.074   3.779  15.576 -0.3295 -0.4700  0.3578
19239TIP3    H179132   5.113   3.721  15.511  0.8907  0.3001  0.3787
19239TIP3    H279133   5.146   3.834  15.606 -1.3782  0.8433  0.5728
19240TIP3   OH279134   6.228   0.835   0.373  0.1960  0.2000  0.5380
19240TIP3    H179135   6.285   0.843   0.297 -0.6374 -0.1109 -0.1317
19240TIP3    H279136   6.244   0.746   0.405 -0.7717 -0.3109 -0.3623
19241TIP3   OH279137   4.139   3.897  15.613  0.4285 -0.1264  0.5438
19241TIP3    H179138   4.230   3.919  15.594  1.1963 -0.8790  3.0106
19241TIP3    H279139   4.113   3.957  15.682 -1.2954  0.6588 -0.7167
19242TIP3   OH279140   3.009   0.515  15.126  0.2775 -0.1844  0.1641
19242TIP3    H179141   3.053   0.533  15.209 -0.7930 -0.8522  0.9047
19242TIP3    H279142   2.966   0.598  15.103  0.5718 -0.0010  0.2731
19243TIP3   OH279143   6.035   2.234  10.983  0.0565 -0.0766 -0.0789
19243TIP3    H179144   6.006   2.263  11.070  1.5701  0.5639  0.2393
19243TIP3    H279145   5.969   2.270  10.924 -0.7050 -0.0657  0.7446
19244TIP3   OH279146   2.936   2.435  15.427  0.2282 -0.2614 -0.5096
19244TIP3    H179147   2.844   2.429  15.402  0.6751 -0.0566 -2.3468
19244TIP3    H279148   2.950   2.362  15.487 -0.4011 -2.3343 -2.7312
19245TIP3   OH279149   0.368   6.309   2.261  0.6524  0.3136 -0.3403
19245TIP3    H179150   0.424   6.237   2.290  2.6088  1.8432 -0.1141
19245TIP3    H279151   0.381   6.377   2.327 -1.7488  0.6596 -0.1166
19246TIP3   OH279152   1.757   5.616   6.003  0.3853 -0.3933 -0.1301
19246TIP3    H179153   1.807   5.536   6.018 -1.0640 -1.7528 -2.0026
19246TIP3    H279154   1.718   5.637   6.088  2.1615 -0.6346  0.7906
19247TIP3   OH279155   6.293   0.183   0.076  0.0157 -0.2912 -0.0607
19247TIP3    H179156   6.346   0.171   0.155  2.0803 -0.8091 -1.4570
19247TIP3    H279157   6.209   0.141   0.096  0.8093 -1.1724  1.5297
19248TIP3   OH279158   2.067   2.434   2.392 -0.2808  0.0807  0.0497
19248TIP3    H179159   2.071   2.518   2.346 -0.4156  1.6031  2.6245
19248TIP3    H279160   2.130   2.442   2.463  0.7151 -2.5797 -0.4056
19249TIP3   OH279161   4.429   3.826  16.502 -0.9193 -0.0523  0.0261
19249TIP3    H179162   4.459   3.916  16.516  1.4392 -0.7250 -0.3202
19249TIP3    H279163   4.398   3.824  16.412 -0.7309  0.3452 -0.0474
19250TIP3   OH279164   5.858   6.620  15.168  1.2147 -0.0628  0.7072
19250TIP3    H179165   5.933   6.641  15.223  3.4786 -1.5451 -1.5763
19250TIP3    H279166   5.883   6.539  15.124 -1.5544 -0.3460 -0.5571
19251TIP3   OH279167   1.193   6.779  12.363 -0.8497 -0.6913  0.0793
19251TIP3    H179168   1.116   6.732  12.395 -0.6994 -0.1136  1.3837
19251TIP3    H279169   1.158   6.854  12.315 -1.0840 -1.3267 -0.7608
19252TIP3   OH279170   2.950   3.861  13.825  0.4176  0.5068 -0.3328
19252TIP3    H179171   2.913   3.813  13.750  0.6494  1.8043 -1.3097
19252TIP3    H279172   2.900   3.830  13.900  0.8103 -1.5622 -0.8396
19253TIP3   OH279173   4.586   4.073  16.083 -0.2473  0.0365  0.4141
19253TIP3    H179174   4.645   4.077  16.007  1.6193  1.9501  1.8392
19253TIP3    H279175   4.582   3.980  16.106  3.3548 -0.0987  1.0092
19254TIP3   OH279176   6.216   1.106  12.930  0.5039  0.3987  0.4851
19254TIP3    H179177   6.154   1.055  12.878  1.4818 -0.5307  0.2067
19254TIP3    H279178   6.300   1.063  12.916  1.1652  1.4651  1.0940
19255TIP3   OH279179   0.646   2.347  12.509  0.1050  0.0134 -0.0868
19255TIP3    H179180   0.566   2.390  12.540  0.4211  0.0846  0.6547
19255TIP3    H279181   0.697   2.418  12.469 -0.0513  0.0327 -0.2531
19256TIP3   OH279182   6.779   6.472  16.152 -0.0544  0.1697 -0.0930
19256TIP3    H179183   6.711   6.488  16.086 -1.2152  2.5388  1.5191
19256TIP3    H279184   6.785   6.555  16.200  0.0575 -1.6567  3.3580
19257TIP3   OH279185   2.635   1.439  10.376 -0.1205 -0.1679  0.4746
19257TIP3    H179186   2.680   1.520  10.352  1.0925 -1.0305 -0.2838
19257TIP3    H279187   2.551   1.443  10.331 -0.6245  1.2127  1.4491
19258TIP3   OH279188   4.315   6.741   4.876 -0.4454  0.5765  0.1259
19258TIP3    H179189   4.339   6.814   4.819 -2.8535 -0.3223 -2.2836
19258TIP3    H279190   4.319   6.776   4.964  0.7898  2.8927 -0.7776
19259TIP3   OH279191   0.840   1.302   0.538  0.3642 -0.4028 -0.2481
19259TIP3    H179192   0.802   1.240   0.476  0.9470 -0.7077 -0.3065
19259TIP3    H279193   0.770   1.319   0.601  0.3520 -1.4997  0.0512
19260TIP3   OH279194   1.349   1.918  16.416 -0.0592  0.0920 -0.2320
19260TIP3    H179195   1.405   1.841  16.418 -1.8492 -1.2506  0.9306
19260TIP3    H279196   1.354   1.955  16.504 -0.7412  0.1175 -0.1930
19261TIP3   OH279197   5.102   3.842   2.371  0.2904  0.1945  0.1531
19261TIP3    H179198   5.193   3.824   2.393 -0.0752 -0.6197  1.0974
19261TIP3    H279199   5.078   3.773   2.310  0.7628  1.3787 -1.4386
19262TIP3   OH279200   2.443   4.804   5.455  0.1304  0.2362  0.7572
19262TIP3    H179201   2.475   4.866   5.520 -3.0503  1.6999  1.1440
19262TIP3    H279202   2.422   4.858   5.378 -0.3036 -0.7634  0.1475
19263TIP3   OH279203   5.640   3.862   1.035 -0.4172 -0.5293 -0.2352
19263TIP3    H179204   5.556   3.903   1.015 -1.2126 -1.8957  0.1918
19263TIP3    H279205   5.703   3.935   1.035 -1.5441  0.4794 -0.7946
19264TIP3   OH279206   4.647   3.883  14.553  0.3318 -0.4804 -0.4830
19264TIP3    H179207   4.673   3.868  14.462 -0.0562  2.1511 -1.1109
19264TIP3    H279208   4.555   3.908  14.547 -0.8391 -3.8002  1.0971
19265TIP3   OH279209   6.217   4.509  11.334 -0.1622 -0.2297  0.1762
19265TIP3    H179210   6.135   4.524  11.382 -0.4322 -1.7329  0.2405
19265TIP3    H279211   6.189   4.486  11.245  0.1731 -0.8981  0.2377
19266TIP3   OH279212   2.007   2.666   1.235 -0.9576  0.1344  0.7940
19266TIP3    H179213   1.937   2.601   1.236 -0.4539 -0.4611 -0.4721
19266TIP3    H279214   1.965   2.745   1.200 -0.8096 -0.5077 -0.9513
19267TIP3   OH279215   4.977   2.508  14.382  0.1804 -0.2490  0.2250
19267TIP3    H179216   4.995   2.455  14.304  2.0199 -0.4566  0.7397
19267TIP3    H279217   4.904   2.464  14.425  1.1861 -1.9783  0.2526
19268TIP3   OH279218   0.384   2.421   0.241 -0.1357 -0.0769 -0.5929
19268TIP3    H179219   0.380   2.506   0.197  0.1329  0.1748 -0.1384
19268TIP3    H279220   0.474   2.391   0.229  0.4164  0.7606  1.1789
19269TIP3   OH279221   1.047   6.129   3.082 -0.2261 -0.4465  0.3682
19269TIP3    H179222   1.031   6.217   3.047 -0.6644 -1.1589 -1.3397
19269TIP3    H279223   1.141   6.125   3.096 -0.5007  1.3581  3.6038
19270TIP3   OH279224   4.460   1.283   1.153  0.1854  0.6995 -0.1276
19270TIP3    H179225   4.464   1.355   1.216 -2.2931  0.8755 -0.0947
19270TIP3    H279226   4.400   1.314   1.085 -0.6780 -1.1957 -0.2930
19271TIP3   OH279227   4.693   2.918   5.122  0.2033  0.1212  0.3029
19271TIP3    H179228   4.742   2.987   5.077  0.6077  1.7556  3.0286
19271TIP3    H279229   4.722   2.923   5.213  0.2526 -3.6971  0.6840
19272TIP3   OH279230   6.122   6.092   4.912  0.0476 -0.5829  0.6586
19272TIP3    H179231   6.029   6.112   4.901 -0.3326 -1.6400  1.7694
19272TIP3    H279232   6.137   6.097   5.007  2.0556  3.4197  0.3251
19273TIP3   OH279233   0.324   6.421  14.587 -0.0230 -0.0249 -0.2909
19273TIP3    H179234   0.256   6.381  14.641  0.7407 -1.0506 -0.0634
19273TIP3    H279235   0.295   6.407  14.497 -2.0237  2.9349 -0.2412
19274TIP3   OH279236   5.820   2.467   3.771 -0.1166  0.1875 -0.0346
19274TIP3    H179237   5.847   2.431   3.856  1.0518  1.7190  0.3137
19274TIP3    H279238   5.741   2.517   3.791 -1.2209 -1.3689 -0.3469
19275TIP3   OH279239   0.566   0.998  15.279 -0.1711 -0.0431  0.0447
19275TIP3    H179240   0.593   1.090  15.280 -0.5375  0.0946 -0.9901
19275TIP3    H279241   0.477   0.999  15.313  0.1482 -0.1421  0.8999
19276TIP3   OH279242   6.561   3.406   3.916 -0.8319  0.5142  0.0007
19276TIP3    H179243   6.638   3.428   3.968 -0.3201 -0.6601 -0.2379
19276TIP3    H279244   6.566   3.465   3.841 -0.2728  0.5852  0.0847
19277TIP3   OH279245   3.574   1.874   2.678  0.0853  0.2530 -0.2374
19277TIP3    H179246   3.582   1.908   2.588  0.2479 -0.6591 -0.5789
19277TIP3    H279247   3.659   1.835   2.696 -0.6271 -1.5208 -0.5196
19278TIP3   OH279248   0.779   2.313   1.929 -0.0914  0.7914 -0.5580
19278TIP3    H179249   0.764   2.408   1.927  1.8220  1.1225 -0.7078
19278TIP3    H279250   0.826   2.298   2.011 -0.9156 -0.1478 -0.2281
19279TIP3   OH279251   4.706   1.741   5.958  0.2896  0.2012 -0.2195
19279TIP3    H179252   4.715   1.767   6.050 -1.2025  2.3163 -0.5800
19279TIP3    H279253   4.682   1.649   5.961 -0.7294  0.4745  1.5896
19280TIP3   OH279254   3.672   5.320   4.834 -0.3520  0.3478  0.0638
19280TIP3    H179255   3.647   5.239   4.790  0.6640 -1.2658  2.3204
19280TIP3    H279256   3.673   5.299   4.927 -0.3268  3.0487  0.7796
19281TIP3   OH279257   2.827   6.783  16.808 -0.8129  0.2066 -0.2532
19281TIP3    H179258   2.776   6.801  16.887 -1.0621  0.0937 -0.3863
19281TIP3    H279259   2.864   6.696  16.823  1.1722  1.1461  0.8067
19282TIP3   OH279260   0.020   4.253  14.435  0.4022  0.6309 -0.3231
19282TIP3    H179261   0.077   4.322  14.469 -1.1903  1.1437  1.4710
19282TIP3    H279262   0.060   4.171  14.464  1.2065  0.8616 -0.7312
19283TIP3   OH279263   1.129   6.393   4.321 -0.3118  0.2662  0.0926
19283TIP3    H179264   1.098   6.320   4.269 -0.8361  0.3823  0.2321
19283TIP3    H279265   1.083   6.384   4.405  2.2626 -1.2713  1.4383
19284TIP3   OH279266   5.163   1.461  11.357  0.4697  0.2503 -0.0412
19284TIP3    H179267   5.180   1.530  11.292 -0.4887 -0.5020 -1.1410
19284TIP3    H279268   5.078   1.425  11.331  0.8487 -1.1922  0.6356
19285TIP3   OH279269   2.946   3.716   0.560  0.5392  0.0607 -0.4084
19285TIP3    H179270   3.005   3.791   0.553 -0.8037  1.4196  1.6608
19285TIP3    H279271   2.886   3.725   0.485  0.5424  0.9341 -0.3148
19286TIP3   OH279272   6.030   3.168  12.819  0.3168  0.5311 -0.8175
19286TIP3    H179273   6.065   3.080  12.806 -2.1142 -0.6132 -0.0116
19286TIP3    H279274   6.057   3.216  12.740  2.0446 -0.7511 -1.0675
19287TIP3   OH279275   4.406   3.791  15.865  0.4436  0.2085  0.0888
19287TIP3    H179276   4.454   3.747  15.935 -1.7563 -0.7755  1.0637
19287TIP3    H279277   4.467   3.794  15.792  2.1543 -0.4751  1.4316
19288TIP3   OH279278   3.654   6.418   4.145 -0.6910 -0.1547 -0.1854
19288TIP3    H179279   3.607   6.483   4.196 -1.2475 -0.3348 -0.4611
19288TIP3    H279280   3.723   6.386   4.204  1.2000  2.4130 -0.8425
19289TIP3   OH279281   0.490   3.321   0.997  0.2340  0.2867  0.0082
19289TIP3    H179282   0.399   3.346   0.981 -0.3386 -0.6970  1.5038
19289TIP3    H279283   0.541   3.398   0.974 -1.1869  1.7330  1.5022
19290TIP3   OH279284   5.415   2.768  15.559 -0.0881  0.1088 -0.2737
19290TIP3    H179285   5.346   2.801  15.617  1.6806 -0.2526  2.1932
19290TIP3    H279286   5.376   2.690  15.518 -1.8777  1.1844 -0.7330
19291TIP3   OH279287   4.322   3.960  13.512  0.0221 -0.4980 -0.2984
19291TIP3    H179288   4.235   3.928  13.537  0.0653 -0.1025  0.3852
19291TIP3    H279289   4.371   3.881  13.489 -0.5559 -0.7111 -0.8193
19292TIP3   OH279290   6.658   5.303  13.038 -0.0880 -0.3148  0.0663
19292TIP3    H179291   6.727   5.241  13.015 -0.5278 -0.6664 -0.3215
19292TIP3    H279292   6.593   5.249  13.084  0.5011  0.2553  1.6450
19293TIP3   OH279293   3.642   0.695   6.218 -0.1006 -0.1440  0.1003
19293TIP3    H179294   3.631   0.787   6.240 -1.2325 -0.1310 -0.4522
19293TIP3    H279295   3.733   0.676   6.241 -0.4763  0.5019  2.3582
19294TIP3   OH279296   6.635   0.226   6.128  0.3482  0.8761  0.2104
19294TIP3    H179297   6.700   0.268   6.184 -0.3631  1.8408  0.3605
19294TIP3    H279298   6.582   0.299   6.096 -1.0685  0.0765  0.6438
19295TIP3   OH279299   2.530   3.772  11.185 -0.6490 -0.1326  0.5402
19295TIP3    H179300   2.489   3.732  11.262 -1.2473  1.4953  1.1013
19295TIP3    H279301   2.596   3.709  11.158 -0.1945 -0.6027  2.5943
19296TIP3   OH279302   3.457   0.663   3.289 -0.3064 -0.3897 -0.3571
19296TIP3    H179303   3.409   0.734   3.247  1.4545  1.9558  1.3395
19296TIP3    H279304   3.516   0.630   3.221 -1.0065 -0.1374 -1.1083
19297TIP3   OH279305   3.653   5.839   4.407  0.2680  0.2594 -0.6457
19297TIP3    H179306   3.663   5.879   4.321  1.1264 -0.1766 -0.7579
19297TIP3    H279307   3.739   5.804   4.428  0.1351  0.5723  0.5028
19298TIP3   OH279308   2.296   4.756  13.974 -0.0015  0.2033 -0.0884
19298TIP3    H179309   2.275   4.699  13.900  0.8061 -0.1259 -0.0741
19298TIP3    H279310   2.228   4.737  14.039 -0.4069  0.1064 -0.5408
19299TIP3   OH279311   0.622   0.096  15.930  0.1453 -0.6556 -0.0198
19299TIP3    H179312   0.634   0.134  16.017 -2.5537 -1.2857  0.7354
19299TIP3    H279313   0.669   0.013  15.933  0.6407 -0.3633  0.5961
19300TIP3   OH279314   5.877   1.292   2.368  0.7763  0.6813 -0.8288
19300TIP3    H179315   5.859   1.328   2.455 -1.7399 -0.4146 -0.8411
19300TIP3    H279316   5.886   1.370   2.312 -0.1807  1.3648 -0.0631
19301TIP3   OH279317   0.746   2.776   3.263 -0.2466 -0.4939 -0.2542
19301TIP3    H179318   0.754   2.685   3.235 -1.3902 -0.8945  0.6407
19301TIP3    H279319   0.674   2.811   3.211  0.2398 -0.0745 -0.6502
19302TIP3   OH279320   0.319   4.096   1.291 -0.4058 -0.5795  0.1848
19302TIP3    H179321   0.379   4.159   1.250 -0.1054 -0.9698  0.0187
19302TIP3    H279322   0.312   4.025   1.228 -0.7656 -0.7028  0.3620
19303TIP3   OH279323   5.306   5.332   3.132  0.3901 -0.1439 -0.2066
19303TIP3    H179324   5.330   5.417   3.096  0.0601 -0.3354 -0.8937
19303TIP3    H279325   5.210   5.332   3.133  0.3675 -0.7636 -0.8801
19304TIP3   OH279326   4.928   5.590  17.098  0.1289  0.2168  0.3337
19304TIP3    H179327   4.886   5.512  17.133 -0.0195  0.4976  0.7937
19304TIP3    H279328   4.866   5.625  17.035  0.0562  0.1424  0.3657
19305TIP3   OH279329   3.981   6.643   4.185 -0.5124  0.1934 -0.0542
19305TIP3    H179330   4.036   6.642   4.107 -2.5279 -2.3656 -1.6217
19305TIP3    H279331   3.943   6.731   4.186  2.9901  1.8413  0.7871
19306TIP3   OH279332   3.894   3.915   4.659  0.4370 -0.2357  0.2593
19306TIP3    H179333   3.913   4.007   4.638 -0.0121  0.4403  2.5597
19306TIP3    H279334   3.867   3.877   4.575 -0.2331  1.9482 -0.5894
19307TIP3   OH279335   0.779   0.535  14.050 -0.3365  0.0541 -1.0012
19307TIP3    H179336   0.872   0.538  14.027  0.2597 -0.7289  1.0485
19307TIP3    H279337   0.778   0.539  14.145 -2.2248 -2.4661 -0.7956
19308TIP3   OH279338   4.604   0.895   5.580  0.7063 -0.7905 -0.1345
19308TIP3    H179339   4.579   0.819   5.633  1.2243  0.4814  2.0764
19308TIP3    H279340   4.546   0.965   5.609 -1.2828 -0.7297 -3.6861
19309TIP3   OH279341   4.338   0.756   0.529  0.0395  0.2241 -0.2576
19309TIP3    H179342   4.339   0.666   0.496 -0.2312 -0.2351  0.9509
19309TIP3    H279343   4.296   0.750   0.614  0.1337  1.4868 -0.1079
19310TIP3   OH279344   4.741   2.581   6.735  0.4636  0.3999 -0.3288
19310TIP3    H179345   4.757   2.670   6.703  2.1448 -0.2769 -1.5205
19310TIP3    H279346   4.828   2.545   6.749 -0.1974 -0.9954  0.3456
19311TIP3   OH279347   4.028   4.736  11.392 -0.6777  0.0778  0.3472
19311TIP3    H179348   4.033   4.648  11.355 -0.7673  0.0541  0.3911
19311TIP3    H279349   4.089   4.787  11.339 -3.6598  0.9985 -2.5283
19312TIP3   OH279350   4.059   6.540  12.687 -0.1049 -0.3961 -0.2636
19312TIP3    H179351   4.009   6.458  12.693  1.6443 -1.4112  1.8260
19312TIP3    H279352   4.149   6.512  12.672  0.6852  1.0449  1.4605
19313TIP3   OH279353   0.691   4.227   4.216 -0.3124  0.4248  0.3503
19313TIP3    H179354   0.604   4.267   4.219 -0.6572 -0.3058  0.3030
19313TIP3    H279355   0.710   4.203   4.307 -0.5478 -0.2205  0.2338
19314TIP3   OH279356   2.366   5.718  13.803 -0.5312 -0.0789  0.0545
19314TIP3    H179357   2.309   5.698  13.729 -2.0010 -1.3380  1.4515
19314TIP3    H279358   2.325   5.674  13.877  0.4024  1.8522  1.8227
19315TIP3   OH279359   1.822   2.770  15.765  1.0866 -0.2407  0.2332
19315TIP3    H179360   1.816   2.764  15.860  0.4249  1.6763  0.3687
19315TIP3    H279361   1.781   2.854  15.744 -0.7205 -1.5535 -1.9388
19316TIP3   OH279362   3.552   5.899   2.512  0.6308  0.5225 -0.0681
19316TIP3    H179363   3.612   5.967   2.543 -0.9533  2.4789 -1.0893
19316TIP3    H279364   3.603   5.849   2.448  1.5974  1.2283  0.1284
19317TIP3   OH279365   1.509   3.287  16.342  0.8270  0.2477  0.2718
19317TIP3    H179366   1.562   3.366  16.333  0.9339 -0.0356 -2.3970
19317TIP3    H279367   1.419   3.317  16.330  0.8867 -0.0276 -0.9931
19318TIP3   OH279368   6.622   1.672  11.296 -0.3278  0.0088  0.2667
19318TIP3    H179369   6.655   1.625  11.220 -0.0236  1.0539 -0.2537
19318TIP3    H279370   6.585   1.603  11.352  1.6487 -1.0571  0.3272
19319TIP3   OH279371   2.710   0.922  12.527  0.3329  0.4546 -0.3080
19319TIP3    H179372   2.775   0.953  12.590  1.5446  0.0877 -1.3458
19319TIP3    H279373   2.741   0.953  12.442 -1.6148  1.5079 -0.7040
19320TIP3   OH279374   2.420   5.441   6.367  0.1111  0.7924 -0.2467
19320TIP3    H179375   2.330   5.421   6.393  0.7535 -1.4101  0.4760
19320TIP3    H279376   2.433   5.533   6.392 -1.5117  0.7575  0.8527
19321TIP3   OH279377   2.369   5.209   3.665  0.2252 -0.1209  1.2095
19321TIP3    H179378   2.351   5.156   3.743  0.7354 -1.2937  0.5608
19321TIP3    H279379   2.464   5.218   3.664  0.4796 -2.2594 -0.5808
19322TIP3   OH279380   3.019   1.298  14.148  0.0373 -0.0670  0.2123
19322TIP3    H179381   2.991   1.374  14.198 -1.5884 -0.3965 -0.1634
19322TIP3    H279382   3.030   1.229  14.213 -2.6999 -0.6795  0.1271
19323TIP3   OH279383   6.515   3.784   0.672 -0.1257 -0.3733  0.6562
19323TIP3    H179384   6.566   3.859   0.642  1.0930 -0.3867  2.5535
19323TIP3    H279385   6.427   3.800   0.637  0.5964  0.8573 -0.7045
19324TIP3   OH279386   4.643   1.483   5.961 -0.6694 -0.0314 -0.1780
19324TIP3    H179387   4.597   1.407   5.927  1.8137 -0.9428 -1.7878
19324TIP3    H279388   4.727   1.448   5.991 -0.2643  1.8022  0.9671
19325TIP3   OH279389   3.778   2.979   0.904  0.1359 -0.4236  0.2494
19325TIP3    H179390   3.869   2.947   0.903  0.5102  0.6080 -0.7053
19325TIP3    H279391   3.777   3.048   0.970  0.6012  0.9944 -1.1553
19326TIP3   OH279392   2.338   6.716  11.488 -0.4397  0.1272 -0.5743
19326TIP3    H179393   2.315   6.743  11.399 -0.6853 -1.4782 -1.0286
19326TIP3    H279394   2.324   6.621  11.489 -0.1192  0.0630  1.0835
19327TIP3   OH279395   2.496   5.690   0.996 -0.2436  0.2319  0.3466
19327TIP3    H179396   2.571   5.723   0.946  0.3694 -0.5613  0.7165
19327TIP3    H279397   2.435   5.659   0.929  0.7135 -1.1419  0.0529
19328TIP3   OH279398   1.808   1.074   4.344 -0.3384 -0.3174  0.0466
19328TIP3    H179399   1.885   1.054   4.396 -0.3313 -1.6551 -0.4397
19328TIP3    H279400   1.779   1.160   4.375  1.9389  0.7161 -0.4957
19329TIP3   OH279401   3.851   6.080   1.852  0.2638  0.2589  0.4649
19329TIP3    H179402   3.887   6.147   1.793  0.4019  0.8040  1.1560
19329TIP3    H279403   3.760   6.108   1.866 -0.3058 -0.8350 -0.8748
19330TIP3   OH279404   1.330   6.616  12.645 -0.3870 -0.2476  0.4349
19330TIP3    H179405   1.363   6.689  12.593 -1.4261  1.6023  2.2278
19330TIP3    H279406   1.398   6.601  12.711 -0.3435 -0.6638  0.3001
19331TIP3   OH279407   3.098   4.853  15.958  0.1296  0.4710 -0.0178
19331TIP3    H179408   3.053   4.859  15.874  0.3213  0.2770 -0.1342
19331TIP3    H279409   3.129   4.942  15.976  0.4232  0.4330 -0.3354
19332TIP3   OH279410   5.672   2.230  17.108 -0.2084 -0.1485 -0.0181
19332TIP3    H179411   5.617   2.156  17.082 -0.5819  0.5952 -1.4604
19332TIP3    H279412   5.611   2.291  17.149 -0.1371 -0.1107  0.0323
19333TIP3   OH279413   3.095   0.625  15.396 -0.4702  0.3276 -0.0444
19333TIP3    H179414   3.094   0.613  15.491  1.9774  0.8119  0.1040
19333TIP3    H279415   3.083   0.720  15.383 -0.0657  0.3608 -0.1811
19334TIP3   OH279416   3.808   6.042  11.531 -0.0165 -0.1182  0.3035
19334TIP3    H179417   3.808   6.135  11.511 -0.1440 -0.4362 -1.2939
19334TIP3    H279418   3.717   6.015  11.520 -0.1278 -0.2945  1.5231
19335TIP3   OH279419   3.988   1.592   2.462  0.3230 -0.1090  0.3380
19335TIP3    H179420   3.934   1.667   2.439 -0.3999 -0.2914  1.3502
19335TIP3    H279421   3.983   1.534   2.386  1.1644  0.9981 -0.5866
19336TIP3   OH279422   0.593   5.767  11.626  0.0473  0.9204  0.3969
19336TIP3    H179423   0.521   5.809  11.673  0.1492  0.4832  0.9519
19336TIP3    H279424   0.632   5.707  11.690  1.5362  1.8603  0.4388
19337TIP3   OH279425   5.290   3.239  12.212 -0.4419 -0.0416 -0.0522
19337TIP3    H179426   5.318   3.186  12.288 -0.6496 -1.1753 -0.7401
19337TIP3    H279427   5.298   3.329  12.242  2.0567 -0.3511  0.4638
19338TIP3   OH279428   4.502   5.454   3.369 -0.0309  0.0625  0.1486
19338TIP3    H179429   4.466   5.523   3.314 -1.1101  0.3410  1.1746
19338TIP3    H279430   4.469   5.473   3.457  0.2090 -1.3686  0.5733
19339TIP3   OH279431   1.772   3.365  13.303  1.0717 -0.1704 -0.2265
19339TIP3    H179432   1.865   3.385  13.295  0.8584  1.0880  0.2235
19339TIP3    H279433   1.729   3.450  13.312 -0.0638 -0.7543  0.1536
19340TIP3   OH279434   2.450   3.250  16.776  0.8551  0.3277 -0.4829
19340TIP3    H179435   2.378   3.304  16.807  0.5252 -0.2888 -0.1535
19340TIP3    H279436   2.408   3.173  16.738  1.3277  0.0917 -0.5414
19341TIP3   OH279437   5.890   3.475   3.746  0.2334  0.0833  0.7566
19341TIP3    H179438   5.913   3.513   3.661  0.8343 -1.0581  0.3928
19341TIP3    H279439   5.903   3.547   3.808 -1.0331  1.1976 -0.1908
19342TIP3   OH279440   4.679   5.407   2.304  0.5850  0.6538  0.1164
19342TIP3    H179441   4.628   5.472   2.352 -2.3526 -1.5297  0.2155
19342TIP3    H279442   4.670   5.431   2.212 -0.7324  0.2894  0.1308
19343TIP3   OH279443   1.339   4.070  14.294 -0.1256 -0.1707  0.1404
19343TIP3    H179444   1.310   4.110  14.212 -3.6603  0.6861  1.6315
19343TIP3    H279445   1.259   4.039  14.336  1.5187 -0.6703  3.2680
19344TIP3   OH279446   4.171   5.515   1.131  0.0230 -0.5101  0.0772
19344TIP3    H179447   4.203   5.576   1.198  0.2702 -0.2248 -0.2960
19344TIP3    H279448   4.079   5.501   1.153  0.1423 -0.5426  0.5689
19345TIP3   OH279449   2.378   4.548   2.286 -0.7158 -0.3537 -0.1205
19345TIP3    H179450   2.311   4.480   2.291 -0.2362 -0.7903  0.6166
19345TIP3    H279451   2.456   4.502   2.255 -0.0537 -0.4224  1.5606
19346TIP3   OH279452   2.335   0.924   0.308 -0.1929  0.6622 -0.0483
19346TIP3    H179453   2.250   0.881   0.318  0.9040 -1.5781  0.3606
19346TIP3    H279454   2.345   0.936   0.213 -0.9718  0.9626 -0.0968
19347TIP3   OH279455   1.597   4.495   3.267 -0.0858  0.0336  0.1813
19347TIP3    H179456   1.604   4.400   3.269 -0.9864 -0.0381  1.0565
19347TIP3    H279457   1.547   4.514   3.188  0.7506 -0.1566 -0.4016
19348TIP3   OH279458   4.770   4.245  15.554  0.1802  0.2071  0.2020
19348TIP3    H179459   4.864   4.232  15.562  0.1795  0.7273  1.1051
19348TIP3    H279460   4.734   4.156  15.547  0.6740 -0.0172  0.5085
19349TIP3   OH279461   5.967   6.258   3.028 -0.5675 -0.5566 -0.0077
19349TIP3    H179462   5.954   6.353   3.024 -2.1108 -0.7431 -0.2369
19349TIP3    H279463   5.974   6.230   2.936  1.5371 -0.5073  0.0884
19350TIP3   OH279464   4.878   5.663  15.457  0.2901 -0.4113 -0.0164
19350TIP3    H179465   4.821   5.659  15.534 -0.0127  0.9848 -0.1447
19350TIP3    H279466   4.863   5.579  15.412 -4.2395  1.0551 -1.7985
19351TIP3   OH279467   0.444   3.999  15.383 -0.4631  0.5304 -0.0109
19351TIP3    H179468   0.449   3.940  15.459 -0.6082 -1.7170 -1.6535
19351TIP3    H279469   0.351   4.020  15.376 -0.5482  0.1893  0.0437
19352TIP3   OH279470   5.123   2.216   5.160  0.0535  0.2160  0.4437
19352TIP3    H179471   5.062   2.280   5.122  1.4770  0.5731 -1.4223
19352TIP3    H279472   5.152   2.256   5.242  0.5188  1.7630 -0.4315
19353TIP3   OH279473   2.063   3.852  16.225  0.1326  0.8051  0.2614
19353TIP3    H179474   2.116   3.843  16.145  0.6662 -0.9954  0.7661
19353TIP3    H279475   2.013   3.933  16.212  0.3587  0.6659 -1.7957
19354TIP3   OH279476   1.496   2.312   5.610  0.5543  0.2092  0.1787
19354TIP3    H179477   1.464   2.285   5.524  0.9128 -0.6116  0.2950
19354TIP3    H279478   1.459   2.248   5.671 -0.1519  1.1052  0.7212
19355TIP3   OH279479   6.350   3.079   5.649 -0.4431  0.2601  0.0192
19355TIP3    H179480   6.342   3.167   5.613 -0.7248  1.2291  2.2974
19355TIP3    H279481   6.328   3.089   5.741 -3.0252 -2.6451 -0.1406
19356TIP3   OH279482   2.275   3.072   4.657  0.3380 -0.4001 -0.0852
19356TIP3    H179483   2.226   3.149   4.684  0.0484 -0.4840 -0.3690
19356TIP3    H279484   2.367   3.099   4.664  0.2700 -0.3745  0.8382
19357TIP3   OH279485   2.893   5.583  13.160  0.0019  0.4539 -0.5385
19357TIP3    H179486   2.819   5.590  13.221 -0.9576  1.4785 -1.7656
19357TIP3    H279487   2.970   5.602  13.213 -0.6750  0.0990  0.6110
19358TIP3   OH279488   4.558   6.711  13.055 -0.3051 -0.5132 -0.0869
19358TIP3    H179489   4.536   6.803  13.067  1.0104  0.2947 -2.8909
19358TIP3    H279490   4.499   6.681  12.986  1.3562 -0.8008 -1.4487
19359TIP3   OH279491   3.138   1.114  15.397  0.2110  0.8079  0.2847
19359TIP3    H179492   3.180   1.164  15.326  0.0138  0.5085 -0.0477
19359TIP3    H279493   3.209   1.097  15.459  0.3834  1.0874  0.1711
19360TIP3   OH279494   2.922   3.811  14.092 -0.1180 -0.4637  0.1701
19360TIP3    H179495   3.009   3.796  14.129 -0.1451 -2.9741 -0.5716
19360TIP3    H279496   2.902   3.729  14.046 -3.0488 -0.1209  0.6650
19361TIP3   OH279497   0.019   5.100  13.800 -0.2234  0.5511 -0.6666
19361TIP3    H179498   0.014   5.149  13.883 -1.2002  1.6176 -1.3230
19361TIP3    H279499   0.061   5.161  13.739  1.1273 -0.4819 -0.8070
19362TIP3   OH279500   3.225   1.595  15.941 -0.6962 -0.4037 -0.1571
19362TIP3    H179501   3.234   1.499  15.937 -2.0999 -0.5484 -0.5750
19362TIP3    H279502   3.146   1.613  15.890 -0.9309  0.9007  0.6392
19363TIP3   OH279503   2.573   1.254   5.188  0.0791 -0.5728  0.6402
19363TIP3    H179504   2.479   1.251   5.206  0.1311  0.7695  1.2611
19363TIP3    H279505   2.614   1.243   5.274  0.3784  3.5872  1.2191
19364TIP3   OH279506   5.095   4.655   0.436 -0.5552 -0.4170  0.2284
19364TIP3    H179507   5.060   4.743   0.421 -1.9004 -1.0114 -0.2854
19364TIP3    H279508   5.050   4.625   0.516  0.2672 -0.4615  0.6855
19365TIP3   OH279509   2.584   3.683  16.718  0.2951 -0.1164  0.0660
19365TIP3    H179510   2.590   3.589  16.700  0.2793 -0.1317  0.1445
19365TIP3    H279511   2.663   3.703  16.768  0.2205 -0.1173  0.1839
19366TIP3   OH279512   0.157   3.703  16.560  0.2786 -0.1447 -0.5566
19366TIP3    H179513   0.213   3.626  16.551 -0.6717 -0.7951 -0.9917
19366TIP3    H279514   0.159   3.724  16.653  1.5718  0.1027 -0.6178
19367TIP3   OH279515   3.426   1.745  16.688  0.0224 -0.2793  0.2371
19367TIP3    H179516   3.511   1.764  16.728 -0.0601 -2.0891  1.4255
19367TIP3    H279517   3.448   1.708  16.602  0.3505  0.6767 -0.0986
19368TIP3   OH279518   3.570   3.551  11.718  0.1963 -0.2827  0.3033
19368TIP3    H179519   3.649   3.533  11.668  0.2867  0.1512  0.2816
19368TIP3    H279520   3.570   3.646  11.730 -0.1268 -0.3181  0.6240
19369TIP3   OH279521   2.598   1.948   5.607 -0.2922  0.3863 -0.6576
19369TIP3    H179522   2.576   1.980   5.519  0.6511  2.1944 -0.2924
19369TIP3    H279523   2.673   1.890   5.593 -0.5057  0.2131 -1.1046
19370TIP3   OH279524   0.768   4.022  16.780  0.1332  0.3571 -0.6023
19370TIP3    H179525   0.765   4.056  16.691  1.0395 -1.9610 -1.5895
19370TIP3    H279526   0.712   3.945  16.778 -1.5162  1.3819  1.4441
19371TIP3   OH279527   6.754   6.510   0.172 -0.2744  0.2587 -0.2504
19371TIP3    H179528   6.768   6.460   0.091  0.0372 -0.0159 -0.0255
19371TIP3    H279529   6.696   6.582   0.145 -1.0098 -0.4121 -0.5010
19372TIP3   OH279530   6.320   1.199  11.082  0.0749  0.5954 -0.1995
19372TIP3    H179531   6.399   1.217  11.132  0.5073  0.2034 -0.7382
19372TIP3    H279532   6.271   1.282  11.085  0.0500  0.5666  0.9179
19373TIP3   OH279533   2.574   2.085   5.327  0.0940 -0.0581 -0.0116
19373TIP3    H179534   2.510   2.054   5.263 -1.1712  0.6001  0.8643
19373TIP3    H279535   2.622   2.154   5.281 -0.3977  0.0060 -0.4476
19374TIP3   OH279536   0.138   5.804  10.976  0.0980 -0.6483  0.0212
19374TIP3    H179537   0.162   5.711  10.980 -2.2864 -1.2782  1.9331
19374TIP3    H279538   0.134   5.824  10.882  0.8433 -2.3952 -0.4229
19375TIP3   OH279539   5.216   6.228  14.453 -0.1754 -0.3791  0.0139
19375TIP3    H179540   5.193   6.259  14.365 -1.3333 -3.2639 -0.8318
19375TIP3    H279541   5.146   6.261  14.509  0.4178  1.2494 -0.1636
19376TIP3   OH279542   0.306   3.851   0.073  0.3400  0.3850 -0.7756
19376TIP3    H179543   0.299   3.914   0.145 -0.2190 -1.0450  0.4679
19376TIP3    H279544   0.354   3.777   0.111 -0.0125 -0.4116 -1.8562
19377TIP3   OH279545   3.246   0.406  16.091 -0.3406 -0.1108  0.1006
19377TIP3    H179546   3.166   0.438  16.050 -0.3210 -0.4320 -0.1914
19377TIP3    H279547   3.315   0.465  16.058  0.1168 -1.9021 -2.4474
19378TIP3   OH279548   2.428   1.348   1.781 -0.2285  0.0003 -0.5143
19378TIP3    H179549   2.430   1.438   1.749 -0.9704  0.0667 -0.4101
19378TIP3    H279550   2.495   1.303   1.731  1.1990  0.9409  0.4805
19379TIP3   OH279551   1.768   6.605  15.219  0.3424  0.0891 -0.0245
19379TIP3    H179552   1.730   6.627  15.134 -1.0042  0.9676  0.7722
19379TIP3    H279553   1.743   6.514  15.234  3.3237 -1.2133 -1.9507
19380TIP3   OH279554   0.225   4.367   6.115 -0.0738 -0.3124  0.2438
19380TIP3    H179555   0.214   4.280   6.075  1.1021 -0.7696  0.8867
19380TIP3    H279556   0.316   4.369   6.145 -0.3230  0.8339  0.9870
19381TIP3   OH279557   3.608   3.739   0.063  0.0683 -0.4174  0.3300
19381TIP3    H179558   3.538   3.687   0.022 -1.3587  0.7119  1.2119
19381TIP3    H279559   3.614   3.817   0.008  0.1818 -0.2203  0.6224
19382TIP3   OH279560   4.200   3.497  17.131 -0.2595  0.0845 -0.5191
19382TIP3    H179561   4.273   3.534  17.081 -1.7718  0.5621 -2.4945
19382TIP3    H279562   4.241   3.463  17.211  1.7864  2.2764 -0.5182
19383TIP3   OH279563   2.565   0.400  11.132  0.0042 -0.5404  0.1131
19383TIP3    H179564   2.639   0.398  11.193  1.1839 -2.6056 -1.2708
19383TIP3    H279565   2.493   0.363  11.182  0.4152 -0.3873  0.8468
19384TIP3   OH279566   3.036   6.605   5.698  0.0986 -0.3337 -0.1111
19384TIP3    H179567   3.095   6.552   5.644 -2.0624 -3.0901  0.0166
19384TIP3    H279568   2.949   6.567   5.683 -1.2815  1.8437  1.7260
19385TIP3   OH279569   6.199   5.981   1.874 -0.4732  0.4808  0.5087
19385TIP3    H179570   6.134   6.043   1.906 -0.0345  0.8797  0.6281
19385TIP3    H279571   6.246   5.953   1.953 -1.1707 -0.5985  0.5717
19386TIP3   OH279572   4.901   3.891  14.714 -0.1379 -0.1830  0.0611
19386TIP3    H179573   4.818   3.924  14.679  1.2253 -0.7071 -4.1734
19386TIP3    H279574   4.934   3.963  14.768 -0.8306  2.3775 -2.6888
19387TIP3   OH279575   4.371   0.670  11.792 -0.1303  0.1964  0.3510
19387TIP3    H179576   4.408   0.654  11.705  1.1637  2.2245  0.4595
19387TIP3    H279577   4.307   0.600  11.804  1.3311 -1.5097 -1.2362
19388TIP3   OH279578   6.584   6.227   3.375 -0.6422 -0.1189  0.3526
19388TIP3    H179579   6.592   6.216   3.280  0.1004 -0.8295  0.4843
19388TIP3    H279580   6.667   6.194   3.410 -0.0788  1.9246  1.1295
19389TIP3   OH279581   5.376   2.104  14.259 -0.6469  0.0846 -0.3445
19389TIP3    H179582   5.392   2.045  14.333  0.7331 -0.4174 -0.9975
19389TIP3    H279583   5.458   2.153  14.250 -0.1516 -1.0205 -2.5271
19390TIP3   OH279584   1.575   3.468   0.573  0.3166  0.1515 -0.4644
19390TIP3    H179585   1.607   3.449   0.485 -1.1863 -1.5358 -0.7121
19390TIP3    H279586   1.648   3.446   0.630  0.3774 -1.5489 -1.1378
19391TIP3   OH279587   6.502   0.646  15.591  0.4583 -0.3788 -0.1216
19391TIP3    H179588   6.419   0.693  15.583  0.5862 -0.0797  0.2785
19391TIP3    H279589   6.487   0.564  15.545 -0.1985 -0.5108  0.3084
19392TIP3   OH279590   4.229   5.462   1.737  0.4974 -0.1069 -0.5566
19392TIP3    H179591   4.171   5.523   1.783  1.8592  0.2106  0.8432
19392TIP3    H279592   4.217   5.483   1.645 -1.1304  0.3673 -0.2770
19393TIP3   OH279593   0.459   5.292  15.189  0.1854  0.1265 -1.1365
19393TIP3    H179594   0.409   5.367  15.157 -0.8348 -0.6424 -1.3871
19393TIP3    H279595   0.515   5.267  15.115  0.1901  0.3621 -1.2122
19394TIP3   OH279596   1.876   3.779   3.593 -0.2108 -0.1333 -0.1363
19394TIP3    H179597   1.874   3.840   3.667 -1.0575  2.0363 -1.8329
19394TIP3    H279598   1.953   3.805   3.542 -0.3687 -0.7279 -0.6965
19395TIP3   OH279599   6.272   3.645   3.822  0.3770  0.5302 -0.0890
19395TIP3    H179600   6.255   3.551   3.828  1.5774  0.2273 -1.0418
19395TIP3    H279601   6.238   3.670   3.736  1.1442  0.7035 -0.3519
19396TIP3   OH279602   1.650   5.018  15.651  0.3950 -0.9846  0.1837
19396TIP3    H179603   1.715   4.977  15.708  0.8839 -0.5185 -0.0326
19396TIP3    H279604   1.700   5.078  15.596 -0.1734 -0.8677 -0.2185
19397TIP3   OH279605   0.469   2.720  12.057  0.1426 -0.4984  0.1866
19397TIP3    H179606   0.409   2.786  12.092  0.4585  0.2323 -0.6202
19397TIP3    H279607   0.418   2.639  12.059 -0.5004 -0.1025  0.5109
19398TIP3   OH279608   3.254   2.680  13.023 -0.3039 -0.1834  0.8315
19398TIP3    H179609   3.309   2.651  13.095  1.1184 -0.7453 -0.4235
19398TIP3    H279610   3.226   2.599  12.980  0.9442  0.1482 -0.7105
19399TIP3   OH279611   0.841   4.395  12.980  0.2546 -0.2542 -0.0076
19399TIP3    H179612   0.894   4.321  12.951 -0.6295 -0.4752 -1.1593
19399TIP3    H279613   0.769   4.356  13.029 -0.0996 -0.1559 -0.4397
19400TIP3   OH279614   3.476   3.955  15.115  0.8147  0.0212  0.1917
19400TIP3    H179615   3.410   3.890  15.142  1.5411 -0.2803  1.2783
19400TIP3    H279616   3.462   4.029  15.173  0.4476  0.5738 -0.5894
19401TIP3   OH279617   3.075   4.053   4.052  0.3420  0.4050 -0.2387
19401TIP3    H179618   3.028   3.998   4.115  2.2427 -1.2909 -0.1781
19401TIP3    H279619   3.125   4.114   4.107 -1.6775  2.2134 -0.3037
19402TIP3   OH279620   0.569   5.478   5.002 -0.5671  0.2791  0.0700
19402TIP3    H179621   0.485   5.488   4.957 -0.1659  1.3637 -0.4961
19402TIP3    H279622   0.603   5.393   4.973 -1.0975  0.2071 -0.3445
19403TIP3   OH279623   4.747   2.839   0.814 -0.0332 -0.1575  0.1294
19403TIP3    H179624   4.718   2.751   0.839 -0.8953  0.7596  2.7909
19403TIP3    H279625   4.832   2.849   0.857  0.4736  0.0218 -0.8933
19404TIP3   OH279626   4.470   4.530   3.237 -0.2072 -0.2283 -0.5486
19404TIP3    H179627   4.542   4.483   3.279 -0.0391 -0.4176 -1.0389
19404TIP3    H279628   4.431   4.465   3.178 -0.5246 -0.0064 -0.5869
19405TIP3   OH279629   5.868   5.078  15.063 -0.0863 -0.2507  0.1505
19405TIP3    H179630   5.818   5.030  15.130 -0.9688  0.2360 -0.1360
19405TIP3    H279631   5.897   5.158  15.107 -0.3619 -0.0977  0.0581
19406TIP3   OH279632   1.737   6.336  12.631 -0.3028  0.8673 -1.0336
19406TIP3    H179633   1.768   6.423  12.607  1.8737  0.8603  1.3832
19406TIP3    H279634   1.750   6.283  12.552  1.4136  1.9941 -1.5574
19407TIP3   OH279635   6.188   0.439  12.356  0.1647  0.4611 -0.3006
19407TIP3    H179636   6.234   0.449  12.440  3.0834 -0.3719 -1.6640
19407TIP3    H279637   6.198   0.347  12.334 -0.7458  0.6187 -1.4947
19408TIP3   OH279638   4.896   1.297  16.908  0.2310 -0.2955  0.0304
19408TIP3    H179639   4.945   1.379  16.912 -0.5590  0.1638  0.7413
19408TIP3    H279640   4.855   1.297  16.821 -1.1397  0.9164  0.6153
19409TIP3   OH279641   1.772   1.452   3.423  0.0979 -0.0405  0.0842
19409TIP3    H179642   1.791   1.537   3.464 -0.2579  1.8865 -3.3392
19409TIP3    H279643   1.682   1.432   3.450  0.7927 -0.3702  2.4035
19410TIP3   OH279644   3.951   5.278  12.668 -0.0424 -0.0356 -0.1394
19410TIP3    H179645   4.035   5.236  12.689  0.5461  1.9280  1.7764
19410TIP3    H279646   3.895   5.206  12.640  1.4708 -1.8239  1.1483
19411TIP3   OH279647   4.196   2.358   5.270  0.0563 -0.0122 -0.3420
19411TIP3    H179648   4.185   2.286   5.208 -1.5569  0.9437 -1.2018
19411TIP3    H279649   4.114   2.360   5.319  0.3734  0.7865  0.1711
19412TIP3   OH279650   1.648   5.879   1.791 -0.2712  0.5119  0.0366
19412TIP3    H179651   1.603   5.803   1.829 -0.0868 -0.1890 -1.0952
19412TIP3    H279652   1.709   5.841   1.727  2.5548  1.3518  2.0366
19413TIP3   OH279653   4.190   5.285  13.607 -0.4810 -0.2570 -0.0402
19413TIP3    H179654   4.263   5.346  13.619 -0.6575  0.1350 -0.8932
19413TIP3    H279655   4.212   5.210  13.662 -0.5086  0.7834  1.4624
19414TIP3   OH279656   6.446   2.105  14.255  0.0525  0.2419 -0.0109
19414TIP3    H179657   6.508   2.135  14.188  0.6866 -2.7609 -0.9321
19414TIP3    H279658   6.474   2.149  14.335  3.9875 -1.4691 -0.1950
19415TIP3   OH279659   4.083   5.684  16.653  0.4700  0.2208  0.2820
19415TIP3    H179660   4.014   5.726  16.703  0.4907  0.2284  0.3035
19415TIP3    H279661   4.078   5.725  16.566 -0.2452 -0.5326 -0.0406
19416TIP3   OH279662   5.748   5.424   6.335  0.0840 -0.2686 -0.1255
19416TIP3    H179663   5.652   5.416   6.329 -0.1191 -0.9721  2.7970
19416TIP3    H279664   5.764   5.518   6.338 -0.4165 -0.1221 -1.3994
19417TIP3   OH279665   3.040   3.940  12.041 -0.0824  0.1391 -0.7113
19417TIP3    H179666   3.106   3.965  12.105 -2.4779  0.6212  1.7748
19417TIP3    H279667   3.025   3.846  12.057 -0.3648  0.1526 -0.8744
19418TIP3   OH279668   1.234   4.187  14.055 -0.8305 -0.1028  0.0893
19418TIP3    H179669   1.168   4.118  14.056 -0.5084 -0.4104 -0.1081
19418TIP3    H279670   1.276   4.180  13.970  0.1483 -0.5514  0.5972
19419TIP3   OH279671   0.988   0.583   6.329  0.2675 -0.1674  0.4093
19419TIP3    H179672   1.008   0.669   6.290  1.2388 -0.4757  0.1914
19419TIP3    H279673   0.893   0.575   6.322  0.3906 -0.2649 -2.0430
19420TIP3   OH279674   0.865   1.493   4.820  0.4606 -0.0976  0.1303
19420TIP3    H179675   0.909   1.417   4.860  2.0782 -0.1354 -1.6111
19420TIP3    H279676   0.780   1.497   4.865  0.5809 -2.5349  0.7300
19421TIP3   OH279677   1.667   6.239  11.623 -0.2784 -0.3213  0.1823
19421TIP3    H179678   1.675   6.330  11.595  0.6189 -0.1346  0.9834
19421TIP3    H279679   1.578   6.233  11.657 -0.4490  0.1743 -0.1584
19422TIP3   OH279680   0.902   1.456  13.233  0.1823 -0.1328 -0.0779
19422TIP3    H179681   0.902   1.552  13.235  2.0881  0.0123 -2.4841
19422TIP3    H279682   0.847   1.434  13.159 -3.1115 -1.1791  2.4470
19423TIP3   OH279683   4.433   3.032   1.357 -0.3110  0.0156 -0.4449
19423TIP3    H179684   4.507   3.069   1.309 -0.5478 -1.1718 -1.7954
19423TIP3    H279685   4.407   3.101   1.418  1.1603  0.8925 -0.7528
19424TIP3   OH279686   3.421   2.495  12.696  0.0028 -0.1670 -0.4210
19424TIP3    H179687   3.335   2.459  12.676  0.9993 -1.6856 -2.1975
19424TIP3    H279688   3.430   2.571  12.638 -0.5159  0.6591  0.5330
19425TIP3   OH279689   3.838   0.082   3.615  0.2547 -0.3635 -0.2557
19425TIP3    H179690   3.792   0.080   3.531 -1.0720 -1.5872  0.4554
19425TIP3    H279691   3.875  -0.006   3.624 -0.4194 -0.5553  0.8370
19426TIP3   OH279692   2.659   1.697  15.225 -0.2918  0.7087  0.1416
19426TIP3    H179693   2.626   1.777  15.266 -0.2571  1.6268 -1.5254
19426TIP3    H279694   2.727   1.665  15.285 -2.6553 -0.0477  2.5797
19427TIP3   OH279695   0.605   6.510   1.382 -0.4663  0.3214  0.1266
19427TIP3    H179696   0.575   6.599   1.363 -0.3181  0.0280 -1.6453
19427TIP3    H279697   0.697   6.510   1.357 -0.4136 -0.2864  0.3023
19428TIP3   OH279698   0.937   0.889   0.939 -0.4151  0.0993 -0.5792
19428TIP3    H179699   0.989   0.826   0.890  0.4388  1.8950 -2.1058
19428TIP3    H279700   0.851   0.848   0.947  0.6961 -2.2203  0.5363
19429TIP3   OH279701   5.311   4.984  11.918  0.2603  0.4964 -0.1299
19429TIP3    H179702   5.226   4.956  11.884  1.2340 -1.3422 -1.2113
19429TIP3    H279703   5.326   5.070  11.877 -0.7497  0.5119 -0.4923
19430TIP3   OH279704   4.043   5.792  14.612 -0.3947  0.3047 -0.0748
19430TIP3    H179705   4.060   5.784  14.518 -1.2281 -0.8253 -0.1423
19430TIP3    H279706   4.131   5.801  14.651 -0.0778  1.6355 -1.0031
19431TIP3   OH279707   6.048   2.097   1.443 -0.1206  0.1187  0.3191
19431TIP3    H179708   6.067   2.009   1.410 -0.6134 -1.0531  2.9650
19431TIP3    H279709   5.953   2.098   1.456 -0.4651  1.8760 -1.7515
19432TIP3   OH279710   3.867   1.039   1.227  0.2358  0.8633  0.1949
19432TIP3    H179711   3.790   1.095   1.236 -1.1277 -1.1971  2.6856
19432TIP3    H279712   3.887   1.011   1.316  2.2658 -0.7786 -0.6760
19433TIP3   OH279713   0.477   0.236   0.995 -0.1125 -0.0795 -0.3444
19433TIP3    H179714   0.455   0.323   1.028 -1.0354 -0.0500 -1.0185
19433TIP3    H279715   0.522   0.253   0.912  1.8661 -0.1699  0.6433
19434TIP3   OH279716   2.106   4.031   1.396  0.3888  0.4436  0.2985
19434TIP3    H179717   2.147   3.998   1.316 -0.1328  0.2316  0.1145
19434TIP3    H279718   2.064   4.113   1.370  1.4362  1.1265  0.6914
19435TIP3   OH279719   4.777   5.795  13.298 -0.3274  0.6663 -0.3331
19435TIP3    H179720   4.741   5.749  13.222 -0.4284 -1.4277  0.8935
19435TIP3    H279721   4.872   5.794  13.285 -0.3262  0.0349 -0.2978
19436TIP3   OH279722   3.306   5.495  11.817 -0.3503  0.0818  0.2377
19436TIP3    H179723   3.211   5.510  11.814 -0.3964 -0.1173  0.5633
19436TIP3    H279724   3.323   5.473  11.909  0.0058  0.0841  0.1722
19437TIP3   OH279725   3.315   0.715   2.871 -0.2493 -0.4094 -1.3103
19437TIP3    H179726   3.379   0.782   2.845  0.2727 -0.3065  0.1504
19437TIP3    H279727   3.366   0.649   2.917 -1.1829 -0.3463 -0.1484
19438TIP3   OH279728   1.043   4.120   1.617 -0.2729 -0.5545 -0.1244
19438TIP3    H179729   1.041   4.079   1.703 -0.5838 -1.8635 -0.7407
19438TIP3    H279730   0.963   4.090   1.573  1.0299 -1.8806 -1.7397
19439TIP3   OH279731   1.320   4.023  11.228 -0.5882 -0.1756  0.1563
19439TIP3    H179732   1.258   4.014  11.155  1.4838 -0.4923 -1.6617
19439TIP3    H279733   1.390   3.961  11.208  0.2459  0.0343  2.2407
19440TIP3   OH279734   3.440   5.273  16.611 -0.1925 -0.1113 -0.7187
19440TIP3    H179735   3.363   5.215  16.605 -0.7703  0.5637 -0.0261
19440TIP3    H279736   3.426   5.338  16.542  0.1095 -0.3886 -1.0448
19441TIP3   OH279737   0.522   1.724  13.415  0.0928  0.2905  0.1210
19441TIP3    H179738   0.456   1.672  13.461  0.6380  0.3301  0.9826
19441TIP3    H279739   0.598   1.722  13.473  1.0654 -0.2544 -1.1044
19442TIP3   OH279740   1.462   3.536  15.216  0.3225  0.5268  0.1833
19442TIP3    H179741   1.522   3.594  15.262 -0.9484  1.6450  0.5225
19442TIP3    H279742   1.482   3.449  15.249 -0.0085  1.2010  2.3317
19443TIP3   OH279743   5.018   5.725   5.074 -0.5983  1.0438 -0.4723
19443TIP3    H179744   5.000   5.662   5.004 -2.6340  0.4137  0.5291
19443TIP3    H279745   5.017   5.673   5.154  1.6507  1.7554  0.0863
19444TIP3   OH279746   5.830   2.640   4.138  0.2846 -0.2762  0.0732
19444TIP3    H179747   5.796   2.694   4.209 -0.3986 -0.0371 -0.4236
19444TIP3    H279748   5.776   2.561   4.139  0.2369 -0.2507 -0.2012
19445TIP3   OH279749   4.175   6.265  13.557  0.0881  0.2281  0.2024
19445TIP3    H179750   4.152   6.336  13.617  0.1542  1.5618 -1.2872
19445TIP3    H279751   4.112   6.272  13.486  1.0603 -0.2344 -0.7300
19446TIP3   OH279752   1.461   4.083   0.186  0.0801 -0.0930 -0.3101
19446TIP3    H179753   1.478   4.176   0.201  0.3930 -0.0644 -0.8117
19446TIP3    H279754   1.455   4.075   0.091  0.6351 -0.6818 -0.3023
19447TIP3   OH279755   1.287   0.517  17.028  0.8010 -0.2067  0.1881
19447TIP3    H179756   1.263   0.609  17.036 -1.8057 -0.6028 -1.6923
19447TIP3    H279757   1.240   0.474  17.100 -3.7418 -0.7835 -2.6830
19448TIP3   OH279758   6.353   2.673  14.196  0.2091  0.4546  0.3227
19448TIP3    H179759   6.359   2.625  14.113  2.3945  2.5205 -0.8695
19448TIP3    H279760   6.365   2.607  14.263  1.2913 -0.9239 -1.1495
19449TIP3   OH279761   2.992   2.681  14.514 -0.2308  0.3263 -0.3433
19449TIP3    H179762   2.980   2.612  14.449 -2.5968 -0.5843  0.9195
19449TIP3    H279763   2.906   2.691  14.555  0.5637  2.5468  1.0096
19450TIP3   OH279764   6.715   2.421   1.451  0.1697  0.2438 -0.2820
19450TIP3    H179765   6.725   2.329   1.479 -0.4800  0.3595  0.3623
19450TIP3    H279766   6.739   2.472   1.529  0.2218  0.6206 -0.5434
19451TIP3   OH279767   2.739   1.913   3.362  0.5314  0.2514  0.0193
19451TIP3    H179768   2.706   1.829   3.331 -0.1043 -0.1076  1.5852
19451TIP3    H279769   2.834   1.903   3.363  0.4674 -0.3746  0.0068
19452TIP3   OH279770   2.204   0.466  11.231  0.0098 -0.2300 -0.0943
19452TIP3    H179771   2.152   0.401  11.185  1.4449 -0.4617 -1.4799
19452TIP3    H279772   2.268   0.415  11.281 -0.1612  0.0753  0.4435
19453TIP3   OH279773   3.177   1.215  13.921  0.4280  0.5809  0.3856
19453TIP3    H179774   3.166   1.305  13.889  0.2653 -0.0358 -1.3937
19453TIP3    H279775   3.099   1.199  13.975 -0.5488  0.8785 -0.8883
19454TIP3   OH279776   3.478   4.235   4.181  0.1709  0.1066  0.4051
19454TIP3    H179777   3.451   4.191   4.101  0.7520 -1.4327  1.0113
19454TIP3    H279778   3.558   4.282   4.157  0.0601  0.0654 -0.0455
19455TIP3   OH279779   5.421   0.079   4.904  0.3194 -0.6291  0.3693
19455TIP3    H179780   5.441  -0.015   4.903 -0.3749 -0.8180  1.8749
19455TIP3    H279781   5.335   0.086   4.945 -0.2283  0.6030 -0.8630
19456TIP3   OH279782   4.320   0.280   4.266 -0.1315 -0.7134  0.2574
19456TIP3    H179783   4.358   0.230   4.339 -0.9741 -0.7575  0.6803
19456TIP3    H279784   4.240   0.317   4.302  0.9959  1.9077  0.3225
19457TIP3   OH279785   5.752   4.199   6.381 -0.3201 -0.4224 -0.4112
19457TIP3    H179786   5.801   4.153   6.313  0.0926 -0.2736 -0.2185
19457TIP3    H279787   5.791   4.287   6.383 -0.2059 -0.4818  0.1430
19458TIP3   OH279788   0.018   4.939   0.687 -0.3078 -0.1094 -0.1847
19458TIP3    H179789   0.008   4.856   0.733  0.1540  0.5876  1.2117
19458TIP3    H279790   0.113   4.948   0.675 -0.1235  1.4214  2.0086
19459TIP3   OH279791   1.998   0.206   4.414 -0.3282 -0.1281 -0.0183
19459TIP3    H179792   1.912   0.169   4.397 -1.0266  1.3518  0.1187
19459TIP3    H279793   1.989   0.252   4.497  0.1527  1.3026 -0.7246
19460TIP3   OH279794   1.336   6.493  14.857  0.0707 -0.1617 -0.0152
19460TIP3    H179795   1.370   6.409  14.886  0.8855 -0.0408 -0.5800
19460TIP3    H279796   1.251   6.473  14.818  1.1904 -1.0595 -2.1136
19461TIP3   OH279797   2.499   1.950   2.494  0.5316  0.3836  0.3278
19461TIP3    H179798   2.589   1.977   2.511  0.7361 -0.6484  0.9782
19461TIP3    H279799   2.508   1.872   2.438  0.0342  0.3715  0.2567
19462TIP3   OH279800   3.580   4.909   2.731  0.9892  0.6469 -0.0706
19462TIP3    H179801   3.519   4.860   2.676 -0.9116 -0.4509  2.7626
19462TIP3    H279802   3.591   4.993   2.687 -1.3687  0.2875 -1.4911
19463TIP3   OH279803   5.672   1.223  11.703  0.1390  0.0131  0.2997
19463TIP3    H179804   5.705   1.140  11.669  0.8168 -0.0643  1.1367
19463TIP3    H279805   5.729   1.290  11.664  0.5070 -0.0280  0.7592
19464TIP3   OH279806   2.043   2.899  15.366  0.0315  0.2492  0.2991
19464TIP3    H179807   1.962   2.862  15.400 -0.1333 -0.1225 -0.4617
19464TIP3    H279808   2.014   2.958  15.296  0.4305 -0.2006 -0.2517
19465TIP3   OH279809   2.403   0.004  15.700  0.4184  0.5294  0.3199
19465TIP3    H179810   2.393  -0.085  15.734  1.2920  0.3078  0.0200
19465TIP3    H279811   2.497   0.012  15.680 -0.2440 -0.1412 -4.0856
19466TIP3   OH279812   0.998   4.627   5.518 -0.0443 -0.7366 -0.1612
19466TIP3    H179813   0.908   4.598   5.531 -0.1166 -0.8797 -0.9114
19466TIP3    H279814   1.029   4.576   5.443 -1.1613  3.0835 -3.6052
19467TIP3   OH279815   0.917   2.934  16.595  0.0058 -0.1826 -0.3645
19467TIP3    H179816   0.935   3.013  16.645  1.4566 -0.7696  0.1021
19467TIP3    H279817   0.936   2.958  16.504  0.2979  0.0429 -0.2443
19468TIP3   OH279818   3.496   3.254  14.539 -0.3502  0.1388  0.9842
19468TIP3    H179819   3.557   3.230  14.609  0.1216 -1.0731  0.1674
19468TIP3    H279820   3.471   3.171  14.499 -2.3625  0.6186  1.1280
19469TIP3   OH279821   1.697   4.424  15.168 -0.1061  0.4404 -0.4383
19469TIP3    H179822   1.657   4.453  15.250  0.4365 -0.9020  0.3308
19469TIP3    H279823   1.790   4.439  15.180  0.0963 -0.8581 -0.3386
19470TIP3   OH279824   5.321   0.860   2.573  0.0843 -0.1163  0.1340
19470TIP3    H179825   5.387   0.806   2.532 -0.6424 -1.5231  0.7492
19470TIP3    H279826   5.240   0.810   2.564 -0.8356  1.3872 -0.2703
19471TIP3   OH279827   5.203   3.559  11.817 -0.3445 -0.8213  0.0536
19471TIP3    H179828   5.294   3.531  11.823  1.0157  2.9504 -0.5185
19471TIP3    H279829   5.201   3.644  11.861 -2.8031  0.7168 -2.6780
19472TIP3   OH279830   1.126   0.731  14.240 -0.0698 -0.6867  0.3848
19472TIP3    H179831   1.055   0.767  14.294 -0.1800  0.8711 -0.7326
19472TIP3    H279832   1.203   0.782  14.264  0.5081 -1.8181  0.9946
19473TIP3   OH279833   4.455   1.213  15.406  0.3371 -0.7563  0.2421
19473TIP3    H179834   4.429   1.180  15.492  0.6983  1.6676  1.3617
19473TIP3    H279835   4.548   1.234  15.416 -0.1550  1.8348  0.1234
19474TIP3   OH279836   5.633   2.914  15.601 -0.2648 -0.6007 -0.0566
19474TIP3    H179837   5.616   2.987  15.659 -0.3403 -1.2700  0.7821
19474TIP3    H279838   5.553   2.861  15.605  0.2614 -1.3730  0.3117
19475TIP3   OH279839   3.087   5.420  15.929 -0.2857 -0.1047 -0.6927
19475TIP3    H179840   3.111   5.335  15.965  0.5143  0.1449 -0.6197
19475TIP3    H279841   3.015   5.450  15.984 -0.7138 -0.8305 -0.8548
19476TIP3   OH279842   1.074   2.268   2.464  0.2443 -0.7699 -0.1957
19476TIP3    H179843   1.117   2.193   2.422  0.1664 -0.3740 -1.0084
19476TIP3    H279844   1.144   2.332   2.475 -0.0201 -0.3155 -1.0668
19477TIP3   OH279845   1.068   5.100  14.109 -0.2223  0.3732 -0.6025
19477TIP3    H179846   1.096   5.178  14.157 -2.4674 -0.0704  1.6174
19477TIP3    H279847   1.036   5.133  14.025  2.0258  1.3782 -1.1619
19478TIP3   OH279848   0.308   2.339  14.546  0.0655 -0.5409  0.1795
19478TIP3    H179849   0.350   2.361  14.463 -0.1226  0.3763  0.3186
19478TIP3    H279850   0.295   2.423  14.589  1.0136 -1.0792  1.5687
19479TIP3   OH279851   0.495   4.186   3.277 -0.3866  0.1058  0.1617
19479TIP3    H179852   0.471   4.212   3.366  1.0669  0.8532  0.3661
19479TIP3    H279853   0.562   4.249   3.251  0.1393 -0.8911 -0.9788
19480TIP3   OH279854   3.784   0.064   1.044  0.0841  0.0853  0.1325
19480TIP3    H179855   3.729   0.142   1.035  2.8816  2.1586 -0.3957
19480TIP3    H279856   3.784   0.025   0.956 -0.4200  0.1499  0.1021
19481TIP3   OH279857   0.123   3.057  11.875  0.0157 -0.0430  0.2199
19481TIP3    H179858   0.077   2.975  11.859 -0.5683  0.3499 -0.1680
19481TIP3    H279859   0.206   3.047  11.828 -1.2117  0.6567 -2.2938
19482TIP3   OH279860   3.500   3.747  16.882 -0.1107  0.1283  0.4299
19482TIP3    H179861   3.425   3.772  16.827  0.4010  1.6629  0.3571
19482TIP3    H279862   3.569   3.724  16.819 -0.2135 -0.3074  0.4753
19483TIP3   OH279863   0.395   5.223   5.710 -0.6019  0.5288  0.5900
19483TIP3    H179864   0.449   5.300   5.697 -0.2165  0.7558  3.0344
19483TIP3    H279865   0.443   5.152   5.667  0.4949  1.1371  0.7764
19484TIP3   OH279866   1.125   3.522  14.282  0.0969 -0.1484  0.9694
19484TIP3    H179867   1.212   3.498  14.315 -0.3990  0.1751  2.5816
19484TIP3    H279868   1.068   3.450  14.310 -0.4381  0.4055  1.3403
19485TIP3   OH279869   1.940   2.280  11.834 -0.1121  0.3402 -0.0391
19485TIP3    H179870   2.008   2.346  11.843  0.3028  0.3947 -2.6200
19485TIP3    H279871   1.860   2.324  11.859  0.3619  1.3872 -0.3061
19486TIP3   OH279872   0.032   0.985  16.069 -0.0461 -0.4014 -0.5322
19486TIP3    H179873   0.110   1.008  16.119 -0.5916  1.2661 -0.3860
19486TIP3    H279874   0.037   0.890  16.060  1.4942 -0.4380  0.2959
19487TIP3   OH279875   0.318   6.210   3.081 -0.0623 -0.5482  0.4911
19487TIP3    H179876   0.263   6.177   3.010  1.1180 -0.5441 -0.4591
19487TIP3    H279877   0.402   6.166   3.068  0.2867 -0.2758  1.6942
19488TIP3   OH279878   0.304   4.412  15.637 -0.1039  0.4980  0.0546
19488TIP3    H179879   0.317   4.392  15.544  1.1853  0.8349  0.1423
19488TIP3    H279880   0.210   4.399  15.652  0.1447 -2.6740 -0.5409
19489TIP3   OH279881   5.313   2.165   0.856 -0.2636 -0.5482  0.2332
19489TIP3    H179882   5.242   2.224   0.881 -0.4307 -0.5076 -0.3178
19489TIP3    H279883   5.279   2.116   0.781  0.1562 -0.7956  0.1964
19490TIP3   OH279884   5.229   2.951  14.431 -0.1179  0.5515 -0.3116
19490TIP3    H179885   5.194   2.862  14.440  1.4969 -0.2425 -1.3775
19490TIP3    H279886   5.169   3.006  14.482 -0.7986 -1.2234  0.8966
19491TIP3   OH279887   2.935   4.849   0.756  0.8908 -0.2961 -0.3182
19491TIP3    H179888   2.847   4.884   0.744  1.2340  0.6462 -0.2063
19491TIP3    H279889   2.975   4.854   0.669  0.8862 -0.5490 -0.3334
19492TIP3   OH279890   2.798   2.851  14.956 -0.3670 -0.2165  0.2171
19492TIP3    H179891   2.794   2.870  14.862 -1.4078 -0.3777  0.2116
19492TIP3    H279892   2.888   2.824  14.972  0.2363  1.2869 -0.4481
19493TIP3   OH279893   5.270   3.190  10.831 -0.6901  0.6420 -0.0245
19493TIP3    H179894   5.243   3.276  10.863 -0.6464  0.3863  0.7250
19493TIP3    H279895   5.273   3.135  10.909 -0.7964 -0.0638 -0.5070
19494TIP3   OH279896   4.644   5.471   6.138  0.6479  0.0771  0.0392
19494TIP3    H179897   4.590   5.404   6.179  1.1087  0.2396  0.9203
19494TIP3    H279898   4.617   5.553   6.180  1.1803  0.2330  0.0803
19495TIP3   OH279899   3.693   2.573   5.197 -0.1978 -0.0207  0.2670
19495TIP3    H179900   3.761   2.565   5.130 -0.7059 -1.9499 -0.1013
19495TIP3    H279901   3.683   2.667   5.210  0.0117  0.4241 -2.2671
19496TIP3   OH279902   1.911   2.010  12.965 -0.8789 -0.6324  0.5775
19496TIP3    H179903   1.840   2.046  13.018  0.6176 -0.0632  2.2830
19496TIP3    H279904   1.909   1.916  12.983 -0.0648 -0.3890  2.1452
19497TIP3   OH279905   5.749   2.156   3.794  0.2297  0.2997 -0.7930
19497TIP3    H179906   5.841   2.174   3.816  0.7427  0.1994 -2.6961
19497TIP3    H279907   5.744   2.171   3.700 -2.2112  2.3326 -0.4444
19498TIP3   OH279908   6.408   0.062  13.646  0.0894  0.1604 -0.2792
19498TIP3    H179909   6.356   0.064  13.726 -0.2716  1.1138 -0.5170
19498TIP3    H279910   6.493   0.099  13.671  0.2779 -0.3640 -0.1399
19499TIP3   OH279911   1.812   1.881   3.731 -0.0727 -0.8184 -0.2033
19499TIP3    H179912   1.780   1.958   3.683  0.8373 -1.5418 -2.0784
19499TIP3    H279913   1.733   1.835   3.758 -0.6204 -0.2822 -0.8525
19500TIP3   OH279914   3.803   2.705  12.578 -0.0849  0.1702  0.3370
19500TIP3    H179915   3.717   2.718  12.617 -0.9425 -1.3493 -0.9869
19500TIP3    H279916   3.814   2.779  12.518 -1.3890 -0.7340 -1.0528
19501TIP3   OH279917   0.437   4.782   6.465 -0.3310 -0.6342 -0.0629
19501TIP3    H179918   0.356   4.829   6.486 -1.8117 -3.2501  0.5132
19501TIP3    H279919   0.465   4.744   6.548  0.9556 -0.6188 -0.4661
19502TIP3   OH279920   3.352   0.925  14.752  0.0361  0.0608  0.2409
19502TIP3    H179921   3.354   1.011  14.795  0.9788  0.5794 -0.7914
19502TIP3    H279922   3.396   0.866  14.813 -0.0386  0.4410  0.6662
19503TIP3   OH279923   4.017   2.659   3.120  0.1514  0.5505  0.0302
19503TIP3    H179924   4.078   2.599   3.078  1.4443  2.5176 -1.1006
19503TIP3    H279925   4.057   2.677   3.205 -0.5221 -0.5504  0.6025
19504TIP3   OH279926   0.490   1.147  16.870  0.1977  0.1224 -0.2271
19504TIP3    H179927   0.440   1.160  16.950  1.3678  0.4655  0.4713
19504TIP3    H279928   0.577   1.181  16.890  1.4142 -2.5528 -0.6414
19505TIP3   OH279929   3.700   6.738   2.962  0.0214 -0.0327  0.2520
19505TIP3    H179930   3.647   6.760   3.038 -0.0458  0.7259 -0.0100
19505TIP3    H279931   3.707   6.643   2.965  0.2592  0.0028  1.3685
19506TIP3   OH279932   4.880   2.240   3.745 -0.0127  0.3738 -0.0900
19506TIP3    H179933   4.918   2.156   3.771  0.0857  0.7084  0.8932
19506TIP3    H279934   4.937   2.271   3.674  0.5014  0.0471  0.1698
19507TIP3   OH279935   1.855   5.221  14.665  0.3896 -0.5114  0.2361
19507TIP3    H179936   1.814   5.242  14.581 -2.1698  1.8836  1.9068
19507TIP3    H279937   1.800   5.152  14.702 -1.6702  1.8725  1.9601
19508TIP3   OH279938   1.859   2.745   2.576 -0.1716  0.1963  0.0754
19508TIP3    H179939   1.824   2.659   2.599 -0.8194  0.3856 -0.1587
19508TIP3    H279940   1.786   2.789   2.530 -0.0819  1.1103  0.7797
19509TIP3   OH279941   3.890   1.006   5.478 -0.1500  0.2748 -0.1064
19509TIP3    H179942   3.820   0.949   5.509  0.5136  0.0413  0.9934
19509TIP3    H279943   3.844   1.078   5.433 -1.1124  0.2575  0.8142
19510TIP3   OH279944   2.850   3.200   1.254 -0.2047 -0.0490 -0.3892
19510TIP3    H179945   2.891   3.117   1.279 -0.9812 -1.2158 -2.6008
19510TIP3    H279946   2.819   3.238   1.336  1.8275 -0.9836  0.9087
19511TIP3   OH279947   3.726   6.221  15.480  0.8230  0.6114  0.1166
19511TIP3    H179948   3.759   6.255  15.563 -0.2277  1.0071  0.3927
19511TIP3    H279949   3.648   6.273  15.462  1.1607  0.6912 -1.2540
19512TIP3   OH279950   0.276   3.666   5.265 -0.3003  0.1189  0.0258
19512TIP3    H179951   0.256   3.581   5.304  0.7983 -0.5143 -0.7307
19512TIP3    H279952   0.360   3.653   5.222  1.2655  2.3444  2.1852
19513TIP3   OH279953   3.080   1.180   3.247 -0.0614 -0.5629  0.3045
19513TIP3    H179954   3.000   1.229   3.264 -0.9821 -1.4832 -1.1676
19513TIP3    H279955   3.076   1.106   3.306  0.5279  0.2230  1.3689
19514TIP3   OH279956   3.970   0.725   3.821  0.1635 -0.0572 -0.3473
19514TIP3    H179957   4.022   0.771   3.755  3.7160 -2.3812  0.5368
19514TIP3    H279958   4.021   0.734   3.902 -0.5908 -2.7625  0.5362
19515TIP3   OH279959   2.275   3.212   4.409  0.0663 -0.3355 -0.5911
19515TIP3    H179960   2.367   3.218   4.435  0.0943  1.0929 -0.8949
19515TIP3    H279961   2.227   3.253   4.481 -0.4569 -2.0017  0.0488
19516TIP3   OH279962   0.132   3.409   4.247 -0.1649  0.1822  0.7539
19516TIP3    H179963   0.222   3.437   4.261 -0.1896  1.6024 -1.4586
19516TIP3    H279964   0.139   3.326   4.199 -0.0370  0.3150  0.5432
19517TIP3   OH279965   0.406   4.590  15.820  0.0823  0.3203 -0.3949
19517TIP3    H179966   0.494   4.589  15.783  0.4273  0.9003  0.3806
19517TIP3    H279967   0.363   4.515  15.779  1.0446 -0.1905 -0.5253
19518TIP3   OH279968   2.634   3.486   0.479  0.4766 -0.3960 -0.3086
19518TIP3    H179969   2.569   3.444   0.424  0.8273 -0.4319 -0.7000
19518TIP3    H279970   2.603   3.576   0.489  0.4007 -0.3956 -0.5484
19519TIP3   OH279971   1.236   5.596   2.429  0.4217  0.1919  0.5558
19519TIP3    H179972   1.262   5.655   2.357 -1.5147  1.8394  1.1368
19519TIP3    H279973   1.293   5.520   2.418  1.8788  1.4378 -1.2475
19520TIP3   OH279974   1.959   1.488   1.262 -0.6047 -0.0546 -0.0882
19520TIP3    H179975   1.888   1.550   1.281 -1.1563 -0.7510  0.1886
19520TIP3    H279976   1.986   1.457   1.348 -0.3552 -0.2204 -0.2282
19521TIP3   OH279977   6.503   1.663   1.009 -0.0093  0.7470  0.5038
19521TIP3    H179978   6.581   1.609   1.014 -0.0019  0.5482 -1.1628
19521TIP3    H279979   6.461   1.637   0.926 -1.0351  1.9021  0.6314
19522TIP3   OH279980   5.862   5.962  14.618 -0.1730 -0.1036 -0.6089
19522TIP3    H179981   5.869   5.901  14.692 -0.3037  1.5612  0.8174
19522TIP3    H279982   5.929   5.932  14.557 -0.7448 -2.1504 -0.3333
19523TIP3   OH279983   0.236   5.770  11.360 -0.7041 -0.2235  0.1948
19523TIP3    H179984   0.142   5.753  11.357 -0.4662 -1.5256 -0.7530
19523TIP3    H279985   0.258   5.799  11.271 -0.2118  0.0082  0.3913
19524TIP3   OH279986   5.339   0.582  16.437 -0.0395 -0.5529  0.0517
19524TIP3    H179987   5.408   0.589  16.371  0.8704 -0.0754  1.0212
19524TIP3    H279988   5.262   0.552  16.389  0.4892  0.1768 -1.2951
19525TIP3   OH279989   5.089   3.564  12.510  0.2962 -0.2022 -0.0795
19525TIP3    H179990   5.091   3.650  12.468  0.2718  0.0901  0.4993
19525TIP3    H279991   5.038   3.509  12.450  1.2185 -0.1030 -0.9753
19526TIP3   OH279992   4.087   3.885  15.126  0.2228  0.4398 -0.2732
19526TIP3    H179993   4.181   3.885  15.142  0.0092  0.5685  1.0824
19526TIP3    H279994   4.061   3.976  15.138 -0.3430  0.1156  1.2338
19527TIP3   OH279995   5.791   2.345  16.234  0.8144  0.0505  0.0505
19527TIP3    H179996   5.701   2.313  16.229 -0.0431  1.7143  2.6984
19527TIP3    H279997   5.843   2.277  16.192 -1.6394 -0.9232 -1.6761
19528TIP3   OH279998   0.697   4.883  16.897  0.2317 -0.0985  0.3603
19528TIP3    H179999   0.760   4.816  16.922  0.2921  0.0405  0.5890
19528TIP3    H280000   0.653   4.849  16.819  0.9846  0.0457 -0.1353
19529TIP3   OH280001   2.092   3.131   2.507  0.2453  0.2479  0.1273
19529TIP3    H180002   2.106   3.037   2.493  1.5295  0.4067  0.1976
19529TIP3    H280003   2.138   3.173   2.434 -0.6237  0.8262 -0.1058
19530TIP3   OH280004   3.689   1.985   4.172  0.1392  0.0835 -0.4354
19530TIP3    H180005   3.759   2.048   4.184  0.4079 -0.4388  0.8222
19530TIP3    H280006   3.714   1.935   4.094  0.7505  0.4273 -0.4582
19531TIP3   OH280007   0.682   1.970  14.895 -0.1822 -0.3871 -0.7418
19531TIP3    H180008   0.618   1.928  14.839 -2.1166 -1.9451  2.3470
19531TIP3    H280009   0.631   2.032  14.948  1.1112 -0.5012  0.7193
19532TIP3   OH280010   2.024   1.050   4.499 -0.7607  0.3123 -0.2360
19532TIP3    H180011   2.073   0.977   4.463  0.7344  1.5008 -0.7558
19532TIP3    H280012   1.992   1.019   4.583  0.4065 -0.7379 -0.1508
19533TIP3   OH280013   0.582   5.016   1.201  0.2814 -0.3114 -0.1641
19533TIP3    H180014   0.676   5.023   1.184  0.3871 -0.0380  0.4843
19533TIP3    H280015   0.555   5.105   1.223  0.6271 -0.9113  3.2667
19534TIP3   OH280016   6.447   2.192  15.453  0.3143 -0.0026 -0.0701
19534TIP3    H180017   6.464   2.217  15.544 -0.2789 -1.2344  0.4035
19534TIP3    H280018   6.384   2.121  15.460  0.2094 -0.0562 -1.4619
19535TIP3   OH280019   6.003   0.985   0.351 -0.4871 -0.1295  0.4201
19535TIP3    H180020   6.023   1.050   0.283 -0.0228 -0.3026  0.3950
19535TIP3    H280021   6.083   0.935   0.361 -0.4341  0.1360  1.3696
19536TIP3   OH280022   0.131   1.653   2.731 -0.1446 -0.2770 -0.0406
19536TIP3    H180023   0.117   1.685   2.821  0.0676  0.7739 -0.3757
19536TIP3    H280024   0.170   1.566   2.743  0.9778  0.3314  0.8888
19537TIP3   OH280025   3.108   2.902   1.001  0.5912 -0.2510 -0.0938
19537TIP3    H180026   3.130   2.866   1.087 -0.9711 -0.4140  0.2724
19537TIP3    H280027   3.088   2.826   0.947  0.4137 -0.0838 -0.2644
19538TIP3   OH280028   2.958   5.941   4.987  0.0031 -0.3619 -0.1295
19538TIP3    H180029   2.964   5.923   4.893  1.0789 -1.8434  0.1876
19538TIP3    H280030   2.879   5.995   4.996 -1.9718 -2.8119 -1.5217
19539TIP3   OH280031   6.701   3.116  12.044  0.7435 -0.4090  1.0441
19539TIP3    H180032   6.765   3.100  11.974 -1.7204 -0.6903 -1.3456
19539TIP3    H280033   6.653   3.033  12.052  0.5112 -0.1450  2.5780
19540TIP3   OH280034   6.161   2.586   4.651 -0.5463  0.2637 -0.4900
19540TIP3    H180035   6.212   2.606   4.730  0.3523 -2.4834 -0.2638
19540TIP3    H280036   6.088   2.533   4.682 -0.2102 -0.8031 -1.4555
19541TIP3   OH280037   5.733   3.207  14.224  0.2358  0.2183 -0.2481
19541TIP3    H180038   5.800   3.214  14.155  0.0425  0.4909 -0.4105
19541TIP3    H280039   5.665   3.268  14.197  1.1823  2.1008  1.3817
19542TIP3   OH280040   3.348   4.950  12.613  0.0752 -0.5240  0.1726
19542TIP3    H180041   3.343   5.045  12.611  0.0204 -0.5354 -0.5413
19542TIP3    H280042   3.421   4.931  12.671  0.7650 -0.0106 -0.5040
19543TIP3   OH280043   0.773   2.220  11.747 -0.0522  0.3780 -0.4828
19543TIP3    H180044   0.699   2.229  11.686 -0.1463  0.7091 -0.3233
19543TIP3    H280045   0.836   2.165  11.700 -0.5600 -0.2182 -0.4698
19544TIP3   OH280046   4.501   6.274   6.222 -0.6259  0.1116 -0.5899
19544TIP3    H180047   4.540   6.359   6.202 -0.4204 -0.1177 -1.1774
19544TIP3    H280048   4.571   6.227   6.270 -0.7748  0.3053 -0.1779
19545TIP3   OH280049   3.955   4.381   0.438 -0.8176  0.1128 -0.0729
19545TIP3    H180050   3.951   4.467   0.481 -1.5350 -0.1287  0.3618
19545TIP3    H280051   3.868   4.370   0.399 -0.1195  0.4453 -1.8588
19546TIP3   OH280052   3.830   1.970   0.703  0.9868 -0.0778  0.3812
19546TIP3    H180053   3.831   1.975   0.798 -1.2558 -2.8345  0.6812
19546TIP3    H280054   3.905   1.914   0.681  1.2588  0.2231  0.5205
19547TIP3   OH280055   5.070   1.120   5.891 -0.2793 -0.0634 -0.2985
19547TIP3    H180056   5.098   1.205   5.924 -0.4749 -0.2709  0.4268
19547TIP3    H280057   4.979   1.112   5.919 -1.0177  0.4621 -2.3563
19548TIP3   OH280058   2.252   6.331   1.190  0.2017 -0.2586  0.0292
19548TIP3    H180059   2.234   6.238   1.178  1.5097 -0.3436 -1.5713
19548TIP3    H280060   2.187   6.359   1.255 -0.9196 -2.0306 -0.2477
19549TIP3   OH280061   6.000   5.992  12.361 -0.3960 -0.1111 -0.2901
19549TIP3    H180062   6.034   5.996  12.450 -0.6771 -0.0930 -0.1810
19549TIP3    H280063   5.955   5.908  12.356 -0.2198 -0.1949 -0.4752
19550TIP3   OH280064   5.541   3.982  13.817  0.4602 -0.4757 -0.1082
19550TIP3    H180065   5.556   3.894  13.850 -0.2758  0.2880  2.4860
19550TIP3    H280066   5.452   3.980  13.783  1.0941 -1.1678 -1.8560
19551TIP3   OH280067   4.364   4.139   3.815  0.1349 -0.1807  0.1169
19551TIP3    H180068   4.343   4.130   3.723  1.2953 -0.7675 -0.1166
19551TIP3    H280069   4.366   4.049   3.848 -1.7675  0.0973  1.0911
19552TIP3   OH280070   3.268   4.346  15.541 -0.2725  0.0399 -0.0885
19552TIP3    H180071   3.262   4.377  15.451 -0.1600 -0.9490 -0.4464
19552TIP3    H280072   3.229   4.258  15.539  1.1000 -0.6127  0.5003
19553TIP3   OH280073   3.158   2.804   5.979  0.3264 -0.1405 -0.3456
19553TIP3    H180074   3.150   2.899   5.983 -0.1533 -0.2092  0.8083
19553TIP3    H280075   3.085   2.776   5.924 -0.9091  0.0251  1.1382
19554TIP3   OH280076   1.339   6.427   2.897  0.5254  0.4392  0.0360
19554TIP3    H180077   1.317   6.407   2.806  0.5705  0.5756 -0.0050
19554TIP3    H280078   1.256   6.456   2.936  0.2988 -0.5028  0.2857
19555TIP3   OH280079   1.178   3.805  12.422 -0.3411  0.3524 -0.7890
19555TIP3    H180080   1.164   3.795  12.328  0.5213  0.2535 -0.9087
19555TIP3    H280081   1.150   3.895  12.441  0.6138  0.7786 -1.3575
19556TIP3   OH280082   5.649   1.817  11.075 -0.5655 -0.4098 -0.0839
19556TIP3    H180083   5.661   1.815  10.980 -1.7121  0.4801 -0.2670
19556TIP3    H280084   5.586   1.748  11.093 -0.4621 -0.4791  0.0117
19557TIP3   OH280085   6.650   0.278  13.999 -0.6167  0.5978  0.3439
19557TIP3    H180086   6.654   0.188  14.032 -0.8390  0.1855 -0.6826
19557TIP3    H280087   6.741   0.305  13.992 -0.5279  0.3062  0.3173
19558TIP3   OH280088   5.197   1.664  11.168 -0.3963  0.3366  0.7021
19558TIP3    H180089   5.209   1.722  11.092  0.0386 -2.7741 -1.7946
19558TIP3    H280090   5.133   1.600  11.139  0.3795 -1.4298  2.6923
19559TIP3   OH280091   1.111   6.255   2.044  0.1496 -0.5914  0.0614
19559TIP3    H180092   1.171   6.326   2.067 -1.1263  0.4726  0.2399
19559TIP3    H280093   1.103   6.205   2.125  0.8224 -0.7650  0.0244
19560TIP3   OH280094   5.638   5.823   4.991  0.0788  0.5629  0.5616
19560TIP3    H180095   5.652   5.731   5.014 -1.6298  0.2662  0.5180
19560TIP3    H280096   5.675   5.832   4.903  0.3066 -0.0677  0.5924
19561TIP3   OH280097   0.446   1.748  12.933  0.1692  0.3826  0.2006
19561TIP3    H180098   0.417   1.664  12.897  0.8595  0.8808 -1.6270
19561TIP3    H280099   0.500   1.725  13.009  1.2288 -0.9022 -0.9023
19562TIP3   OH280100   0.809   1.127  12.277  0.8363 -0.0868 -0.1439
19562TIP3    H180101   0.882   1.072  12.249  0.7602  0.0454 -0.6078
19562TIP3    H280102   0.746   1.122  12.206  0.4057 -0.1631  0.2357
19563TIP3   OH280103   3.125   0.929  13.748 -0.1247 -0.0002 -0.7408
19563TIP3    H180104   3.100   0.870  13.676  1.8500 -0.9383 -0.7471
19563TIP3    H280105   3.082   0.893  13.825 -1.0682  0.1362 -1.1922
19564TIP3   OH280106   2.801   5.428   6.579  0.3394 -0.3002 -0.3673
19564TIP3    H180107   2.865   5.357   6.585  0.2622 -0.3028  0.7005
19564TIP3    H280108   2.780   5.434   6.486  1.3786 -0.7502 -0.6417
19565TIP3   OH280109   1.823   5.861   0.907 -0.5262  0.7954 -0.5027
19565TIP3    H180110   1.813   5.785   0.851  1.6635 -0.0208  0.1225
19565TIP3    H280111   1.804   5.828   0.995 -1.1396  1.3812 -0.4070
19566TIP3   OH280112   4.463   4.818   2.268  0.6950  0.2534  0.0174
19566TIP3    H180113   4.532   4.874   2.304  1.2427 -0.5465  0.2173
19566TIP3    H280114   4.430   4.867   2.192  0.5453  1.2607  0.7177
19567TIP3   OH280115   4.878   1.265   0.416 -0.4578  0.4710  0.2055
19567TIP3    H180116   4.860   1.252   0.509 -0.7537 -0.8220 -0.0130
19567TIP3    H280117   4.833   1.192   0.372  0.1498  0.7336 -0.8948
19568TIP3   OH280118   2.177   0.675   6.569  0.0120 -0.0296 -0.5682
19568TIP3    H180119   2.092   0.637   6.595  0.6048 -2.3008 -1.6967
19568TIP3    H280120   2.240   0.605   6.585  1.4696  1.1050 -1.1485
19569TIP3   OH280121   4.171   5.745  15.098  0.7100 -0.2593 -0.2479
19569TIP3    H180122   4.095   5.692  15.077 -1.1117  1.9031  0.5582
19569TIP3    H280123   4.223   5.689  15.157 -2.9735 -0.0472  3.6696
19570TIP3   OH280124   3.452   5.000  16.446  0.0148  0.5075  0.0082
19570TIP3    H180125   3.467   4.915  16.404  1.2171  0.6760  0.0575
19570TIP3    H280126   3.368   4.990  16.490  0.5194 -0.9725  0.7184
19571TIP3   OH280127   6.391   5.460   0.957  0.9565  0.6035 -0.5662
19571TIP3    H180128   6.379   5.415   1.040  0.2572  0.8332 -0.5385
19571TIP3    H280129   6.310   5.509   0.944  0.4552 -0.5525 -2.0699
19572TIP3   OH280130   5.446   5.699   0.768 -0.1973 -0.4253 -0.1823
19572TIP3    H180131   5.489   5.766   0.714 -0.6318  0.1203  0.1381
19572TIP3    H280132   5.369   5.673   0.717 -1.2854  0.9719  0.6900
19573TIP3   OH280133   2.818   1.164  11.562  0.0516 -0.4714  0.1894
19573TIP3    H180134   2.849   1.082  11.599  0.5277 -0.4793 -0.2087
19573TIP3    H280135   2.759   1.200  11.628 -1.0888 -1.6949 -0.1205
19574TIP3   OH280136   0.538   5.159  11.428  0.0766 -0.3509 -0.1311
19574TIP3    H180137   0.490   5.121  11.354  2.8011 -0.8464 -1.8018
19574TIP3    H280138   0.519   5.101  11.502  0.3346 -2.1882 -1.4517
19575TIP3   OH280139   1.582   6.492   5.936 -0.1277  0.4740  0.0295
19575TIP3    H180140   1.675   6.506   5.917 -0.2417  2.0055  0.3905
19575TIP3    H280141   1.578   6.484   6.032 -0.5916  3.2334  0.3418
19576TIP3   OH280142   6.267   2.859  11.899 -0.3184  0.0182  0.2815
19576TIP3    H180143   6.302   2.793  11.839  1.3346  0.8872  0.2265
19576TIP3    H280144   6.182   2.882  11.862 -0.2074 -0.9068 -0.5985
19577TIP3   OH280145   6.208   3.911  15.155 -0.4025 -0.6218  0.3652
19577TIP3    H180146   6.251   3.829  15.180 -2.4628 -0.9874  3.2106
19577TIP3    H280147   6.180   3.896  15.064  2.4738 -1.5406 -0.4828
19578TIP3   OH280148   0.461   3.769  13.188  0.2804  0.2842  0.6793
19578TIP3    H180149   0.533   3.773  13.251  1.1732 -2.3913 -0.0344
19578TIP3    H280150   0.388   3.730  13.237  0.9271 -1.6514  0.1907
19579TIP3   OH280151   2.264   1.145   4.751 -0.1565  0.2985 -0.5822
19579TIP3    H180152   2.238   1.053   4.747 -0.9842  0.5407 -0.9741
19579TIP3    H280153   2.315   1.152   4.832 -0.4416 -0.4177 -0.3347
19580TIP3   OH280154   2.941   2.372   5.549  0.4475 -0.1782 -0.2212
19580TIP3    H180155   3.032   2.383   5.574  0.6067  0.0580 -0.8875
19580TIP3    H280156   2.939   2.387   5.454 -0.4688  1.0400 -0.0411
19581TIP3   OH280157   4.369   1.115  11.881 -0.3144 -0.0878  0.4307
19581TIP3    H180158   4.377   1.041  11.941 -2.7804 -0.5184  0.3364
19581TIP3    H280159   4.427   1.182  11.917  3.4298 -2.5465 -0.4507
19582TIP3   OH280160   4.852   0.583  16.118 -0.7287 -0.0394  0.3410
19582TIP3    H180161   4.809   0.600  16.203 -2.7798  0.0910 -0.6550
19582TIP3    H280162   4.942   0.561  16.141 -0.3109  3.0474  2.3793
19583TIP3   OH280163   1.640   3.745   1.151  0.3795  0.0132 -0.0008
19583TIP3    H180164   1.683   3.714   1.231  1.1736 -2.1968 -1.1851
19583TIP3    H280165   1.686   3.700   1.081 -2.0790 -0.2919 -1.5284
19584TIP3   OH280166   0.653   2.450  16.803 -0.2807 -0.5280  0.2990
19584TIP3    H180167   0.620   2.530  16.844 -1.3054 -0.3289 -0.8329
19584TIP3    H280168   0.617   2.379  16.856 -1.4943 -0.2753 -0.1366
19585TIP3   OH280169   0.452   5.981  12.815  0.0278  0.3079  0.0266
19585TIP3    H180170   0.461   6.075  12.826 -1.7520  0.1944  4.6394
19585TIP3    H280171   0.529   5.944  12.858 -0.6293 -0.3075  0.7110
19586TIP3   OH280172   1.962   0.242   4.135  0.1564  0.5622  0.1030
19586TIP3    H180173   1.963   0.270   4.227 -0.5011 -0.1001  0.3232
19586TIP3    H280174   1.886   0.184   4.129  0.7093 -0.1012 -0.6556
19587TIP3   OH280175   1.623   2.797   0.376  0.2055 -0.5153 -0.5080
19587TIP3    H180176   1.632   2.725   0.439  0.1471  0.3064  0.4620
19587TIP3    H280177   1.553   2.851   0.412  1.6317  1.1359 -0.1359
19588TIP3   OH280178   6.757   0.048   0.219  0.0703  0.2556 -0.6058
19588TIP3    H180179   6.744   0.134   0.259  0.1517  0.8313 -1.7501
19588TIP3    H280180   6.852   0.037   0.216  0.0463 -0.2881  0.3528
19589TIP3   OH280181   0.850   1.297  11.617  0.5497 -0.0122 -0.1683
19589TIP3    H180182   0.755   1.294  11.614  0.5693 -0.8996 -0.2047
19589TIP3    H280183   0.877   1.288  11.526  0.6511  1.7322 -0.3306
19590TIP3   OH280184   4.137   1.240   0.928 -0.3092  0.4988  0.3660
19590TIP3    H180185   4.168   1.204   1.012 -1.0293  1.0140  0.8736
19590TIP3    H280186   4.188   1.319   0.915 -0.9185  0.9865  0.8635
19591TIP3   OH280187   1.188   6.724  13.559  0.4932  0.3634 -0.3930
19591TIP3    H180188   1.158   6.814  13.572  0.2140  0.1659  0.4281
19591TIP3    H280189   1.203   6.717  13.465 -1.9320  0.5315 -0.8724
19592TIP3   OH280190   6.646   3.808   0.926  0.1625  0.4623 -0.0840
19592TIP3    H180191   6.617   3.899   0.931  0.1479  0.5826 -1.7877
19592TIP3    H280192   6.614   3.777   0.841 -0.1190 -1.2447  0.5983
19593TIP3   OH280193   1.271   0.262   5.522 -0.2250 -0.6915 -0.5846
19593TIP3    H180194   1.193   0.293   5.569  0.7898 -0.2825  0.8862
19593TIP3    H280195   1.340   0.259   5.589  1.2589 -0.2070 -2.0287
19594TIP3   OH280196   0.330   5.130   5.968  0.2316 -0.3825  0.8180
19594TIP3    H180197   0.364   5.040   5.966  0.5331 -0.2578 -0.2391
19594TIP3    H280198   0.342   5.162   5.879  0.7831  0.9595  1.3489
19595TIP3   OH280199   2.233   0.167   5.588 -0.6353 -0.2591 -0.7295
19595TIP3    H180200   2.264   0.082   5.557 -0.6292 -0.8915  0.9250
19595TIP3    H280201   2.311   0.209   5.625 -0.6949  0.3681 -1.2925
19596TIP3   OH280202   6.558   1.860  15.625 -0.2743 -0.9600  0.0200
19596TIP3    H180203   6.556   1.768  15.597 -2.0991 -0.6828 -0.8716
19596TIP3    H280204   6.485   1.867  15.687 -0.9411  0.1475 -0.8533
19597TIP3   OH280205   1.895   1.130   0.647 -0.1897 -0.8514 -0.2635
19597TIP3    H180206   1.948   1.210   0.643  0.8964 -1.5612 -0.5603
19597TIP3    H280207   1.958   1.060   0.629 -1.0746 -1.7918  0.2869
19598TIP3   OH280208   6.679   5.397  16.595 -0.0671 -0.5406 -0.3094
19598TIP3    H180209   6.696   5.474  16.651 -1.6538 -0.3983  0.0160
19598TIP3    H280210   6.684   5.431  16.506 -1.8567  0.2457 -0.1631
19599TIP3   OH280211   1.957   1.153   4.872  0.1245 -0.2274 -0.0875
19599TIP3    H180212   1.881   1.211   4.874  1.8706  2.2768 -1.6000
19599TIP3    H280213   1.950   1.107   4.788 -0.5149 -1.2408  0.4941
19600TIP3   OH280214   0.028   5.326  14.753  0.3702 -0.5370  0.0961
19600TIP3    H180215  -0.062   5.341  14.781 -0.1488  0.4727 -1.9033
19600TIP3    H280216   0.046   5.235  14.775 -1.1178 -0.7340  0.5787
19601TIP3   OH280217   2.820   1.300   4.013  0.4818 -0.3066 -0.3485
19601TIP3    H180218   2.742   1.249   3.994 -0.1621  0.3592  0.4171
19601TIP3    H280219   2.813   1.321   4.107  0.7647  1.0798 -0.6082
19602TIP3   OH280220   4.777   3.774   0.458 -0.1827  0.1568  0.0119
19602TIP3    H180221   4.693   3.735   0.431  0.2512 -0.2929 -0.7490
19602TIP3    H280222   4.823   3.790   0.375  0.9079 -0.5701  0.4576
19603TIP3   OH280223   0.248   4.618  13.592 -0.1797  0.5967  0.0432
19603TIP3    H180224   0.257   4.695  13.649  0.2928  0.0505  0.7327
19603TIP3    H280225   0.337   4.582  13.587 -0.4495 -0.0780 -0.0109
19604TIP3   OH280226   2.772   5.070  17.092  0.3530  0.1727  0.1828
19604TIP3    H180227   2.836   5.114  17.148 -0.8797  0.3866  1.4740
19604TIP3    H280228   2.708   5.034  17.153  0.6663 -2.4261 -0.8995
19605TIP3   OH280229   1.761   1.857  16.189 -0.5390 -0.4764 -0.2187
19605TIP3    H180230   1.832   1.795  16.173 -1.1341 -1.4167  0.7206
19605TIP3    H280231   1.746   1.853  16.283 -2.3730 -0.9001 -0.4894
19606TIP3   OH280232   2.985   2.262  16.656  0.8671  0.1179 -0.4589
19606TIP3    H180233   3.045   2.192  16.685 -0.9238 -1.6904 -0.8543
19606TIP3    H280234   2.898   2.224  16.668 -0.2919  2.9289  0.8262
19607TIP3   OH280235   1.284   2.812  17.006  0.0546 -0.3753 -0.0649
19607TIP3    H180236   1.197   2.806  16.967  0.4645 -1.1479 -0.9008
19607TIP3    H280237   1.311   2.721  17.020  1.5098 -0.2399 -1.6420
19608TIP3   OH280238   3.690   1.284  14.120 -0.0356 -0.0422  0.1537
19608TIP3    H180239   3.776   1.281  14.163  0.1075  0.9202 -0.0495
19608TIP3    H280240   3.636   1.224  14.171  0.4150  0.3094  1.0719
19609TIP3   OH280241   5.333   5.398   5.879 -0.3286 -0.2574 -0.2581
19609TIP3    H180242   5.400   5.460   5.907 -0.5002  0.6486 -1.7497
19609TIP3    H280243   5.338   5.399   5.783 -2.9821  0.4640 -0.4631
19610TIP3   OH280244   0.719   3.582  11.278  0.6087  0.5331  0.1162
19610TIP3    H180245   0.646   3.575  11.339 -1.8468  0.8249 -2.5418
19610TIP3    H280246   0.711   3.670  11.241  1.8925  0.3284 -0.7309
19611TIP3   OH280247   2.616   1.562   2.318  0.6280  0.5084 -0.4482
19611TIP3    H180248   2.687   1.512   2.277 -0.4579 -3.7394  2.2300
19611TIP3    H280249   2.630   1.550   2.412 -2.7137  0.8749  0.1932
19612TIP3   OH280250   6.613   6.690   0.911  0.0376  0.3668  0.1174
19612TIP3    H180251   6.584   6.635   0.839  0.0619 -0.7602  0.9512
19612TIP3    H280252   6.610   6.779   0.875  0.1148 -0.1655 -1.2834
19613TIP3   OH280253   3.637   5.795  12.906  0.0593 -0.0503 -0.0806
19613TIP3    H180254   3.721   5.751  12.921  0.9868  0.8948 -2.1401
19613TIP3    H280255   3.577   5.725  12.880 -0.2131 -0.9238  2.5779
19614TIP3   OH280256   3.397   0.530   3.615  0.1480 -0.3689 -0.2494
19614TIP3    H180257   3.321   0.584   3.633  0.2381 -0.4773  0.4704
19614TIP3    H280258   3.395   0.516   3.520  1.4761  2.9290 -0.9221
19615TIP3   OH280259   5.762   5.073  10.971 -0.5185 -0.3929 -0.1136
19615TIP3    H180260   5.798   5.045  10.887  0.5187  0.2425  0.1016
19615TIP3    H280261   5.793   5.006  11.033 -2.9206 -1.9890 -0.4914
19616TIP3   OH280262   0.780   6.559   3.462  0.1472  0.1895  0.9874
19616TIP3    H180263   0.684   6.556   3.466  0.1229  1.0992  1.3829
19616TIP3    H280264   0.801   6.652   3.473  1.0523  0.0893  0.1886
19617TIP3   OH280265   3.036   6.745  11.653 -0.0612 -0.1269  0.5357
19617TIP3    H180266   3.107   6.807  11.671 -0.1887  0.1717  0.0181
19617TIP3    H280267   3.068   6.691  11.581  0.4058 -1.2602  1.5608
19618TIP3   OH280268   1.367   2.285   5.344 -0.3520 -0.2265  0.1478
19618TIP3    H180269   1.421   2.255   5.270 -1.8137 -0.4702 -0.8488
19618TIP3    H280270   1.292   2.225   5.345 -1.7839  1.4949  0.0372
19619TIP3   OH280271   6.210   2.537  10.499 -0.1995 -1.0583 -0.8050
19619TIP3    H180272   6.161   2.472  10.549 -0.4913 -1.6539 -1.8326
19619TIP3    H280273   6.175   2.530  10.410  1.2059 -0.9472 -1.3950
19620TIP3   OH280274   3.831   3.431  12.917 -0.2096  0.0091  0.1766
19620TIP3    H180275   3.861   3.497  12.978  0.9727 -1.1368  0.8885
19620TIP3    H280276   3.805   3.480  12.839  0.6302  1.3063  0.6851
19621TIP3   OH280277   5.339   1.208  10.992 -0.2140  0.3288  0.3783
19621TIP3    H180278   5.338   1.302  10.976 -0.2726  0.1432 -0.8060
19621TIP3    H280279   5.274   1.172  10.931 -0.5610 -0.4336  1.1714
19622TIP3   OH280280   1.924   4.747  16.999 -0.1709  0.6794  0.1425
19622TIP3    H180281   1.898   4.813  16.935  3.2266  0.5767 -1.6008
19622TIP3    H280282   1.951   4.672  16.946  0.2638 -0.4341  1.8482
19623TIP3   OH280283   3.715   2.342  13.745  0.0165 -0.1547 -0.0876
19623TIP3    H180284   3.655   2.379  13.809  1.5012  0.8558  0.7713
19623TIP3    H280285   3.784   2.301  13.797  0.6266 -0.3822 -1.0385
19624TIP3   OH280286   5.602   4.932  14.376  0.1698 -0.8604 -0.3127
19624TIP3    H180287   5.676   4.874  14.362 -0.7984 -2.4711  0.9401
19624TIP3    H280288   5.607   4.956  14.468 -0.2659 -0.1134 -0.4731
19625TIP3   OH280289   4.704   3.642   1.700 -0.3960  0.1958 -0.1110
19625TIP3    H180290   4.678   3.576   1.636 -1.6301  0.3783  0.1578
19625TIP3    H280291   4.628   3.701   1.705 -0.0885  0.5272  1.0550
19626TIP3   OH280292   2.944   4.723  12.770  0.3572  0.2896 -0.3461
19626TIP3    H180293   2.983   4.639  12.797 -0.3642 -0.1014 -0.5104
19626TIP3    H280294   2.988   4.744  12.688  2.0465  1.1247  0.6934
19627TIP3   OH280295   1.961   3.913   5.266 -0.5733 -0.0126 -0.1379
19627TIP3    H180296   1.920   3.826   5.262 -0.2339 -0.1702 -0.2299
19627TIP3    H280297   1.986   3.923   5.358 -1.9887  0.6385  0.2148
19628TIP3   OH280298   3.336   4.732   4.889  0.1428 -0.0041  0.1217
19628TIP3    H180299   3.242   4.718   4.898 -0.0058  0.5967 -0.3628
19628TIP3    H280300   3.347   4.764   4.799  1.2621 -3.6526 -1.2076
19629TIP3   OH280301   5.743   4.369   1.636  0.2846  0.1335 -0.8727
19629TIP3    H180302   5.813   4.412   1.587  0.1932  0.1948 -0.9485
19629TIP3    H280303   5.662   4.409   1.604  0.2675  0.7267 -0.1285
19630TIP3   OH280304   5.327   3.967   1.812  0.1793 -0.7756  0.1822
19630TIP3    H180305   5.234   3.972   1.832  0.0680 -0.4759 -0.4006
19630TIP3    H280306   5.369   4.022   1.878 -0.0366 -1.0765  0.5707
19631TIP3   OH280307   4.462   0.274  12.793  0.0734  0.1939 -0.1814
19631TIP3    H180308   4.438   0.291  12.702 -0.0870 -1.2688 -0.4469
19631TIP3    H280309   4.533   0.210  12.787 -1.9672 -2.3687  0.6842
19632TIP3   OH280310   4.297   4.458   0.258  0.5583  0.6429  0.4962
19632TIP3    H180311   4.270   4.442   0.349 -1.8580  0.6746 -0.1487
19632TIP3    H280312   4.279   4.376   0.213  1.0082  0.8787 -0.1219
19633TIP3   OH280313   1.913   1.685  13.709  0.0655 -0.0664  0.0590
19633TIP3    H180314   1.959   1.669  13.626  0.7513  0.6943  0.2729
19633TIP3    H280315   1.820   1.679  13.687  0.2458 -0.2030 -0.6961
19634TIP3   OH280316   1.475   1.766  15.541  0.0178 -0.3849  0.4249
19634TIP3    H180317   1.539   1.818  15.588  0.1408 -0.2387  0.0982
19634TIP3    H280318   1.501   1.675  15.556  0.2214 -0.3295  0.4017
19635TIP3   OH280319   6.739   6.257   2.456  0.2050  0.5042 -0.5272
19635TIP3    H180320   6.824   6.215   2.468  0.3379  1.0962  0.8125
19635TIP3    H280321   6.757   6.333   2.401  0.7219  1.1369  0.4936
19636TIP3   OH280322   2.200   3.975  16.416 -0.0008 -0.4193 -0.5488
19636TIP3    H180323   2.290   3.967  16.387  0.7153 -1.4194  1.7339
19636TIP3    H280324   2.147   3.955  16.339  1.7487 -2.1155 -1.3680
19637TIP3   OH280325   6.404   1.584  17.006 -0.1323  0.2757 -0.1664
19637TIP3    H180326   6.324   1.600  17.056  1.1106  1.7511  1.4652
19637TIP3    H280327   6.379   1.515  16.944 -2.3754 -0.0440  0.9574
19638TIP3   OH280328   2.260   3.960  16.836 -0.1388  0.7709 -0.0304
19638TIP3    H180329   2.229   3.997  16.918 -1.8904 -0.5551 -0.0359
19638TIP3    H280330   2.248   3.865  16.847 -0.8916  0.5953 -1.9887
19639TIP3   OH280331   1.477   4.842  16.596 -0.5021 -0.5954  0.0246
19639TIP3    H180332   1.522   4.788  16.661 -0.7084  0.8125  1.3741
19639TIP3    H280333   1.392   4.862  16.636 -0.4691  0.6499 -0.4978
19640TIP3   OH280334   2.193   5.502  12.726 -0.4723 -0.0898  0.5010
19640TIP3    H180335   2.165   5.434  12.788  1.1122 -1.2426  0.0119
19640TIP3    H280336   2.277   5.533  12.761 -0.1592  0.1126 -0.4143
19641TIP3   OH280337   1.772   4.608  15.612 -0.1128  0.3654 -0.5870
19641TIP3    H180338   1.842   4.548  15.639 -0.1925  0.2857 -0.5568
19641TIP3    H280339   1.801   4.693  15.643 -0.8343  0.0780  0.9583
19642TIP3   OH280340   3.923   3.979  13.869  0.5685 -0.9919  0.0514
19642TIP3    H180341   3.961   3.948  13.787 -1.1322  0.2145 -1.2696
19642TIP3    H280342   3.906   3.899  13.919  0.2050 -1.8948 -1.4419
19643TIP3   OH280343   0.145   0.870   4.175  0.0098 -0.8333 -0.0555
19643TIP3    H180344   0.106   0.939   4.230 -1.9129 -2.1427  0.3055
19643TIP3    H280345   0.232   0.856   4.213 -0.3730 -0.0438  1.1663
19644TIP3   OH280346   1.781   5.657  11.108 -0.4722  0.3019  0.1341
19644TIP3    H180347   1.829   5.705  11.175  1.2195  0.5289 -1.1462
19644TIP3    H280348   1.721   5.722  11.070 -0.0245  0.7091  0.1136
19645TIP3   OH280349   0.756   3.135   3.499  0.1405 -0.0173 -0.3436
19645TIP3    H180350   0.778   3.105   3.411 -0.6581  2.9004 -1.6452
19645TIP3    H280351   0.824   3.097   3.555  1.8647 -0.3202 -2.5062
19646TIP3   OH280352   2.214   4.390   2.825 -0.6593  0.4261 -0.1815
19646TIP3    H180353   2.192   4.396   2.918 -1.1008  1.4507 -0.3406
19646TIP3    H280354   2.288   4.329   2.821 -0.7913  0.1955  0.8126
19647TIP3   OH280355   0.186   4.497  11.187  0.1242  0.7372 -0.3479
19647TIP3    H180356   0.220   4.578  11.227  1.1924  0.7056 -1.1704
19647TIP3    H280357   0.248   4.476  11.118 -1.4756  0.5815 -1.8061
19648TIP3   OH280358   1.739   3.398  14.666  0.3599  0.4357 -0.1634
19648TIP3    H180359   1.670   3.410  14.732  0.0223 -0.1136 -0.4148
19648TIP3    H280360   1.819   3.388  14.717  0.1512  0.3657  0.1541
19649TIP3   OH280361   0.573   1.460  14.156  0.2679 -0.0468  0.3077
19649TIP3    H180362   0.489   1.493  14.124 -0.6657 -0.7512  1.9008
19649TIP3    H280363   0.631   1.463  14.080 -0.8881  1.4493 -0.5698
19650TIP3   OH280364   2.548   6.185  15.033 -0.6200 -0.2293 -0.4728
19650TIP3    H180365   2.593   6.270  15.027 -0.8540  0.1066  1.8449
19650TIP3    H280366   2.618   6.122  15.046 -0.5557 -0.2326 -0.8089
19651TIP3   OH280367   0.367   1.390   5.354 -0.5005  0.3178  0.4171
19651TIP3    H180368   0.412   1.449   5.413 -1.8135  0.0268  1.7757
19651TIP3    H280369   0.277   1.424   5.350 -0.2117  0.9893 -2.3245
19652TIP3   OH280370   1.130   1.149   3.794 -0.0731  0.1896 -0.4966
19652TIP3    H180371   1.037   1.137   3.812  0.0302 -2.0311 -1.1884
19652TIP3    H280372   1.132   1.192   3.708 -0.5389 -2.3592 -1.8915
19653TIP3   OH280373   6.631   5.106  11.555  0.2200 -0.4151 -0.0655
19653TIP3    H180374   6.585   5.093  11.472  1.6771 -0.8516 -0.8278
19653TIP3    H280375   6.561   5.108  11.621 -0.8316 -2.0424 -1.0583
19654TIP3   OH280376   5.357   4.963  13.088 -0.0035 -0.2801 -0.0801
19654TIP3    H180377   5.402   4.894  13.039  0.5132  0.9662 -1.4515
19654TIP3    H280378   5.365   5.040  13.032 -1.5597  0.6208  0.8807
19655TIP3   OH280379   0.784   4.259  13.948  0.0313 -0.4230 -0.3982
19655TIP3    H180380   0.781   4.354  13.940  0.7661 -0.3172  0.4010
19655TIP3    H280381   0.755   4.226  13.863 -1.1329  0.4940 -0.3678
19656TIP3   OH280382   0.127   6.700   0.946  0.1516  0.3780  0.5579
19656TIP3    H180383   0.039   6.697   0.908 -0.1195  0.2199  1.1690
19656TIP3    H280384   0.159   6.610   0.940  0.1725  0.3863  0.5488
19657TIP3   OH280385   5.432   5.074  10.603 -0.1719 -0.0187  0.3620
19657TIP3    H180386   5.485   4.994  10.599 -2.1324 -1.3420 -2.6280
19657TIP3    H280387   5.357   5.050  10.657 -0.7590 -0.2429 -0.5330
19658TIP3   OH280388   1.710   1.889   0.931  0.0779 -0.1495 -0.2168
19658TIP3    H180389   1.784   1.885   0.871  1.8100 -0.1837  1.7806
19658TIP3    H280390   1.722   1.815   0.990 -1.0722  0.3208  0.6671
19659TIP3   OH280391   4.414   1.159   0.420 -0.5058  0.5910 -0.0157
19659TIP3    H180392   4.388   1.115   0.501  0.3248 -1.0016 -0.5633
19659TIP3    H280393   4.366   1.113   0.351  2.6636 -1.6929 -0.9350
19660TIP3   OH280394   2.804   3.415   3.833  0.1344  0.1461  0.6757
19660TIP3    H180395   2.863   3.481   3.868 -1.8226  2.1201  0.4870
19660TIP3    H280396   2.722   3.428   3.882 -1.3448  0.1299 -1.6180
19661TIP3   OH280397   5.168   4.189  14.731  0.2842 -0.6509 -0.6377
19661TIP3    H180398   5.184   4.119  14.669 -0.4027 -2.0985  0.7393
19661TIP3    H280399   5.076   4.179  14.755  0.7833 -0.8899  1.4234
19662TIP3   OH280400   0.089   1.814  15.434 -0.6216  0.2144 -0.0726
19662TIP3    H180401   0.096   1.788  15.343  0.3747  2.2291 -0.6328
19662TIP3    H280402   0.004   1.856  15.441 -1.4852 -1.5275  0.4144
19663TIP3   OH280403   1.457   2.979   1.950 -0.2162  0.7416  0.9397
19663TIP3    H180404   1.416   2.949   1.869  1.6468 -1.6887  0.8066
19663TIP3    H280405   1.533   3.029   1.922  0.3217  0.0622  1.1473
19664TIP3   OH280406   3.768   4.332   2.291 -0.6451 -0.6718 -0.1962
19664TIP3    H180407   3.685   4.337   2.245 -0.6483  0.1580 -0.1310
19664TIP3    H280408   3.754   4.381   2.372  0.2318  0.5762 -0.7403
19665TIP3   OH280409   3.860   2.892  16.819  0.2173 -0.1182 -0.1803
19665TIP3    H180410   3.787   2.946  16.789 -0.8911 -0.7610  1.1991
19665TIP3    H280411   3.930   2.954  16.837 -1.1883  1.0054  1.8743
19666TIP3   OH280412   5.317   0.174  13.734  0.4418 -0.2334  0.2480
19666TIP3    H180413   5.350   0.257  13.699 -0.8011  0.3367  0.3987
19666TIP3    H280414   5.235   0.159  13.687 -0.2733 -0.4345  1.5352
19667TIP3   OH280415   1.480   6.285  13.167 -0.3987  0.7015  0.3232
19667TIP3    H180416   1.422   6.273  13.243 -1.5988  2.8474 -0.1678
19667TIP3    H280417   1.567   6.293  13.205 -1.0895  2.7850  1.6721
19668TIP3   OH280418   4.206   3.728   1.989 -0.4693  1.1564  0.4764
19668TIP3    H180419   4.287   3.745   1.940  0.3624  0.7359  1.6589
19668TIP3    H280420   4.181   3.814   2.024  0.9866  0.8904  2.3300
19669TIP3   OH280421   2.617   5.472   0.849  0.0847  0.6544 -0.1183
19669TIP3    H180422   2.541   5.517   0.812 -0.3534 -0.6200 -0.8210
19669TIP3    H280423   2.583   5.431   0.929 -1.0716 -3.0858 -2.3093
19670TIP3   OH280424   0.576   5.142  14.970  0.0908 -0.0136  0.0220
19670TIP3    H180425   0.612   5.092  14.897  0.9994 -0.9629  1.0674
19670TIP3    H280426   0.504   5.088  15.003 -0.1087  0.2504  0.0156
19671TIP3   OH280427   6.398   0.657   1.702 -0.0074 -0.3079  0.3167
19671TIP3    H180428   6.460   0.694   1.765 -0.1490  0.8516 -0.1916
19671TIP3    H280429   6.450   0.640   1.624  0.0344 -1.1263  0.5120
19672TIP3   OH280430   3.088   0.538  16.961  0.7833  0.5824  0.1908
19672TIP3    H180431   3.170   0.587  16.962  2.4315 -1.9991 -0.4542
19672TIP3    H280432   3.076   0.510  17.052  2.0770 -1.1747 -0.1192
19673TIP3   OH280433   1.526   3.607  14.898 -0.8101  0.0167 -0.0362
19673TIP3    H180434   1.443   3.639  14.934 -0.8232 -0.4801  0.3811
19673TIP3    H280435   1.589   3.619  14.968 -0.7405 -0.5484 -0.0009
19674TIP3   OH280436   0.912   0.923  14.682  0.9866  0.0252  0.1653
19674TIP3    H180437   0.992   0.972  14.665  0.9394  1.0583  2.5176
19674TIP3    H280438   0.910   0.911  14.777 -1.8580  0.4668  0.2675
19675TIP3   OH280439   2.504   3.161   1.309  0.6122 -0.3721  0.0549
19675TIP3    H180440   2.545   3.143   1.224  0.5641  2.0064 -0.5443
19675TIP3    H280441   2.410   3.158   1.291  0.6064  1.3195 -0.2878
19676TIP3   OH280442   1.467   3.883   2.464  0.1364 -0.3276 -0.4550
19676TIP3    H180443   1.476   3.837   2.548 -1.2071  2.0169  1.0992
19676TIP3    H280444   1.438   3.815   2.403 -0.7741 -1.7550  1.4342
19677TIP3   OH280445   5.052   2.726  11.952  0.4831 -0.1417  0.4283
19677TIP3    H180446   4.967   2.686  11.973 -0.9334  1.4137 -1.8928
19677TIP3    H280447   5.101   2.657  11.908 -0.4315 -0.4416 -0.1363
19678TIP3   OH280448   5.620   0.937  15.801  0.2181 -0.2175 -0.1016
19678TIP3    H180449   5.642   0.975  15.716  0.3054 -0.9199 -0.3997
19678TIP3    H280450   5.700   0.893  15.829 -0.4633 -1.9706 -0.7454
19679TIP3   OH280451   4.899   5.368  16.635  0.4093 -0.0571 -0.4468
19679TIP3    H180452   4.913   5.439  16.573  2.2969  0.9623  1.0623
19679TIP3    H280453   4.984   5.324  16.642 -0.9823 -3.4415 -2.3692
19680TIP3   OH280454   5.188   5.541   4.222  0.2513  0.1019  0.0166
19680TIP3    H180455   5.252   5.604   4.253 -0.0665 -0.1092  1.1801
19680TIP3    H280456   5.112   5.554   4.279 -0.5300 -0.0504 -0.9511
19681TIP3   OH280457   3.432   2.634   3.054 -0.1228  0.6861 -0.1923
19681TIP3    H180458   3.377   2.705   3.088 -0.8932 -1.2739  2.9951
19681TIP3    H280459   3.495   2.617   3.123 -0.0134 -1.7756 -0.8197
19682TIP3   OH280460   3.798   6.693  13.790 -0.2592 -0.0139  0.2543
19682TIP3    H180461   3.719   6.641  13.796 -0.3884 -0.2963 -2.3974
19682TIP3    H280462   3.846   6.675  13.870 -2.7607  0.0582  1.8702
19683TIP3   OH280463   4.063   0.633   0.130  0.0817 -0.2312 -0.4480
19683TIP3    H180464   4.086   0.540   0.137 -1.2928 -0.6297 -0.9060
19683TIP3    H280465   4.038   0.644   0.038 -0.2421  0.4774 -0.2787
19684TIP3   OH280466   5.208   2.552  12.141  0.2720  0.8568 -0.4455
19684TIP3    H180467   5.255   2.563  12.059  0.2399  0.6641 -0.4880
19684TIP3    H280468   5.186   2.641  12.168 -1.1358  0.8347 -1.4608
19685TIP3   OH280469   4.795   4.237   5.951 -0.5530 -0.4128 -0.1711
19685TIP3    H180470   4.710   4.224   5.909  0.2201 -2.5547 -1.2013
19685TIP3    H280471   4.789   4.186   6.032  0.2268 -1.8650 -0.9887
19686TIP3   OH280472   6.445   4.874   1.894 -0.9032 -0.1790 -0.3664
19686TIP3    H180473   6.402   4.954   1.925 -0.4442  0.9001 -2.3648
19686TIP3    H280474   6.465   4.825   1.974 -2.0320  1.2568  0.8517
19687TIP3   OH280475   5.593   2.872  12.651 -0.4089  0.1426 -0.2394
19687TIP3    H180476   5.643   2.941  12.695 -0.9399  0.6506 -0.4186
19687TIP3    H280477   5.503   2.885  12.681 -0.9972  1.1810 -2.2550
19688TIP3   OH280478   4.655   2.738  16.275  0.2514 -0.2379 -0.0997
19688TIP3    H180479   4.750   2.750  16.269  0.4984 -2.3499 -1.9354
19688TIP3    H280480   4.619   2.793  16.206  0.2604 -0.3751 -0.2142
19689TIP3   OH280481   2.046   3.918  14.050  0.5237 -0.1243  0.5489
19689TIP3    H180482   2.109   3.983  14.020 -0.4638  1.0585  0.9217
19689TIP3    H280483   2.056   3.917  14.145 -2.7749  3.2909  1.1982
19690TIP3   OH280484   1.834   4.741  10.385  0.2558  0.5036  0.5616
19690TIP3    H180485   1.850   4.783  10.300 -1.7192 -0.4108 -0.3145
19690TIP3    H280486   1.810   4.813  10.443 -2.8543  0.7426 -0.8583
19691TIP3   OH280487   3.248   4.962  11.973  0.6185 -0.3365  0.0415
19691TIP3    H180488   3.195   5.032  12.012  1.3357 -0.2775  0.9283
19691TIP3    H280489   3.242   4.977  11.879  1.6615  1.6003  0.2446
19692TIP3   OH280490   3.519   3.684   1.759 -0.1332 -0.4431  0.2289
19692TIP3    H180491   3.513   3.771   1.798 -0.1075  0.8529 -2.4245
19692TIP3    H280492   3.450   3.634   1.802  0.7595  0.3900  2.8393
19693TIP3   OH280493   4.739   5.647  13.063 -0.2859  0.2944  0.5166
19693TIP3    H180494   4.785   5.655  12.980  0.1659 -1.2866  0.5793
19693TIP3    H280495   4.677   5.575  13.050 -0.6548  0.4424  1.3544
19694TIP3   OH280496   4.071   1.402  15.908  0.4694  0.0974 -0.0715
19694TIP3    H180497   4.033   1.490  15.897 -2.3282 -1.0374 -0.3976
19694TIP3    H280498   3.997   1.343  15.896  2.4027 -2.3754 -0.5419
19695TIP3   OH280499   6.058   6.697   3.155 -0.1724  0.2811 -0.0850
19695TIP3    H180500   6.142   6.674   3.196  0.1889  2.0673  0.2562
19695TIP3    H280501   6.054   6.642   3.077  1.1529 -0.0978  0.0835
19696TIP3   OH280502   5.949   5.305  15.220  0.0379 -0.4672  0.4121
19696TIP3    H180503   6.032   5.275  15.257 -0.0468  0.0218  0.9949
19696TIP3    H280504   5.901   5.341  15.294 -0.3465  0.0309 -0.0771
19697TIP3   OH280505   1.989   6.280   3.979 -0.1554 -0.1013 -0.1589
19697TIP3    H180506   2.001   6.342   3.907 -0.3367  1.1229  0.8185
19697TIP3    H280507   1.908   6.233   3.957 -1.2027  1.4969  0.0597
19698TIP3   OH280508   5.076   3.532  13.176 -0.8674  0.1327 -0.5457
19698TIP3    H180509   5.079   3.485  13.259 -2.0956 -0.1211 -0.6357
19698TIP3    H280510   5.115   3.471  13.113  2.5513  1.2945  0.2191
19699TIP3   OH280511   3.670   1.080   0.225  0.1617 -0.7703 -0.1112
19699TIP3    H180512   3.674   1.149   0.292 -1.7753  0.3813 -1.1048
19699TIP3    H280513   3.581   1.045   0.232  0.5254 -1.9010 -0.8808
19700TIP3   OH280514   6.574   1.127   3.140  0.3406  0.2109  0.4994
19700TIP3    H180515   6.498   1.178   3.168  0.4884 -0.2572  1.8231
19700TIP3    H280516   6.586   1.151   3.048 -1.3186  0.3952  0.2936
19701TIP3   OH280517   6.174   1.655   3.602 -0.1411  0.6283  0.2253
19701TIP3    H180518   6.253   1.661   3.656  1.0728  0.4681 -1.4419
19701TIP3    H280519   6.168   1.739   3.558 -0.5541  0.4293 -0.1110
19702TIP3   OH280520   3.481   4.372   2.069 -0.1113  0.0532 -0.2067
19702TIP3    H180521   3.535   4.392   1.993 -1.1939 -0.2239 -1.0590
19702TIP3    H280522   3.398   4.342   2.033 -1.3231  1.6882  1.0875
19703TIP3   OH280523   2.982   5.254   0.820  0.7045 -0.2951 -0.4782
19703TIP3    H180524   2.979   5.172   0.770  0.4680  0.1934 -1.2951
19703TIP3    H280525   2.897   5.260   0.862  0.7774 -0.5372 -0.2901
19704TIP3   OH280526   6.377   1.667   4.498  0.3466  0.1801  0.2188
19704TIP3    H180527   6.358   1.737   4.560  1.6713  0.0536  0.7840
19704TIP3    H280528   6.299   1.611   4.502  0.3757  0.1990  1.7342
19705TIP3   OH280529   4.444   6.342   1.773 -0.4315  0.0109  0.2082
19705TIP3    H180530   4.494   6.410   1.818  0.5376 -1.6141  1.7421
19705TIP3    H280531   4.437   6.271   1.837 -3.2242 -0.5421 -0.5967
19706TIP3   OH280532   1.081   5.672   0.705  0.0847  0.1720 -0.2424
19706TIP3    H180533   1.005   5.637   0.751  0.1413  0.1799 -0.1425
19706TIP3    H280534   1.100   5.754   0.749  1.5386 -0.8960  1.2265
19707TIP3   OH280535   1.861   3.854   2.739  0.0595  0.2122 -0.2788
19707TIP3    H180536   1.885   3.942   2.769 -0.3449  0.2534 -0.0763
19707TIP3    H280537   1.796   3.869   2.670 -0.9642  0.0307  0.6405
19708TIP3   OH280538   2.784   0.669  12.219 -0.3158  0.3238 -0.5965
19708TIP3    H180539   2.798   0.594  12.277  1.6438  2.4795  1.9914
19708TIP3    H280540   2.870   0.686  12.180 -0.2134  2.2805  0.3551
19709TIP3   OH280541   5.695   1.250   1.906  0.2485 -0.2580 -0.1747
19709TIP3    H180542   5.771   1.275   1.959  0.0213 -0.1887  0.1221
19709TIP3    H280543   5.731   1.229   1.820  0.6021 -0.2093 -0.0389
19710TIP3   OH280544   1.862   6.438  11.847 -0.2642 -0.9871 -0.0686
19710TIP3    H180545   1.790   6.384  11.877 -0.9193 -0.0322  0.1348
19710TIP3    H280546   1.867   6.422  11.752 -0.8019 -0.9980 -0.0989
19711TIP3   OH280547   0.293   5.465   2.837  0.0512 -0.0898  0.1744
19711TIP3    H180548   0.325   5.553   2.854  2.8154 -0.9117 -0.2813
19711TIP3    H280549   0.288   5.423   2.923  0.4633 -0.0258  0.2290
19712TIP3   OH280550   3.513   0.325  10.593 -0.0966 -0.5189  0.1375
19712TIP3    H180551   3.544   0.348  10.680 -0.2988  0.8957 -0.1415
19712TIP3    H280552   3.537   0.400  10.538 -1.2063 -0.7647 -0.7289
19713TIP3   OH280553   5.944   1.182   6.093 -0.0193 -0.5999  0.3014
19713TIP3    H180554   6.038   1.190   6.077 -0.0494  0.6772  0.6302
19713TIP3    H280555   5.917   1.106   6.042  1.2107 -1.0523  0.2944
19714TIP3   OH280556   4.199   3.560   4.555  0.3515  0.1525  0.0481
19714TIP3    H180557   4.213   3.582   4.463  1.0905  1.3497  0.4140
19714TIP3    H280558   4.109   3.588   4.573  0.3840  0.4132 -0.1892
19715TIP3   OH280559   2.819   4.416   1.620 -0.3235 -0.3377 -0.4782
19715TIP3    H180560   2.812   4.512   1.617  2.6848 -0.0015  0.2445
19715TIP3    H280561   2.734   4.385   1.589 -1.3056  2.5562 -0.9915
19716TIP3   OH280562   4.348   4.898   3.447  0.4556 -0.2996 -0.1907
19716TIP3    H180563   4.309   4.956   3.381 -1.0280  0.7904  1.5321
19716TIP3    H280564   4.427   4.945   3.475  1.4491 -1.0705 -1.5671
19717TIP3   OH280565   4.672   3.999   3.586 -0.1513  0.3949 -0.0283
19717TIP3    H180566   4.609   3.936   3.552 -0.7550  0.2536  1.2973
19717TIP3    H280567   4.670   3.987   3.681  0.9774  1.2371  0.1313
19718TIP3   OH280568   6.266   2.809   3.481  0.1805 -0.0932 -0.1645
19718TIP3    H180569   6.301   2.833   3.396 -0.3640 -0.5328 -0.5226
19718TIP3    H280570   6.331   2.749   3.518 -0.2810 -1.0989 -0.9284
19719TIP3   OH280571   2.610   3.390   1.868 -0.3249 -0.0289 -0.6764
19719TIP3    H180572   2.524   3.384   1.827 -1.4108 -1.0033  1.5747
19719TIP3    H280573   2.633   3.300   1.890  0.7333  0.3394 -0.1860
19720TIP3   OH280574   5.671   5.155   0.426  0.1867  0.1059  0.2104
19720TIP3    H180575   5.753   5.184   0.386  1.2645 -0.9148  1.5683
19720TIP3    H280576   5.684   5.170   0.520 -2.0471  1.9149  0.2901
19721TIP3   OH280577   6.460   6.313   2.695  0.0320  0.1098  0.2039
19721TIP3    H180578   6.503   6.228   2.705  1.0675  0.5655 -0.1968
19721TIP3    H280579   6.516   6.361   2.634  0.7601  1.9339  2.1677
19722TIP3   OH280580   1.194   5.141   0.605  0.1140 -0.7483  0.5765
19722TIP3    H180581   1.179   5.233   0.629 -1.0467 -1.1909  1.5955
19722TIP3    H280582   1.147   5.130   0.523 -0.1964 -0.5718  0.7290
19723TIP3   OH280583   0.163   5.442  15.083  0.1693  0.3262  0.3795
19723TIP3    H180584   0.146   5.477  14.996  0.8980 -1.7810 -0.6825
19723TIP3    H280585   0.252   5.472  15.103 -0.1428  1.1432  0.6123
19724TIP3   OH280586   6.495   4.184   3.015 -0.1622  0.2417 -0.0662
19724TIP3    H180587   6.463   4.245   2.948 -1.1071 -0.5225 -0.3323
19724TIP3    H280588   6.532   4.112   2.965 -0.0511  0.0804  0.2474
19725TIP3   OH280589   5.484   2.528  15.065 -0.0506 -0.2504 -0.2830
19725TIP3    H180590   5.494   2.476  15.145 -0.9266  1.0184  0.6866
19725TIP3    H280591   5.472   2.618  15.096  1.3208  0.5466 -1.9129
19726TIP3   OH280592   2.201   5.528   1.881  0.2467  0.1204 -0.3943
19726TIP3    H180593   2.198   5.623   1.875 -0.1456  0.2303  1.1417
19726TIP3    H280594   2.116   5.499   1.848 -1.7798  0.6827  3.6496
19727TIP3   OH280595   3.676   1.936  15.675  0.3125 -0.4019  0.5436
19727TIP3    H180596   3.609   2.003  15.662 -0.4367 -1.1365  0.5242
19727TIP3    H280597   3.674   1.917  15.769  0.4606 -0.4622  0.5356
19728TIP3   OH280598   5.983   2.667  14.791 -0.0119  0.9762 -0.1537
19728TIP3    H180599   5.899   2.707  14.770 -0.4284  0.8052  1.0736
19728TIP3    H280600   6.032   2.668  14.709 -1.4513  0.5012 -1.0628
19729TIP3   OH280601   5.907   6.598   4.352  0.2182 -0.0635  0.5083
19729TIP3    H180602   5.925   6.691   4.341  1.4055 -0.4350 -1.2137
19729TIP3    H280603   5.971   6.569   4.418  0.7605  0.1027  0.0676
19730TIP3   OH280604   5.366   3.033  16.112 -0.3748  0.5577  0.0461
19730TIP3    H180605   5.432   3.012  16.179  0.6857  1.0558 -0.8113
19730TIP3    H280606   5.358   3.129  16.116  0.0628  0.6393 -0.8618
19731TIP3   OH280607   6.297   0.194  13.209  0.0597  0.4610  0.0934
19731TIP3    H180608   6.316   0.259  13.141 -0.8012  0.3820 -0.2392
19731TIP3    H280609   6.265   0.246  13.283  1.2400  0.5690  0.5466
19732TIP3   OH280610   6.282   3.530  10.945  0.1389  0.3265  1.0128
19732TIP3    H180611   6.367   3.555  10.909  0.1560  1.2945  1.6816
19732TIP3    H280612   6.301   3.492  11.031 -0.0040 -0.7789  0.5720
19733TIP3   OH280613   3.475   3.612   4.850  0.1222 -0.6531 -0.6099
19733TIP3    H180614   3.555   3.666   4.850 -0.3755  0.1276 -1.5429
19733TIP3    H280615   3.502   3.530   4.891  0.9366  0.2559  0.7555
19734TIP3   OH280616   4.545   1.526  10.453  0.2497 -0.1313  0.4291
19734TIP3    H180617   4.624   1.575  10.432 -0.5069  0.4903 -1.2045
19734TIP3    H280618   4.500   1.580  10.518  0.4234  0.3151  0.1847
19735TIP3   OH280619   0.771   1.573   4.040  0.4250 -0.2483 -0.4502
19735TIP3    H180620   0.767   1.665   4.063 -0.3796  0.2125 -2.2348
19735TIP3    H280621   0.830   1.534   4.104 -0.7078  1.1037  1.5036
19736TIP3   OH280622   4.973   1.034   0.692  0.2340  0.4271  0.2269
19736TIP3    H180623   5.038   1.009   0.626 -0.2023  1.4050 -0.6103
19736TIP3    H280624   4.898   0.979   0.673  0.4845 -0.0476  0.5994
19737TIP3   OH280625   2.643   3.224  14.532  0.0000  0.0469 -0.6966
19737TIP3    H180626   2.592   3.304  14.545 -0.4335  0.0343 -2.1199
19737TIP3    H280627   2.734   3.252  14.543 -0.2559  0.1255  1.5974
19738TIP3   OH280628   4.496   2.288   2.763  0.3615 -0.3006  0.6676
19738TIP3    H180629   4.439   2.329   2.698 -0.3049 -0.4092  1.1664
19738TIP3    H280630   4.570   2.253   2.713  0.8357  1.2789  0.1828
19739TIP3   OH280631   6.527   3.221  14.056 -0.0523 -0.1755  0.1925
19739TIP3    H180632   6.573   3.139  14.038  0.2830 -0.0877  0.6402
19739TIP3    H280633   6.593   3.277  14.096 -0.1298  0.5080 -0.5970
19740TIP3   OH280634   6.086   5.093   1.116 -0.7737 -0.4855  0.0204
19740TIP3    H180635   6.018   5.108   1.050 -0.9251 -1.2198  0.0011
19740TIP3    H280636   6.167   5.087   1.066 -0.9597 -1.6216 -0.1818
19741TIP3   OH280637   4.608   5.162  12.744  0.5719 -0.5172  0.0606
19741TIP3    H180638   4.698   5.191  12.733 -0.0132  1.0948 -0.7125
19741TIP3    H280639   4.604   5.078  12.697  1.2325  0.2703 -1.4508
19742TIP3   OH280640   5.203   5.639  17.058  0.1562 -0.4342 -0.2962
19742TIP3    H180641   5.123   5.593  17.082  0.5220 -1.7913 -1.5385
19742TIP3    H280642   5.229   5.600  16.975  0.9322  1.4816 -1.0175
19743TIP3   OH280643   6.698   5.474  14.192 -0.2401 -0.4093  0.4708
19743TIP3    H180644   6.681   5.507  14.280 -0.0978 -0.3031  0.4575
19743TIP3    H280645   6.788   5.498  14.173 -0.1793 -0.6808  0.4052
19744TIP3   OH280646   2.837   4.064  13.400  0.0770  0.3425 -0.4034
19744TIP3    H180647   2.796   4.084  13.316 -0.5752  0.7824  0.0048
19744TIP3    H280648   2.886   4.143  13.423  0.7439  0.0028 -0.6483
19745TIP3   OH280649   5.525   3.757   4.547 -0.4000 -0.0028 -0.2917
19745TIP3    H180650   5.455   3.699   4.519 -1.1550  0.5756  0.3426
19745TIP3    H280651   5.570   3.782   4.466 -0.4560 -0.9658 -0.6229
19746TIP3   OH280652   6.206   4.684   0.882  0.3033  0.2874 -0.3540
19746TIP3    H180653   6.122   4.710   0.845  0.2872  1.6403  0.5686
19746TIP3    H280654   6.246   4.629   0.814 -1.9882 -1.7989 -0.1291
19747TIP3   OH280655   1.615   0.817   6.118  0.1009  0.8010 -0.0997
19747TIP3    H180656   1.639   0.905   6.089  1.3796  0.6556  0.4492
19747TIP3    H280657   1.603   0.825   6.212  1.6367  0.1184  0.1771
19748TIP3   OH280658   1.038   5.079  12.705 -0.0198 -0.0257 -0.5820
19748TIP3    H180659   1.028   5.146  12.637  0.2781 -1.0387 -1.6502
19748TIP3    H280660   1.079   5.005  12.660  1.1282 -0.3515  0.9437
19749TIP3   OH280661   6.585   2.972  15.989 -0.6314 -0.0959 -0.4055
19749TIP3    H180662   6.586   3.007  16.078 -1.5481  1.0544 -0.8275
19749TIP3    H280663   6.526   2.896  15.993  1.6562 -1.9261  0.5937
19750TIP3   OH280664   5.423   1.637  13.150  0.3273 -0.1320  0.0454
19750TIP3    H180665   5.458   1.723  13.175 -0.4647  0.5613 -1.1188
19750TIP3    H280666   5.441   1.581  13.225  3.3839  0.3145 -0.2047
19751TIP3   OH280667   1.863   6.570  12.532 -0.3843 -0.6371 -0.0903
19751TIP3    H180668   1.806   6.636  12.570 -0.2933  0.0488 -1.0954
19751TIP3    H280669   1.829   6.557  12.443  1.8785  0.9434 -1.2902
19752TIP3   OH280670   0.689   2.751  12.227 -0.1096  0.2489 -0.3165
19752TIP3    H180671   0.751   2.783  12.161  1.2595 -0.8884  0.3566
19752TIP3    H280672   0.603   2.762  12.186  0.4501  2.3727 -1.0694
19753TIP3   OH280673   4.597   4.766   4.702  0.3823  0.3549  0.0657
19753TIP3    H180674   4.528   4.731   4.759  1.3342  2.2274  2.5995
19753TIP3    H280675   4.620   4.694   4.644 -2.9573 -0.6438 -0.2178
19754TIP3   OH280676   3.104   6.034   6.887  0.2703  0.1606 -0.1033
19754TIP3    H180677   3.053   5.965   6.846  0.3632  1.3963 -2.4728
19754TIP3    H280678   3.121   6.097   6.817  2.1500  1.4732  1.4062
19755TIP3   OH280679   2.123   6.529  11.745 -0.1231  0.4839  0.1887
19755TIP3    H180680   2.108   6.510  11.652  0.6438 -1.2826  0.3903
19755TIP3    H280681   2.040   6.508  11.788  0.3458 -1.3683  0.2402
19756TIP3   OH280682   4.279   6.034   1.024 -0.2472 -0.3230 -0.1432
19756TIP3    H180683   4.234   5.952   1.004 -3.0958  0.9175  0.7090
19756TIP3    H280684   4.335   6.013   1.099  0.3025 -1.8078 -0.9237
19757TIP3   OH280685   6.416   6.667  16.436  0.4284  0.2478  0.0617
19757TIP3    H180686   6.390   6.752  16.472  0.6094 -0.3141  1.6149
19757TIP3    H280687   6.337   6.613  16.439  0.5304  0.0864 -0.0666
19758TIP3   OH280688   6.248   0.435  14.833 -0.1962 -0.0242  0.4253
19758TIP3    H180689   6.197   0.472  14.905 -1.9935 -2.6370  0.6209
19758TIP3    H280690   6.260   0.508  14.773  1.2818  2.2256  3.2458
19759TIP3   OH280691   4.104   4.419  12.066 -0.8724 -0.5987  0.1124
19759TIP3    H180692   4.161   4.342  12.072 -0.3575 -0.2951 -0.7376
19759TIP3    H280693   4.137   4.468  11.991 -0.2764  1.2104  1.5008
19760TIP3   OH280694   3.744   3.880   4.382 -0.0762 -0.4412 -0.2691
19760TIP3    H180695   3.689   3.852   4.455 -1.1337  0.7597 -0.5755
19760TIP3    H280696   3.715   3.969   4.362 -0.2094 -0.9315 -2.5313
19761TIP3   OH280697   1.199   4.530   3.959  0.4389  0.0826 -0.0857
19761TIP3    H180698   1.175   4.452   4.009 -1.1234  1.2440  1.0742
19761TIP3    H280699   1.119   4.583   3.957  1.2862  1.3875 -1.3496
19762TIP3   OH280700   0.022   6.184  15.916 -0.2085 -0.1976  0.7606
19762TIP3    H180701  -0.069   6.159  15.929 -0.0305 -1.2246  0.1623
19762TIP3    H280702   0.059   6.186  16.004 -0.4144 -1.4243  0.8954
19763TIP3   OH280703   0.783   1.530   0.025  0.2900  0.4202 -0.1450
19763TIP3    H180704   0.863   1.545   0.076  1.3388  1.2692 -1.9290
19763TIP3    H280705   0.789   1.439  -0.004  0.4953  0.4206 -0.1036
19764TIP3   OH280706   4.165   1.912   0.677 -0.1988 -0.1207 -0.8994
19764TIP3    H180707   4.257   1.903   0.651 -0.1091  0.0468 -0.6377
19764TIP3    H280708   4.160   1.871   0.763 -0.5283 -0.7974 -1.2347
19765TIP3   OH280709   4.259   4.643   3.404  0.0883  0.1437 -0.0339
19765TIP3    H180710   4.331   4.612   3.349  0.5118  2.2454 -0.7380
19765TIP3    H280711   4.263   4.738   3.398  0.0330  0.4897  3.5627
19766TIP3   OH280712   1.186   6.511  16.494 -0.1401  0.2666 -0.3529
19766TIP3    H180713   1.136   6.543  16.418 -1.2196  1.9047  0.9854
19766TIP3    H280714   1.194   6.587  16.552  1.8582 -0.5878  0.5930
19767TIP3   OH280715   2.765   2.808   1.966 -0.1867 -0.3413 -0.2733
19767TIP3    H180716   2.724   2.800   1.880 -0.3743  0.9402 -0.3238
19767TIP3    H280717   2.749   2.724   2.009 -0.9292 -0.6480 -1.1261
19768TIP3   OH280718   5.967   4.707   4.630 -0.3151  0.2854  0.0308
19768TIP3    H180719   5.886   4.658   4.618 -0.9385  1.3708 -0.3521
19768TIP3    H280720   5.943   4.779   4.689  1.3045 -1.5828  3.2970
19769TIP3   OH280721   6.607   5.190   6.009  0.5578  0.1747  0.9358
19769TIP3    H180722   6.563   5.225   5.931 -0.6695 -0.2646  1.4034
19769TIP3    H280723   6.698   5.218   6.000  0.9863 -1.6835 -1.7609
19770TIP3   OH280724   6.545   6.028  15.353  0.4385  0.2632 -0.5885
19770TIP3    H180725   6.513   6.042  15.264 -2.2148  3.4615  0.6597
19770TIP3    H280726   6.489   5.959  15.389 -0.2006  0.7496 -0.6402
19771TIP3   OH280727   5.448   1.680   2.443 -0.3539 -0.4455 -0.4113
19771TIP3    H180728   5.390   1.627   2.497 -0.6003  1.2916  1.1424
19771TIP3    H280729   5.498   1.733   2.505  0.2295  0.7753 -1.8408
19772TIP3   OH280730   3.882   6.658  17.241 -0.2256 -0.2470 -0.1390
19772TIP3    H180731   3.894   6.636  17.334  0.0973 -0.0918 -0.1422
19772TIP3    H280732   3.942   6.731  17.226  0.4083 -0.8668 -0.6944
19773TIP3   OH280733   5.582   4.122   1.687 -0.4214 -0.5392 -0.4195
19773TIP3    H180734   5.490   4.146   1.683 -0.3084 -0.2143 -1.5303
19773TIP3    H280735   5.626   4.198   1.724 -0.7490 -1.2189  1.4583
19774TIP3   OH280736   2.142   5.497   4.072  0.1246  0.7353 -0.1428
19774TIP3    H180737   2.152   5.592   4.074  0.6104  0.6805  0.2942
19774TIP3    H280738   2.229   5.465   4.047  0.1962  0.3718  0.5544
19775TIP3   OH280739   5.282   3.233   0.252 -0.2998 -0.4168 -0.4620
19775TIP3    H180740   5.192   3.237   0.285 -0.8120  1.5320 -1.9463
19775TIP3    H280741   5.287   3.149   0.207 -1.2291 -0.7286 -0.0173
19776TIP3   OH280742   3.880   1.995   1.006  0.3804 -0.1650  0.3135
19776TIP3    H180743   3.847   1.990   1.096 -0.4021  0.3426  0.0569
19776TIP3    H280744   3.948   2.063   1.009  2.5076 -2.1740  1.1551
19777TIP3   OH280745   6.510   2.740  15.765 -0.0418 -0.7061 -0.2315
19777TIP3    H180746   6.560   2.787  15.698 -0.0401 -0.2356  0.1005
19777TIP3    H280747   6.553   2.654  15.769 -0.3662 -0.9231 -1.1951
19778TIP3   OH280748   1.728   6.785   5.901 -0.3453  0.1160  0.3055
19778TIP3    H180749   1.745   6.822   5.814 -0.6888  0.0363  0.2014
19778TIP3    H280750   1.779   6.704   5.903 -0.5733 -0.0372  0.0623
19779TIP3   OH280751   0.189   3.830  11.744  0.7183  0.0813  0.0137
19779TIP3    H180752   0.160   3.757  11.690  0.6052 -1.4030  1.9584
19779TIP3    H280753   0.285   3.825  11.742  0.7064 -0.8648  1.0456
19780TIP3   OH280754   0.965   2.978  11.390 -0.4044 -0.1183  0.2351
19780TIP3    H180755   0.978   2.932  11.472  1.3515 -0.2138 -0.0678
19780TIP3    H280756   0.967   2.910  11.323  0.6765  0.2068 -0.0826
19781TIP3   OH280757   4.606   5.282  12.150  0.3989  0.0627  0.5514
19781TIP3    H180758   4.533   5.306  12.207  0.5352  0.9329  0.3807
19781TIP3    H280759   4.567   5.269  12.064  0.3132 -0.3973  0.6604
19782TIP3   OH280760   3.055   4.968  17.092 -0.0244  0.4899  0.0144
19782TIP3    H180761   3.037   4.932  17.005  1.4242 -0.9474  0.2587
19782TIP3    H280762   3.002   4.914  17.152  0.1843  0.4514  0.1650
19783TIP3   OH280763   0.120   2.298   5.729  0.0158 -0.0280 -0.5572
19783TIP3    H180764   0.209   2.330   5.721  0.2795 -0.3658  0.7959
19783TIP3    H280765   0.127   2.217   5.780 -1.1745  0.6642  0.7998
19784TIP3   OH280766   4.938   4.487  16.647  0.1887  0.1033  0.0475
19784TIP3    H180767   5.029   4.491  16.618  0.1321  1.1313 -0.0466
19784TIP3    H280768   4.916   4.578  16.668 -0.9377 -0.0653 -0.3300
19785TIP3   OH280769   4.984   5.703   3.614 -0.3064  0.0833 -0.3648
19785TIP3    H180770   4.901   5.749   3.602  0.3427  1.3016 -0.3701
19785TIP3    H280771   5.048   5.756   3.566  0.2787 -1.5278 -1.4761
19786TIP3   OH280772   3.945   3.087   3.304 -0.1491  0.0346 -0.5635
19786TIP3    H180773   3.961   3.016   3.367 -0.6470  0.7381  0.3641
19786TIP3    H280774   4.031   3.102   3.263  0.1663 -0.4613 -0.0974
19787TIP3   OH280775   0.161   6.440   0.643 -0.5086  0.5320 -0.0576
19787TIP3    H180776   0.184   6.532   0.632  1.3967 -0.0178 -1.1435
19787TIP3    H280777   0.116   6.417   0.562 -1.3964  0.6044  0.4056
19788TIP3   OH280778   1.962   1.461   2.055 -0.3284  0.3226 -0.0167
19788TIP3    H180779   2.036   1.495   2.005  1.7505 -2.2449  1.0523
19788TIP3    H280780   1.947   1.374   2.018 -1.1907 -0.1570  1.3920
19789TIP3   OH280781   2.407   2.167  15.920 -0.2870 -0.0438  0.0070
19789TIP3    H180782   2.377   2.222  15.848 -0.1268 -1.7317 -1.4236
19789TIP3    H280783   2.497   2.195  15.936 -0.3146  0.3233 -0.4645
19790TIP3   OH280784   5.646   5.497   0.782 -0.1906  0.4273 -0.1765
19790TIP3    H180785   5.695   5.530   0.707 -0.2549 -0.1137 -0.4622
19790TIP3    H280786   5.555   5.520   0.763  0.0293  2.4363  0.8780
19791TIP3   OH280787   2.641   1.554   4.111 -0.3623 -0.1568 -0.4576
19791TIP3    H180788   2.615   1.505   4.033  1.5511 -1.1786 -0.5201
19791TIP3    H280789   2.612   1.500   4.184  0.6772 -0.8322 -0.5195
19792TIP3   OH280790   5.748   2.962   5.470  1.0949 -0.3447  0.0438
19792TIP3    H180791   5.726   2.871   5.447 -0.8847 -0.3795  1.6975
19792TIP3    H280792   5.793   2.955   5.554  2.5408  0.1242 -0.6738
19793TIP3   OH280793   0.854   1.037  15.938  0.5114  0.1225  0.4419
19793TIP3    H180794   0.870   1.119  15.892 -0.6196 -0.1992 -0.5565
19793TIP3    H280795   0.786   1.058  16.001 -0.5838 -0.2774 -0.5730
19794TIP3   OH280796   0.494   4.289  12.545 -0.3435 -0.4067  0.2998
19794TIP3    H180797   0.432   4.251  12.483 -0.7418 -2.1662  1.6770
19794TIP3    H280798   0.567   4.228  12.547  0.2199  0.2602  0.6734
19795TIP3   OH280799   3.765   5.734   4.910  0.2363  0.4159 -0.8238
19795TIP3    H180800   3.847   5.756   4.865  1.2713  0.0582  0.8332
19795TIP3    H280801   3.716   5.816   4.911  0.8142  0.7791 -1.3202
19796TIP3   OH280802   3.744   5.728   3.286 -0.6429  0.5477  0.1269
19796TIP3    H180803   3.688   5.687   3.220  0.5916 -1.1392  0.0611
19796TIP3    H280804   3.714   5.690   3.369 -0.6609  0.9037  0.2877
19797TIP3   OH280805   2.704   3.167   4.743  0.2732  0.2345 -0.1842
19797TIP3    H180806   2.703   3.138   4.834  1.1897  0.0459 -0.2216
19797TIP3    H280807   2.795   3.155   4.715  0.3668  1.8351 -0.6390
19798TIP3   OH280808   6.323   4.958   5.892 -0.4434  0.6543  0.3110
19798TIP3    H180809   6.353   5.012   5.965  0.0056  2.7671 -1.3235
19798TIP3    H280810   6.379   4.984   5.819 -1.9165 -0.1812 -1.1782
19799TIP3   OH280811   3.138   2.572   3.835 -0.5065  0.2283  0.3098
19799TIP3    H180812   3.175   2.575   3.923  0.3427 -0.5196 -0.0131
19799TIP3    H280813   3.173   2.650   3.791 -0.8570  0.5512  0.5915
19800TIP3   OH280814   1.815   4.745   3.117  0.2288 -0.4320  0.6431
19800TIP3    H180815   1.728   4.710   3.100  0.1825 -0.8550  1.7214
19800TIP3    H280816   1.875   4.677   3.085  0.1658 -0.3676  0.3834
19801TIP3   OH280817   4.138   3.923   2.333  0.8029  0.0107  0.3265
19801TIP3    H180818   4.200   3.992   2.357 -0.9969  1.8325  0.0357
19801TIP3    H280819   4.190   3.843   2.333  2.6144  1.0678  2.4489
19802TIP3   OH280820   6.655   0.109   5.101 -0.0451  0.5817  0.1441
19802TIP3    H180821   6.610   0.041   5.152 -1.6147  0.9576 -0.6598
19802TIP3    H280822   6.747   0.096   5.120 -0.4977  0.0628  2.2503
19803TIP3   OH280823   3.908   5.074   4.770 -0.0511  0.1347 -0.3132
19803TIP3    H180824   3.905   5.152   4.715  0.5056  0.1585 -0.3138
19803TIP3    H280825   3.821   5.069   4.810 -0.7499 -0.3440 -1.8251
19804TIP3   OH280826   5.865   1.719   1.992  0.1139 -0.2806 -0.0472
19804TIP3    H180827   5.951   1.690   2.023 -0.0221 -1.7159 -0.8803
19804TIP3    H280828   5.805   1.651   2.023 -0.6813  0.5552  0.2759
19805TIP3   OH280829   4.045   3.661  13.931  0.2617  0.0261  0.3315
19805TIP3    H180830   4.072   3.684  13.842 -0.2236 -0.3553  0.0760
19805TIP3    H280831   4.114   3.696  13.987  0.0007  1.2743 -0.0982
19806TIP3   OH280832   3.672   0.389  16.993  0.3642  0.6291  0.0344
19806TIP3    H180833   3.638   0.423  16.910  0.7090 -0.7655 -0.7097
19806TIP3    H280834   3.607   0.416  17.058 -1.1897 -0.2788 -1.0649
19807TIP3   OH280835   4.480   6.727  15.979  0.2700  0.2101 -0.4004
19807TIP3    H180836   4.452   6.641  16.008  1.3535 -1.0047 -2.7217
19807TIP3    H280837   4.441   6.788  16.042 -0.8559 -1.9162  1.0518
19808TIP3   OH280838   1.263   1.174  11.955  0.9078  0.2625  0.2701
19808TIP3    H180839   1.254   1.206  11.865  0.6161 -0.6379 -0.0376
19808TIP3    H280840   1.336   1.112  11.950 -0.8429 -1.9341 -0.0069
19809TIP3   OH280841   0.214   3.400   0.981 -0.4267  0.2342 -0.5871
19809TIP3    H180842   0.169   3.387   1.064  0.4615  1.2651  0.0888
19809TIP3    H280843   0.183   3.485   0.949 -1.9500 -0.8309 -2.1327
19810TIP3   OH280844   6.456   2.771   0.089 -0.0371  0.0629  0.7338
19810TIP3    H180845   6.511   2.694   0.073  2.6574  1.9182  0.4882
19810TIP3    H280846   6.388   2.739   0.148  1.0381 -2.4679  0.7434
19811TIP3   OH280847   2.982   6.125  11.140  0.4639  0.5814 -0.7141
19811TIP3    H180848   2.908   6.103  11.083  0.4261  0.7896 -0.7462
19811TIP3    H280849   3.018   6.040  11.166 -0.4102  0.4540  0.1235
19812TIP3   OH280850   3.603   2.276   3.522 -0.2290 -0.6420  0.0230
19812TIP3    H180851   3.620   2.243   3.610  3.3246  0.7052  0.0092
19812TIP3    H280852   3.630   2.204   3.464 -0.9245 -0.8994  0.0134
19813TIP3   OH280853   4.887   4.602   6.617 -0.2807  0.3690  0.1451
19813TIP3    H180854   4.971   4.603   6.662 -0.8692  0.2165  1.2674
19813TIP3    H280855   4.849   4.688   6.632 -1.5177 -0.4333  1.9997
19814TIP3   OH280856   3.937   1.689   0.643 -0.5680 -0.2429 -0.1598
19814TIP3    H180857   3.863   1.636   0.673  0.5398 -1.6355  0.2131
19814TIP3    H280858   3.984   1.712   0.723  0.8667 -1.6403 -0.5481
19815TIP3   OH280859   3.019   4.313   0.486 -0.4513  0.1700 -0.8069
19815TIP3    H180860   3.077   4.383   0.455  1.8293 -1.1166  0.3248
19815TIP3    H280861   3.033   4.311   0.581 -2.6369 -0.0028 -0.4448
19816TIP3   OH280862   3.455   3.083   0.134  0.0665 -0.1481  0.0746
19816TIP3    H180863   3.423   3.039   0.055 -2.1871 -1.0438  1.3983
19816TIP3    H280864   3.397   3.159   0.144  0.2730 -0.0887  0.9049
19817TIP3   OH280865   1.618   0.775   0.172  0.3269  0.4494  0.1488
19817TIP3    H180866   1.683   0.834   0.135  0.8144 -0.1597  0.0288
19817TIP3    H280867   1.538   0.828   0.176  0.3804  0.6875 -1.3116
19818TIP3   OH280868   6.660   5.136   0.866  0.1487 -0.1739 -0.1326
19818TIP3    H180869   6.616   5.052   0.882 -0.0404 -0.2595 -1.0564
19818TIP3    H280870   6.740   5.112   0.819  0.1390  0.1629 -0.3181
19819TIP3   OH280871   2.630   3.318   0.724 -0.1152 -0.2843 -0.1855
19819TIP3    H180872   2.627   3.356   0.636 -0.0939 -1.9025 -0.9297
19819TIP3    H280873   2.560   3.363   0.771  0.4025  1.2019 -0.7511
19820TIP3   OH280874   2.537   3.212  13.783  0.5189 -0.6898 -0.1383
19820TIP3    H180875   2.499   3.293  13.817 -0.6303 -0.8579 -0.9978
19820TIP3    H280876   2.631   3.231  13.777  0.3846  0.2658  0.4990
19821TIP3   OH280877   4.285   2.328   5.536  0.3508  0.1730 -0.5167
19821TIP3    H180878   4.299   2.420   5.562 -2.4260  0.7180 -0.6045
19821TIP3    H280879   4.289   2.329   5.441 -2.6275  0.9019 -0.7249
19822TIP3   OH280880   2.110   4.702   4.804 -0.0846  0.5152 -0.6978
19822TIP3    H180881   2.058   4.708   4.724 -0.9694 -2.4239 -0.4426
19822TIP3    H280882   2.068   4.633   4.855  1.7104  0.8425  1.3882
19823TIP3   OH280883   4.118   1.271   1.497 -0.0293  0.2270 -0.1409
19823TIP3    H180884   4.203   1.295   1.462  0.4183 -2.4428 -1.1553
19823TIP3    H280885   4.138   1.222   1.577 -0.6379  0.1791 -0.0076
19824TIP3   OH280886   1.056   2.461   2.758 -0.1201 -0.4767 -0.0129
19824TIP3    H180887   1.073   2.450   2.852 -0.0324  2.7494  0.4540
19824TIP3    H280888   1.123   2.408   2.715  0.3626 -1.3525  1.7215
19825TIP3   OH280889   5.554   0.081   1.762 -0.4458  0.1924 -0.5370
19825TIP3    H180890   5.599   0.134   1.829 -0.0558  0.3062 -0.8827
19825TIP3    H280891   5.515   0.146   1.703 -0.2515  0.0961 -0.7739
19826TIP3   OH280892   1.770   4.363  16.919 -0.2742 -0.2685 -0.5687
19826TIP3    H180893   1.846   4.420  16.908 -0.9150  0.9055  0.7367
19826TIP3    H280894   1.737   4.349  16.831  1.8818 -1.4519 -1.2644
19827TIP3   OH280895   2.785   0.454  12.844 -0.1834  0.2549  0.7096
19827TIP3    H180896   2.831   0.419  12.920  2.4238  0.8688 -0.4585
19827TIP3    H280897   2.760   0.543  12.869  0.6307  0.4400  0.8992
19828TIP3   OH280898   4.587   5.929  14.419  0.5977 -0.0724  0.2503
19828TIP3    H180899   4.519   5.863  14.404 -0.4840  0.8275  0.9623
19828TIP3    H280900   4.667   5.878  14.431  0.0223 -1.1832 -0.4196
19829TIP3   OH280901   2.664   5.260  11.202  0.3559 -0.3748 -0.0278
19829TIP3    H180902   2.623   5.178  11.230 -2.1337  0.1788 -1.7558
19829TIP3    H280903   2.686   5.305  11.283 -0.2921 -1.7683  0.9672
19830TIP3   OH280904   5.716   2.486  14.078 -0.5167  0.3973 -0.2884
19830TIP3    H180905   5.735   2.566  14.127  1.0777 -0.2342  0.2076
19830TIP3    H280906   5.690   2.423  14.145 -1.9580  0.5272 -0.7004
19831TIP3   OH280907   4.705   1.851  13.410 -1.2107 -0.6252  0.2189
19831TIP3    H180908   4.685   1.941  13.385  0.6916 -0.2744 -0.1754
19831TIP3    H280909   4.658   1.838  13.493 -0.8077  1.0249  0.7410
19832TIP3   OH280910   6.413   5.999   1.032 -0.0815 -0.0437  0.2501
19832TIP3    H180911   6.397   6.012   0.938  1.8218  0.5465 -0.0552
19832TIP3    H280912   6.380   6.079   1.073 -1.3851 -0.5213  0.1726
19833TIP3   OH280913   4.958   0.502  11.081 -0.0411  0.2294  0.4874
19833TIP3    H180914   4.977   0.409  11.070 -0.8712  0.0594  0.3955
19833TIP3    H280915   5.044   0.545  11.085  0.3354 -0.4020 -0.6350
19834TIP3   OH280916   5.548   0.924   3.741 -0.0319 -0.3379 -0.3757
19834TIP3    H180917   5.589   1.007   3.717  1.0342 -0.0061  2.2291
19834TIP3    H280918   5.617   0.876   3.787 -0.9581 -2.1963 -0.8564
19835TIP3   OH280919   3.122   4.499   5.047 -0.1391  0.1317  0.2612
19835TIP3    H180920   3.197   4.457   5.088  0.0609  0.6907  0.4795
19835TIP3    H280921   3.096   4.439   4.977  0.4288 -0.1237  0.2651
19836TIP3   OH280922   3.536   2.457   4.184 -0.1136  0.5397 -0.0454
19836TIP3    H180923   3.529   2.361   4.189 -1.4287  0.6075 -0.2477
19836TIP3    H280924   3.564   2.473   4.094  1.5924  0.3018  0.4103
19837TIP3   OH280925   3.033   0.801  13.980  0.4168  0.2687  0.1184
19837TIP3    H180926   3.053   0.838  14.066 -0.2324 -0.4863  0.5996
19837TIP3    H280927   3.062   0.710  13.985  0.5550  0.2673 -0.5343
19838TIP3   OH280928   5.690   6.213  14.531  0.3898 -0.5088  0.1295
19838TIP3    H180929   5.687   6.304  14.561  0.9437  0.2298 -1.8612
19838TIP3    H280930   5.753   6.171  14.589  2.1259  1.0606 -0.5031
19839TIP3   OH280931   3.230   0.972  13.477 -0.0419  0.4476 -0.0123
19839TIP3    H180932   3.247   1.007  13.565 -0.7865 -0.5343  0.5484
19839TIP3    H280933   3.135   0.958  13.475  0.1749 -1.1354 -0.3522
19840TIP3   OH280934   1.012   4.307  14.650 -0.3433  0.3729 -0.0673
19840TIP3    H180935   1.005   4.323  14.745  0.0724  0.5984 -0.0762
19840TIP3    H280936   1.099   4.269  14.638 -0.7084 -0.4277 -0.2553
19841TIP3   OH280937   2.550   3.872  13.966  0.0960 -0.4416 -0.1569
19841TIP3    H180938   2.557   3.910  14.053 -1.9329  0.1916 -0.2346
19841TIP3    H280939   2.622   3.912  13.917  0.2811  0.4179  0.7806
19842TIP3   OH280940   1.061   0.973   3.308  0.1986 -0.4563 -0.0664
19842TIP3    H180941   1.117   1.051   3.303 -0.9366  0.6845  2.9611
19842TIP3    H280942   1.113   0.904   3.266  2.5531  1.2423 -0.1611
19843TIP3   OH280943   2.584   2.877   3.696 -0.0643 -0.5066  0.1569
19843TIP3    H180944   2.608   2.786   3.681  1.8975  0.0293 -0.1991
19843TIP3    H280945   2.572   2.885   3.791  1.3305 -0.7845  0.3635
19844TIP3   OH280946   4.267   5.696   6.162 -0.2715 -0.2684  0.5807
19844TIP3    H180947   4.205   5.661   6.226  0.9051 -1.6074  1.0378
19844TIP3    H280948   4.297   5.619   6.114 -0.2170  0.5707 -0.7863
19845TIP3   OH280949   1.293   3.806  13.481  0.0847  0.1960 -0.0815
19845TIP3    H180950   1.376   3.761  13.495 -0.2840  0.0551  1.9533
19845TIP3    H280951   1.288   3.869  13.552 -1.3757  0.4725 -0.4045
19846TIP3   OH280952   0.387   5.001  14.171 -0.3341  0.0091 -0.1937
19846TIP3    H180953   0.437   4.923  14.194  0.3369  0.2942 -0.6456
19846TIP3    H280954   0.300   4.969  14.148  0.0890 -0.6587 -0.8918
19847TIP3   OH280955   0.984   5.542  12.996  0.0239 -0.0955 -0.4262
19847TIP3    H180956   0.894   5.575  12.990 -0.2762 -0.6397  0.8960
19847TIP3    H280957   0.991   5.480  12.923 -0.2317  0.9409 -1.3542
19848TIP3   OH280958   6.553   2.113   3.034 -0.5651 -0.1983 -0.4699
19848TIP3    H180959   6.572   2.172   2.961  0.3545  0.3072  0.1698
19848TIP3    H280960   6.634   2.064   3.047 -0.1417  0.8907  1.2842
19849TIP3   OH280961   2.586   5.909   4.505  0.5608  0.4023  0.3730
19849TIP3    H180962   2.653   5.842   4.502  1.2039  1.0193  0.6864
19849TIP3    H280963   2.634   5.992   4.498 -0.0420  0.9105  1.9354
19850TIP3   OH280964   2.195   3.088   5.428  0.5167 -0.3687 -0.3457
19850TIP3    H180965   2.255   3.145   5.476  0.5240 -2.0893  1.8373
19850TIP3    H280966   2.245   3.060   5.351  1.9605 -0.5650  0.6334
19851TIP3   OH280967   0.258   1.920  14.513  0.1938  0.7837  0.3331
19851TIP3    H180968   0.278   1.860  14.441  0.8774  3.0123 -1.4513
19851TIP3    H280969   0.171   1.893  14.542 -0.1291 -0.1853 -1.3557
19852TIP3   OH280970   2.274   6.374   1.645 -0.3762  0.1206  0.0275
19852TIP3    H180971   2.329   6.306   1.607 -0.3755 -0.1490  0.4959
19852TIP3    H280972   2.303   6.455   1.604  1.8944  0.3347  1.8035
19853TIP3   OH280973   3.082   0.160   2.771 -0.1886  0.4015 -0.0940
19853TIP3    H180974   3.069   0.238   2.718 -0.2414 -0.3670 -1.2624
19853TIP3    H280975   3.112   0.192   2.856 -0.3981  1.6851 -0.4912
19854TIP3   OH280976   3.019   3.656   2.422  0.4215 -0.0059  0.2059
19854TIP3    H180977   3.039   3.694   2.337 -1.3814  0.5685  0.0009
19854TIP3    H280978   3.020   3.730   2.483  2.3580 -0.4993  0.8688
19855TIP3   OH280979   3.892   5.523   3.723  0.2816  0.2666  0.4394
19855TIP3    H180980   3.955   5.591   3.747  0.8367 -0.5151  1.2769
19855TIP3    H280981   3.874   5.477   3.806  0.4655 -1.0561 -0.2285
19856TIP3   OH280982   2.924   6.230   1.258  0.0142 -0.0793 -0.2085
19856TIP3    H180983   3.009   6.215   1.301  0.1661 -0.8383 -0.7531
19856TIP3    H280984   2.911   6.324   1.263  0.9562  0.0585 -0.2329
19857TIP3   OH280985   4.379   0.436   2.231  0.5210 -0.0463 -0.1942
19857TIP3    H180986   4.459   0.391   2.260  1.0145 -0.2057 -1.6746
19857TIP3    H280987   4.309   0.395   2.280  1.3884  0.4684  1.5506
19858TIP3   OH280988   1.803   1.258   2.826  0.3088  1.4261 -0.4983
19858TIP3    H180989   1.848   1.208   2.758  1.4529  2.1357 -0.2794
19858TIP3    H280990   1.872   1.310   2.868 -0.3853  1.1139  1.1145
19859TIP3   OH280991   1.302   6.760  11.000  0.1872  0.6345 -0.1311
19859TIP3    H180992   1.352   6.799  10.929  0.1775  0.2473 -0.3558
19859TIP3    H280993   1.255   6.833  11.040 -0.9405  0.6650 -1.4475
19860TIP3   OH280994   4.737   4.143   6.193  0.5656 -0.2551  0.3795
19860TIP3    H180995   4.657   4.188   6.220 -0.4960 -2.2613  0.7001
19860TIP3    H280996   4.780   4.119   6.275  1.2485  0.3268  0.2081
19861TIP3   OH280997   3.428   1.385   0.439 -0.0960 -0.3575 -1.0430
19861TIP3    H180998   3.444   1.391   0.345 -4.1983  3.5272 -1.8458
19861TIP3    H280999   3.482   1.455   0.477  0.3083 -0.8249 -0.7542
19862TIP3   OH281000   4.121   0.291  13.223  0.6296 -0.3037 -0.2889
19862TIP3    H181001   4.170   0.332  13.294 -0.9420 -0.6370  1.0621
19862TIP3    H281002   4.141   0.198  13.231  1.9046 -0.1615 -1.5034
19863TIP3   OH281003   1.396   0.639   6.124 -0.4366  0.2929 -0.0042
19863TIP3    H181004   1.481   0.682   6.117 -0.7768  0.8876 -0.5955
19863TIP3    H281005   1.377   0.639   6.218 -0.5645  1.7385 -0.0017
19864TIP3   OH281006   1.206   1.177  13.114 -0.0943 -0.4618  0.2034
19864TIP3    H181007   1.172   1.105  13.060  2.0841 -0.9088 -0.6408
19864TIP3    H281008   1.301   1.171  13.107  0.2416  3.4171 -1.1523
19865TIP3   OH281009   5.662   5.899   4.398 -0.1303 -0.2418 -0.0494
19865TIP3    H181010   5.690   5.888   4.308 -1.0967  1.9204 -0.6857
19865TIP3    H281011   5.579   5.947   4.392 -0.6918 -0.8486  1.9587
19866TIP3   OH281012   3.620   2.542   3.286  0.4131 -0.1498  0.2365
19866TIP3    H181013   3.661   2.576   3.207 -1.2303  1.2853 -0.0466
19866TIP3    H281014   3.587   2.455   3.262  2.4272 -0.9638  0.2298
19867TIP3   OH281015   1.335   4.172  14.910  0.2076 -0.6133 -0.4279
19867TIP3    H181016   1.342   4.113  14.985 -1.8538 -0.9901 -0.4802
19867TIP3    H281017   1.358   4.119  14.834 -1.3076 -1.3243 -0.4354
19868TIP3   OH281018   3.279   2.306  10.680 -0.0847 -0.4002  0.0011
19868TIP3    H181019   3.226   2.228  10.667  0.4511 -0.7142 -0.3306
19868TIP3    H281020   3.257   2.362  10.605  0.9249 -1.0322 -0.7871
19869TIP3   OH281021   6.220   6.409  17.248 -0.5380 -0.0830 -0.2907
19869TIP3    H181022   6.239   6.492  17.204 -0.9484  0.0078 -0.3024
19869TIP3    H281023   6.301   6.387  17.293 -0.3521  0.2073 -0.4767
19870TIP3   OH281024   4.146   2.535  12.447 -0.1481  0.3782  0.2773
19870TIP3    H181025   4.083   2.466  12.466  0.3602 -0.2784 -0.4073
19870TIP3    H281026   4.202   2.539  12.525 -1.9280  2.0028  1.5535
19871TIP3   OH281027   0.198   5.143  14.620 -0.1455 -0.3595  0.1865
19871TIP3    H181028   0.214   5.090  14.542  0.8793  0.4325 -0.1579
19871TIP3    H281029   0.278   5.194  14.631 -0.9032  0.7138  0.8340
19872TIP3   OH281030   3.469   1.197   1.991  0.0572  0.1683  0.2544
19872TIP3    H181031   3.525   1.119   1.999  2.3116  1.8241  2.1477
19872TIP3    H281032   3.383   1.167   2.019  0.4002 -2.0162 -0.7684
19873TIP3   OH281033   2.099   2.857   2.455 -0.3372 -0.0465  0.8317
19873TIP3    H181034   2.044   2.799   2.508  2.1875 -1.3903  2.1697
19873TIP3    H281035   2.184   2.812   2.450  0.7359  1.9686 -1.0026
19874TIP3   OH281036   5.743   1.751  10.580  0.0046 -0.9085 -0.5181
19874TIP3    H181037   5.756   1.681  10.516  2.2607 -1.5732  0.5507
19874TIP3    H281038   5.777   1.715  10.662 -1.1759  0.5436  0.6695
19875TIP3   OH281039   1.541   2.622   6.638 -0.2892 -0.6833 -0.6008
19875TIP3    H181040   1.621   2.639   6.688  0.3105 -2.8402 -0.7515
19875TIP3    H281041   1.470   2.631   6.701  0.2023 -0.3882 -0.0842
19876TIP3   OH281042   1.282   0.767  15.933  0.1678  0.0730 -0.5073
19876TIP3    H181043   1.193   0.789  15.959  0.6087 -0.4587  1.6625
19876TIP3    H281044   1.272   0.692  15.874 -0.8592  0.8150 -1.3155
19877TIP3   OH281045   2.873   5.194  12.694  0.3536  0.1583 -0.1616
19877TIP3    H181046   2.911   5.270  12.737  1.8900 -0.7857  0.2242
19877TIP3    H281047   2.928   5.121  12.721 -0.1127 -0.8478 -1.7773
19878TIP3   OH281048   3.586   5.385  12.863 -0.1506 -0.3938 -0.2196
19878TIP3    H181049   3.624   5.411  12.779 -1.3810  0.7495 -0.4630
19878TIP3    H281050   3.521   5.453  12.881 -1.6072 -1.8980  0.4766
19879TIP3   OH281051   0.175   3.420   2.152  0.3237 -0.2994 -0.8883
19879TIP3    H181052   0.146   3.443   2.063  0.4596 -1.4383 -1.2403
19879TIP3    H281053   0.135   3.487   2.207 -0.3200  0.0472 -1.7372
19880TIP3   OH281054   6.373   4.386   2.810  0.1202  0.0233  0.4769
19880TIP3    H181055   6.304   4.451   2.821 -0.9622 -1.1935  1.1335
19880TIP3    H281056   6.330   4.313   2.765  1.2803 -0.2890 -0.1549
19881TIP3   OH281057   4.497   6.055   0.193  0.9261 -0.2142  0.1242
19881TIP3    H181058   4.444   5.983   0.228  0.7129  0.4712  1.2416
19881TIP3    H281059   4.587   6.025   0.203  0.8135 -0.6948 -0.2510
19882TIP3   OH281060   3.041   0.762  12.610  0.3988 -0.7344 -0.4891
19882TIP3    H181061   3.006   0.780  12.523  1.1223  3.0787 -0.2056
19882TIP3    H281062   3.116   0.705  12.595 -0.6874 -1.8114 -2.0756
19883TIP3   OH281063   6.424   5.430  12.052  0.3145 -0.1476 -0.2168
19883TIP3    H181064   6.383   5.516  12.066  0.2921 -0.3830  1.3895
19883TIP3    H281065   6.351   5.369  12.051  0.2385 -0.0888 -2.3701
19884TIP3   OH281066   3.971   1.983   3.095 -0.4801  0.1009 -0.4663
19884TIP3    H181067   4.045   1.966   3.037 -0.1166  0.6853 -0.1846
19884TIP3    H281068   3.995   2.063   3.142 -0.3838 -0.8009  1.0984
19885TIP3   OH281069   5.287   3.609   1.331  0.3093  0.0366 -0.7124
19885TIP3    H181070   5.316   3.622   1.241  1.0933  1.2330 -0.3064
19885TIP3    H281071   5.277   3.698   1.366 -1.6115 -0.3635 -0.1151
19886TIP3   OH281072   4.356   2.448   3.638  0.1046  0.0303  0.2945
19886TIP3    H181073   4.310   2.497   3.706 -0.9142  0.2841 -0.5436
19886TIP3    H281074   4.429   2.504   3.614 -2.1909  2.3101 -2.1289
19887TIP3   OH281075   6.406   1.096  15.495  0.2738 -0.5719 -0.2258
19887TIP3    H181076   6.456   1.026  15.453  0.2498 -1.0168  0.4555
19887TIP3    H281077   6.449   1.177  15.467  1.5304 -0.9484  0.4990
19888TIP3   OH281078   0.624   1.683   2.150  0.0102 -0.2314 -0.3846
19888TIP3    H181079   0.647   1.593   2.176 -1.7477 -0.6376 -0.0939
19888TIP3    H281080   0.665   1.738   2.216 -0.0161 -0.9220  0.2220
19889TIP3   OH281081   4.168   0.747  14.701 -0.0769 -0.3454  0.1698
19889TIP3    H181082   4.138   0.657  14.707 -0.6235 -0.3324 -1.7510
19889TIP3    H281083   4.104   0.798  14.752  0.1282 -0.9874  1.0966
19890TIP3   OH281084   0.085   5.151   0.271 -0.4513  0.2098  0.3378
19890TIP3    H181085   0.154   5.116   0.326 -1.1859 -1.3845  0.3007
19890TIP3    H281086   0.124   5.228   0.229  1.9576 -1.6626 -1.1451
19891TIP3   OH281087   6.095   4.309  14.627 -0.0595  0.1730  0.0637
19891TIP3    H181088   6.106   4.348  14.714 -0.4039 -1.0431  0.6754
19891TIP3    H281089   6.023   4.358  14.587 -1.3931 -0.6766  1.3409
19892TIP3   OH281090   1.171   5.281   2.762  0.3581 -0.1146  0.5587
19892TIP3    H181091   1.113   5.261   2.836  0.0555 -0.1958  0.3053
19892TIP3    H281092   1.146   5.370   2.736 -0.0007 -0.3319  0.1383
19893TIP3   OH281093   1.664   1.870  12.753 -0.1839 -0.2737  0.2451
19893TIP3    H181094   1.658   1.947  12.810  0.9150  0.2008 -0.2544
19893TIP3    H281095   1.735   1.891  12.692  2.0302 -2.7116  1.7466
19894TIP3   OH281096   6.600   2.368   4.194 -0.8310 -0.5247 -0.1339
19894TIP3    H181097   6.536   2.340   4.128 -0.7104 -4.8358  1.3112
19894TIP3    H281098   6.546   2.407   4.263 -1.4531 -0.5185 -0.6058
19895TIP3   OH281099   4.766   3.302   1.698  0.2843 -0.3621 -0.3530
19895TIP3    H181100   4.721   3.278   1.779  1.5927  0.0227  0.5316
19895TIP3    H281101   4.711   3.369   1.658 -0.5365 -0.7885  0.0439
19896TIP3   OH281102   6.102   6.669  11.095 -0.6982 -0.2633 -0.7318
19896TIP3    H181103   6.133   6.626  11.175  0.0093 -0.9195 -1.3405
19896TIP3    H281104   6.022   6.622  11.072 -0.5426 -0.5124 -0.7698
19897TIP3   OH281105   4.019   4.098  13.588  0.2473 -0.3506 -0.3695
19897TIP3    H181106   3.928   4.124  13.571  0.9135  0.9053 -2.3528
19897TIP3    H281107   4.017   4.002  13.587 -0.6478 -0.4111 -3.3678
19898TIP3   OH281108   0.691   6.515  13.712 -0.7313 -0.4549  0.7139
19898TIP3    H181109   0.768   6.477  13.669 -1.4357 -3.3224  1.7378
19898TIP3    H281110   0.725   6.550  13.795 -0.1665  0.6228  0.0488
19899TIP3   OH281111   5.125   0.777  16.275 -0.3276 -0.2349  0.0656
19899TIP3    H181112   5.163   0.730  16.200  0.5497  0.6708 -0.0801
19899TIP3    H281113   5.069   0.844  16.236  0.1644  0.2665  0.2036
19900TIP3   OH281114   1.243   0.569   1.001  0.4893  0.1090 -0.0705
19900TIP3    H181115   1.228   0.528   0.916 -0.3551 -0.4882  0.3478
19900TIP3    H281116   1.290   0.650   0.981  0.1987  0.0343 -1.1107
19901TIP3   OH281117   0.731   5.832  15.079 -0.6191  0.2309  0.2225
19901TIP3    H181118   0.723   5.858  14.987  1.1751  0.4326  0.0991
19901TIP3    H281119   0.751   5.913  15.126 -1.0824  0.0546  0.7390
19902TIP3   OH281120   0.982   6.319  15.479 -0.0085  0.1865 -0.0873
19902TIP3    H181121   0.991   6.320  15.384 -0.2465  1.3143 -0.1155
19902TIP3    H281122   0.995   6.228  15.504  1.2471  0.0746 -1.0800
19903TIP3   OH281123   4.833   2.841   5.818  0.5436 -0.2224 -0.6703
19903TIP3    H181124   4.887   2.834   5.896 -1.0199 -2.9923  0.3020
19903TIP3    H281125   4.755   2.889   5.847  0.5969  0.0354 -0.9446
19904TIP3   OH281126   1.870   5.899   2.176  0.3411  0.0556  0.1916
19904TIP3    H181127   1.895   5.813   2.144  1.0210  0.5659 -0.7031
19904TIP3    H281128   1.776   5.891   2.196  0.4986 -0.9973  0.5477
19905TIP3   OH281129   6.043   3.289   4.929 -0.1350  0.4186  0.3536
19905TIP3    H181130   6.115   3.344   4.900  0.0411  0.2822  0.5313
19905TIP3    H281131   5.982   3.288   4.855  0.5279 -0.3002 -0.1896
19906TIP3   OH281132   1.750   5.948   5.404 -0.1122  0.3939 -0.2754
19906TIP3    H181133   1.768   5.920   5.315 -2.0448 -0.1084 -0.5451
19906TIP3    H281134   1.671   6.001   5.398 -0.8733 -0.4733  1.2401
19907TIP3   OH281135   0.149   1.664  16.224 -0.3524  0.4909  0.5762
19907TIP3    H181136   0.126   1.722  16.151 -0.2098  0.3263  0.3982
19907TIP3    H281137   0.102   1.583  16.205  0.3120  0.1746  0.2442
19908TIP3   OH281138   1.767   5.863   4.364  0.0218 -0.6239  0.4692
19908TIP3    H181139   1.742   5.771   4.369 -0.5187 -0.4189  2.1608
19908TIP3    H281140   1.799   5.884   4.452 -0.5871  1.0095  0.3307
19909TIP3   OH281141   4.987   0.789  10.647  0.0846  0.0258  0.4635
19909TIP3    H181142   4.987   0.740  10.565 -1.1524  1.6106 -0.5601
19909TIP3    H281143   5.041   0.867  10.628 -1.3456  1.1006  0.6675
19910TIP3   OH281144   5.942   4.203   4.622 -0.4549  0.2306 -0.1656
19910TIP3    H181145   5.915   4.212   4.713  0.9800  0.0985  0.3115
19910TIP3    H281146   5.992   4.121   4.620  1.6751  1.4420 -0.4605
19911TIP3   OH281147   4.268   6.327   1.330  0.0599  0.1515 -0.4239
19911TIP3    H181148   4.283   6.380   1.252 -0.4419  1.1783  0.1477
19911TIP3    H281149   4.208   6.258   1.301  1.9380 -1.0853 -1.5491
19912TIP3   OH281150   3.703   0.317   4.106  0.9862  0.0947  0.2784
19912TIP3    H181151   3.673   0.397   4.149 -1.0710 -0.7766  0.5735
19912TIP3    H281152   3.657   0.316   4.022  1.7851 -0.2781 -0.1690
19913TIP3   OH281153   3.635   2.791   3.854 -0.3512 -0.2123  0.3009
19913TIP3    H181154   3.643   2.876   3.897 -1.6108 -0.1647  0.4843
19913TIP3    H281155   3.721   2.751   3.863 -0.5190 -0.1293  2.7281
19914TIP3   OH281156   2.592   3.599   6.132 -0.0054  0.2723 -0.3775
19914TIP3    H181157   2.640   3.680   6.153  1.9429 -1.3613  1.9508
19914TIP3    H281158   2.524   3.593   6.198  1.2959 -1.0626  0.9013
19915TIP3   OH281159   0.192   1.101  16.259  0.1589  0.6640 -0.1160
19915TIP3    H181160   0.241   1.025  16.289  0.5843  1.5268  1.5006
19915TIP3    H281161   0.158   1.141  16.340 -1.7108  1.1015 -1.0520
19916TIP3   OH281162   4.708   6.445   3.268  0.6702  0.7042 -0.7562
19916TIP3    H181163   4.659   6.384   3.323  1.9105  1.1922  0.9963
19916TIP3    H281164   4.798   6.412   3.271  1.2511  2.2628 -0.2641
19917TIP3   OH281165   5.201   6.208   2.105  0.7007  0.8066  0.1457
19917TIP3    H181166   5.211   6.202   2.010 -2.6904 -1.6284 -0.2342
19917TIP3    H281167   5.247   6.131   2.139 -1.3175 -0.5434  0.0004
19918TIP3   OH281168   4.053   2.666   0.002  0.3268  0.1873 -0.1698
19918TIP3    H181169   4.035   2.656  -0.092  2.1212 -0.3455 -0.4913
19918TIP3    H281170   4.147   2.684   0.007  0.2635  0.2361  1.5320
19919TIP3   OH281171   4.677   0.416   4.407  0.3340 -0.3652  0.2810
19919TIP3    H181172   4.639   0.347   4.462 -0.1045 -0.5555 -0.2457
19919TIP3    H281173   4.668   0.383   4.317  1.2121 -0.1491  0.0967
19920TIP3   OH281174   3.133   1.617   6.705 -0.1462  0.3714 -0.5403
19920TIP3    H181175   3.051   1.569   6.714  0.0305 -0.2574 -1.9826
19920TIP3    H281176   3.123   1.692   6.763 -0.9182 -0.7535  0.8595
19921TIP3   OH281177   0.008   2.879   3.042  0.4419  0.2127 -0.4997
19921TIP3    H181178  -0.046   2.959   3.041 -0.1531 -0.1534 -2.5262
19921TIP3    H281179   0.012   2.854   3.134 -0.6922  1.7083 -0.0003
19922TIP3   OH281180   6.243   2.873  13.401 -0.0197  0.2843  0.0925
19922TIP3    H181181   6.309   2.859  13.469  0.2539  0.6188 -0.1042
19922TIP3    H281182   6.195   2.950  13.430  0.2666  0.5842 -0.2228
19923TIP3   OH281183   6.296   2.381   5.827  0.2153  0.2741  0.0770
19923TIP3    H181184   6.312   2.290   5.854 -0.3483  0.0971 -0.1761
19923TIP3    H281185   6.323   2.433   5.902 -0.5615 -0.1687  0.6808
19924TIP3   OH281186   5.208   6.012  16.280  0.1992 -0.6722  0.3095
19924TIP3    H181187   5.283   6.013  16.340 -0.6586 -1.7169  1.4717
19924TIP3    H281188   5.219   5.931  16.230  0.0295 -0.6560  0.2444
19925TIP3   OH281189   6.126   2.933  14.708  0.7725  0.1408  0.2190
19925TIP3    H181190   6.085   2.871  14.648  1.3744 -0.1332  0.0879
19925TIP3    H281191   6.125   3.016  14.662  0.9246  0.0018 -0.0384
19926TIP3   OH281192   4.529   6.205  15.855 -0.2760 -0.5306 -0.0716
19926TIP3    H181193   4.539   6.111  15.868  0.7479 -0.4403 -0.1890
19926TIP3    H281194   4.539   6.243  15.942 -1.7464 -0.5886  0.1634
19927TIP3   OH281195   3.561   5.276  10.998 -0.3055 -0.2725  0.5741
19927TIP3    H181196   3.599   5.287  10.910  1.1231 -1.4313  1.0070
19927TIP3    H281197   3.477   5.233  10.983 -0.4858  0.3585 -0.2821
19928TIP3   OH281198   2.409   4.539  15.613  0.2374 -0.0760  0.4304
19928TIP3    H181199   2.393   4.587  15.532 -0.4886  1.8260  1.6423
19928TIP3    H281200   2.326   4.494  15.631  0.0421  0.3689  0.6592
19929TIP3   OH281201   2.334   3.450   1.782 -0.1059  0.0686  0.1940
19929TIP3    H181202   2.336   3.543   1.761  1.3651 -0.1704 -0.9082
19929TIP3    H281203   2.272   3.413   1.719  1.0300 -0.0028 -0.9183
19930TIP3   OH281204   0.802   0.546   2.382 -0.4214 -0.2576 -1.4031
19930TIP3    H181205   0.834   0.622   2.431 -1.2746 -0.6148 -0.2162
19930TIP3    H281206   0.876   0.486   2.379  0.0475  0.3290 -1.7342
19931TIP3   OH281207   2.409   3.192  12.274  0.6970 -0.7270  0.3747
19931TIP3    H181208   2.370   3.278  12.292 -0.0858 -1.3198  1.6876
19931TIP3    H281209   2.336   3.130  12.287  0.7446 -1.4841 -2.3599
19932TIP3   OH281210   2.067   2.132  16.243  0.0045 -0.0901 -0.5194
19932TIP3    H181211   2.018   2.210  16.216  1.0879  0.7292 -0.1760
19932TIP3    H281212   2.069   2.077  16.165 -1.2599 -0.0492 -0.6005
19933TIP3   OH281213   6.364   0.294  15.155 -0.4340 -0.4478 -0.0214
19933TIP3    H181214   6.408   0.340  15.083  0.3285 -1.3404 -0.1394
19933TIP3    H281215   6.286   0.255  15.115 -0.8878  0.4088  0.0001
19934TIP3   OH281216   3.114   0.474   5.117 -0.2094  0.8909  0.0161
19934TIP3    H181217   3.128   0.511   5.029 -0.3073 -0.2247 -0.4946
19934TIP3    H281218   3.092   0.549   5.172  0.1244  1.6470 -0.8614
19935TIP3   OH281219   4.353   4.054   4.798 -0.1788 -0.2635 -1.2264
19935TIP3    H181220   4.329   3.994   4.728  0.3216 -0.8897 -0.8677
19935TIP3    H281221   4.362   3.999   4.876 -2.5061  0.6403 -0.2307
19936TIP3   OH281222   3.006   1.195  13.684 -0.5885 -0.3861 -0.4010
19936TIP3    H181223   3.009   1.106  13.720  0.4112 -0.4100 -0.5116
19936TIP3    H281224   3.093   1.209  13.648 -0.2182  1.2370  1.0276
19937TIP3   OH281225   4.372   1.029   0.663  0.4517 -0.5280  0.0948
19937TIP3    H181226   4.330   1.024   0.749 -0.0746  0.7457 -0.0705
19937TIP3    H281227   4.389   0.937   0.640 -0.7301 -0.9782  0.9086
19938TIP3   OH281228   4.075   1.757   4.479  0.5914  0.3980  0.0212
19938TIP3    H181229   3.980   1.767   4.479  0.6819  1.3468  0.4614
19938TIP3    H281230   4.090   1.668   4.446 -0.5091 -0.5046  1.8270
19939TIP3   OH281231   2.447   1.371   5.983  0.2020 -0.0162  0.0132
19939TIP3    H181232   2.538   1.349   6.002  0.6495  0.7295 -1.1085
19939TIP3    H281233   2.451   1.460   5.947 -0.6345 -0.8396 -2.3546
19940TIP3   OH281234   3.722   6.000  11.167  0.1607 -0.4575  0.0058
19940TIP3    H181235   3.664   6.007  11.091  0.8112 -0.2485 -0.4746
19940TIP3    H281236   3.680   5.935  11.223 -0.3309 -0.6032 -0.5236
19941TIP3   OH281237   6.719   6.119   1.646 -0.3434  0.0972  0.0167
19941TIP3    H181238   6.783   6.184   1.620 -1.0139  0.7235 -0.0858
19941TIP3    H281239   6.715   6.058   1.572  0.3718 -0.1403  0.1643
19942TIP3   OH281240   4.597   0.701  11.618  0.5843  0.1223  0.4227
19942TIP3    H181241   4.648   0.768  11.663  0.4856  0.5917 -0.1500
19942TIP3    H281242   4.535   0.750  11.564  0.0470 -0.4363  0.5191
19943TIP3   OH281243   3.793   0.995   3.953  0.0943  0.3255  0.5069
19943TIP3    H181244   3.870   0.947   3.924  0.6706  1.6751 -0.2996
19943TIP3    H281245   3.817   1.087   3.942 -1.8743  0.7707 -0.3733
19944TIP3   OH281246   5.855   6.190   4.942 -0.0099  0.1506  0.1071
19944TIP3    H181247   5.773   6.230   4.913 -0.2008 -0.3345 -0.0284
19944TIP3    H281248   5.835   6.151   5.026  0.3693  0.9674  0.5896
19945TIP3   OH281249   2.688   1.225   3.635  0.2899 -0.0869  0.1678
19945TIP3    H181250   2.673   1.318   3.616  0.5925  0.1390  1.0162
19945TIP3    H281251   2.601   1.186   3.634  0.1000  0.3227  0.4102
19946TIP3   OH281252   5.014   6.285   4.090  0.1901 -0.0324 -0.6241
19946TIP3    H181253   4.995   6.196   4.060 -0.1722  0.2341 -1.2116
19946TIP3    H281254   4.996   6.340   4.013  0.8482  0.4984 -0.4082
19947TIP3   OH281255   1.811   5.611  16.032 -0.0925  0.2562 -0.2155
19947TIP3    H181256   1.791   5.560  16.111  0.7429 -0.0594 -0.1914
19947TIP3    H281257   1.864   5.685  16.064 -0.8848  0.8787 -0.3149
19948TIP3   OH281258   5.485   6.428  11.134  0.1798 -0.0365 -0.3910
19948TIP3    H181259   5.551   6.398  11.196 -0.8504  1.1067  1.3270
19948TIP3    H281260   5.536   6.471  11.065  1.3356 -1.0817 -0.2348
19949TIP3   OH281261   1.345   3.156   4.744 -0.4202 -0.2023  0.5577
19949TIP3    H181262   1.298   3.138   4.826 -0.8085  0.8432  0.5739
19949TIP3    H281263   1.414   3.217   4.769  0.9973 -1.7120  0.5308
19950TIP3   OH281264   5.678   1.082  14.539  0.2269 -0.1587  0.1784
19950TIP3    H181265   5.693   0.997  14.497  1.1457  0.6745 -1.2932
19950TIP3    H281266   5.586   1.101  14.523  0.6233  0.2973 -1.9019
19951TIP3   OH281267   6.648   3.723  11.698  0.8203 -0.1046  0.2315
19951TIP3    H181268   6.619   3.813  11.717  0.7736  0.2453 -1.3662
19951TIP3    H281269   6.742   3.724  11.717  0.5833 -0.1338  1.5551
19952TIP3   OH281270   4.881   3.862  16.890 -0.1358  0.5840 -0.0031
19952TIP3    H181271   4.864   3.913  16.969 -2.0949  2.7569 -1.7023
19952TIP3    H281272   4.931   3.786  16.921 -0.0132  1.8034  3.1436
19953LIG     O181273   5.063   5.148   4.263  0.0807  0.4261 -0.0397
19953LIG     O281274   5.290   5.109   4.364  0.2101  0.2910  0.2239
19953LIG     O381275   5.045   5.314   4.490  0.2590 -0.0297 -0.5491
19953LIG     O481276   5.478   5.150   4.505  0.3578  0.0922 -0.2866
19953LIG     O581277   5.367   5.334   4.195  0.1315  0.1643  0.1653
19953LIG     O681278   5.557   5.520   4.321  0.1083  0.4415 -0.3135
19953LIG     O781279   5.735   5.411   4.518 -0.6713  0.0999 -0.1113
19953LIG     O881280   5.571   5.209   4.759  0.3886  0.7558 -0.3811
19953LIG     O981281   5.785   5.165   4.701 -0.0824 -1.2998  0.2213
19953LIG      N81282   4.868   4.663   4.288  0.2040 -0.5655  0.1683
19953LIG     C181283   5.023   4.915   4.256 -0.6408  0.0190 -0.4612
19953LIG     C281284   5.098   4.776   4.259  0.3971 -0.7115 -0.2669
19953LIG     C381285   5.117   5.029   4.200  0.2276 -0.2377  0.2451
19953LIG     C481286   5.003   4.689   4.350  0.4342 -1.1323  1.0252
19953LIG     C581287   4.884   4.898   4.189 -0.3299 -0.8995  0.6467
19953LIG     C681288   4.988   4.967   4.389 -0.2527 -0.2456  0.3006
19953LIG     C781289   4.993   4.744   4.494 -0.0927 -0.7148  0.3894
19953LIG     C881290   4.802   4.794   4.265  1.0801  0.2762 -0.0876
19953LIG     C981291   5.264   5.024   4.247  0.0943 -0.0839  0.3715
19953LIG    C1081292   4.967   4.897   4.500 -1.1123  1.0182  0.2222
19953LIG    C1181293   5.244   4.787   4.302 -0.5841 -0.4302  0.6716
19953LIG    C1281294   5.020   5.103   4.384  0.1715 -0.1025  0.0682
19953LIG    C1381295   5.315   4.899   4.303 -0.7405  0.3517 -0.5291
19953LIG    C1481296   4.862   4.565   4.179 -0.3353  0.5402  0.1184
19953LIG    C1581297   4.962   4.971   4.618  0.1255 -0.1208  0.1182
19953LIG    C1681298   5.003   5.180   4.497 -0.2941 -0.0521 -0.8611
19953LIG    C1781299   4.975   5.113   4.621 -0.2196  0.2971  0.3590
19953LIG    C1881300   5.423   5.159   4.371  0.0135 -0.4886  0.5409
19953LIG    C1981301   5.413   5.316   4.331 -0.3727 -0.2668 -0.3069
19953LIG    C2081302   5.555   5.382   4.352  0.0171  0.4742  0.2281
19953LIG    C2181303   5.607   5.357   4.492  1.1816 -0.3251 -0.1079
19953LIG    C2281304   5.608   5.205   4.520  0.5979 -0.2396 -0.2559
19953LIG    C2381305   5.667   5.190   4.664  0.5388 -0.3159 -0.6324
19953LIG     H181306   5.090   4.733   4.156 -1.3694  1.6690 -1.2121
19953LIG     H281307   5.105   5.032   4.090  0.0611  1.3872  0.2868
19953LIG     H381308   5.058   4.592   4.356 -1.0214 -2.1462 -0.8556
19953LIG     H481309   4.906   4.868   4.084  0.9846 -1.0448  0.9398
19953LIG     H581310   4.828   4.993   4.189  0.4009 -0.4299  2.2334
19953LIG     H681311   5.085   4.722   4.553  0.9534  1.9335 -0.1359
19953LIG     H781312   4.909   4.699   4.551  0.5924 -1.5682  0.7576
19953LIG     H881313   4.770   4.837   4.362 -2.5637 -2.3699  0.1174
19953LIG     H981314   4.709   4.786   4.204  1.9578 -0.2911 -1.4093
19953LIG    H1081315   5.326   5.050   4.159  1.0561  0.7692  1.2824
19953LIG    H1181316   5.289   4.701   4.354 -0.4045 -1.0390 -0.4523
19953LIG    H1281317   5.424   4.883   4.310 -0.9393 -0.4989  1.1723
19953LIG    H1381318   4.864   4.616   4.080  0.3910  0.5756  0.1515
19953LIG    H1481319   4.761   4.519   4.187 -0.1046  0.0343  0.1627
19953LIG    H1581320   4.944   4.491   4.178  0.2063  1.1335  0.2205
19953LIG    H1681321   4.958   4.915   4.710 -2.6929 -0.8199 -0.3306
19953LIG    H1781322   4.973   5.159   4.719 -5.0611  0.2496  0.5280
19953LIG    H1881323   5.487   5.101   4.301  0.8017  1.5229 -0.4685
19953LIG    H1981324   5.337   5.366   4.394  1.3018  2.5947 -0.3939
19953LIG    H2081325   5.620   5.330   4.278 -1.1436 -1.3464  0.4081
19953LIG    H2181326   5.020   5.356   4.407  2.0559  0.3221 -0.9535
19953LIG    H2281327   5.552   5.418   4.567  2.1790  3.0061 -1.8607
19953LIG    H2381328   5.677   5.151   4.452 -1.7853 -4.8512  0.6088
19953LIG    H2481329   5.296   5.399   4.194  0.0561  0.1365 -2.1077
19953LIG    H2581330   5.646   5.548   4.300  1.0473  0.1367  2.7804
19953LIG    H2681331   5.719   5.501   4.550 -1.8846 -0.3845  0.7297
19953LIG    H2781332   5.604   5.219   4.848  1.4989  1.6792 -0.8740
   6.78667   6.78667  17.26253
